Title
81356
    1CHL1    C3    1   1.608   5.681  10.280 -0.0488  0.8185  0.2102
    1CHL1    H3    2   1.671   5.594  10.253  1.2171  0.6468  3.2709
    1CHL1    O3    3   1.566   5.653  10.415  0.4131 -0.7686  0.0213
    1CHL1   H3'    4   1.499   5.717  10.436  2.2654  2.0819 -2.0854
    1CHL1    C4    5   1.675   5.819  10.272  0.0635  0.2713 -1.0193
    1CHL1   H4A    6   1.609   5.898  10.313 -0.7481 -0.2649 -1.2715
    1CHL1   H4B    7   1.769   5.814  10.331 -0.6145  0.5208  0.1071
    1CHL1    C5    8   1.699   5.856  10.128 -0.2711 -0.3885  0.3938
    1CHL1    C6    9   1.823   5.886  10.086 -0.6119 -0.6976  0.0001
    1CHL1    H6   10   1.904   5.896  10.159 -0.9257  0.0341  0.2472
    1CHL1    C7   11   1.855   5.928   9.944 -0.6446 -0.0685 -0.5130
    1CHL1   H7A   12   1.929   6.009   9.955  0.2700 -0.8958 -0.4497
    1CHL1   H7B   13   1.899   5.842   9.890  1.3240  1.2941 -1.1706
    1CHL1    C8   14   1.735   5.962   9.858  0.4489 -0.3360  0.0541
    1CHL1    H8   15   1.700   6.066   9.870  2.5743  0.4347 -0.0997
    1CHL1   C14   16   1.777   5.943   9.705  0.3094 -1.2143 -0.2242
    1CHL1   H14   17   1.806   5.839   9.679  2.7858 -0.6822  0.1929
    1CHL1   C15   18   1.897   6.030   9.660 -1.1654 -0.3596  0.0621
    1CHL1  H15A   19   1.894   6.133   9.702  0.1533 -0.1475 -0.2873
    1CHL1  H15B   20   1.991   5.980   9.695 -0.1750  1.8311  0.7504
    1CHL1   C16   21   1.887   6.027   9.508  0.4585  0.5549  0.2264
    1CHL1  H16A   22   1.884   6.134   9.477 -3.4094  0.8524  1.0972
    1CHL1  H16B   23   1.967   5.964   9.464  0.3626  0.3435  0.3510
    1CHL1   C17   24   1.744   5.964   9.472  0.8271  0.5977 -0.2929
    1CHL1   H17   25   1.751   5.854   9.460 -0.4584  0.4911 -0.1652
    1CHL1   C13   26   1.665   5.984   9.602  0.4282 -0.3336  0.1206
    1CHL1   C18   27   1.606   6.132   9.615 -0.0509 -0.1720 -0.5208
    1CHL1  H18A   28   1.688   6.206   9.615 -0.3205  0.2312  2.0182
    1CHL1  H18B   29   1.542   6.162   9.529 -1.4173  0.0812  0.5366
    1CHL1  H18C   30   1.554   6.148   9.712 -0.8382  2.3953 -1.2987
    1CHL1   C12   31   1.550   5.880   9.636 -0.4154 -0.2505 -0.5747
    1CHL1  H12A   32   1.462   5.905   9.573  0.5251  0.2170 -1.7210
    1CHL1  H12B   33   1.583   5.782   9.596  0.5606 -1.6304  3.1587
    1CHL1   C11   34   1.508   5.870   9.782  0.1683  0.1393 -0.0729
    1CHL1  H11A   35   1.451   5.962   9.808  2.5276  1.2247  1.5553
    1CHL1  H11B   36   1.434   5.788   9.796 -0.1111  0.7444  2.2744
    1CHL1    C9   37   1.627   5.853   9.877  0.5368 -0.5222  0.3051
    1CHL1    H9   38   1.682   5.761   9.849  2.6787  0.9499 -0.6162
    1CHL1   C10   39   1.580   5.845  10.028  0.3529  0.2550  0.6102
    1CHL1   C19   40   1.501   5.968  10.062  0.1382 -0.8429  1.2009
    1CHL1  H19A   41   1.494   6.008  10.165 -0.4537  0.9545  0.4974
    1CHL1  H19B   42   1.539   6.056  10.007 -0.4767 -0.6583  1.0606
    1CHL1  H19C   43   1.394   5.960  10.031  0.3766  2.2425 -0.8463
    1CHL1    C1   44   1.499   5.716  10.041 -0.3204  0.6276  0.5760
    1CHL1   H1A   45   1.397   5.721   9.996 -0.6656 -0.5183  1.2008
    1CHL1   H1B   46   1.559   5.632  10.001 -0.8724 -0.7990  2.5995
    1CHL1    C2   47   1.477   5.689  10.200 -0.3115 -0.5642  1.1550
    1CHL1   H2A   48   1.422   5.594  10.216  0.9867 -1.3919  0.8371
    1CHL1   H2B   49   1.426   5.780  10.237  0.5982  1.0389 -1.3058
    1CHL1   C20   50   1.687   6.003   9.331  0.4638  0.4039 -0.0321
    1CHL1   H20   51   1.636   6.101   9.338 -0.5441 -0.1159 -0.0441
    1CHL1   C21   52   1.582   5.900   9.276 -0.2778  0.1728  0.6414
    1CHL1  H21A   53   1.564   5.920   9.168 -1.3323  1.1983  0.9860
    1CHL1  H21B   54   1.485   5.920   9.325 -0.1413  0.3809  0.8288
    1CHL1  H21C   55   1.608   5.792   9.278  0.6614  0.3631 -0.0863
    1CHL1   C22   56   1.796   6.024   9.225 -0.7244  0.0081 -1.1880
    1CHL1  H22A   57   1.752   6.076   9.137 -0.7414 -0.2186 -1.3152
    1CHL1  H22B   58   1.878   6.085   9.267 -0.4598 -0.0896 -1.5557
    1CHL1   C23   59   1.865   5.892   9.181  0.5385  1.0143 -0.1035
    1CHL1  H23A   60   1.878   5.819   9.264  0.2354  1.6680  0.5246
    1CHL1  H23B   61   1.786   5.849   9.116  0.8150 -0.3373  0.4134
    1CHL1   C24   62   2.003   5.911   9.109  0.2252  0.8090 -0.3315
    1CHL1  H24A   63   2.067   5.965   9.181  0.4646  0.1577 -0.0581
    1CHL1  H24B   64   2.049   5.812   9.092  0.9889  0.9579  0.7834
    1CHL1   C25   65   1.988   5.993   8.983 -0.4931  0.2768 -0.7015
    1CHL1   H25   66   1.929   6.079   9.023  0.5006 -0.3241  2.2832
    1CHL1   C26   67   2.131   6.033   8.928 -0.5392  0.7708 -0.0623
    1CHL1  H26A   68   2.175   6.100   9.005  0.1366 -0.4937  0.6884
    1CHL1  H26B   69   2.188   5.938   8.917 -1.7510  0.2359 -2.3977
    1CHL1  H26C   70   2.118   6.085   8.831 -1.5059  0.0487 -0.3392
    1CHL1   C27   71   1.899   5.934   8.870 -0.3918  0.0552 -0.1151
    1CHL1  H27A   72   1.897   6.001   8.781  1.0978  1.4334  0.8350
    1CHL1  H27B   73   1.935   5.833   8.841 -0.9232  0.4449 -2.3274
    1CHL1  H27C   74   1.799   5.916   8.915 -0.1995 -0.1586  0.2311
    2CHL1    C3   75   2.475   3.077   9.943  0.1574  0.1639 -0.5152
    2CHL1    H3   76   2.436   2.974   9.960 -1.7134  0.3887 -2.8408
    2CHL1    O3   77   2.517   3.119  10.070  0.2984 -0.7624 -0.3185
    2CHL1   H3'   78   2.441   3.114  10.128  0.7385  0.9916  0.4546
    2CHL1    C4   79   2.597   3.090   9.852 -0.0766 -0.3402  1.0345
    2CHL1   H4A   80   2.653   3.183   9.874 -0.1411 -0.1213  0.3170
    2CHL1   H4B   81   2.676   3.020   9.886  0.3123 -0.4586 -0.0465
    2CHL1    C5   82   2.562   3.066   9.705  0.2004 -0.0204 -0.7840
    2CHL1    C6   83   2.632   2.987   9.628  0.1446 -0.2645  0.0885
    2CHL1    H6   84   2.714   2.930   9.675  0.2124 -0.4763 -0.2859
    2CHL1    C7   85   2.613   2.975   9.481  0.6288 -0.0777 -0.2340
    2CHL1   H7A   86   2.710   2.986   9.428  1.0052 -0.0663  0.4543
    2CHL1   H7B   87   2.570   2.873   9.469 -0.0652 -0.2201  2.7473
    2CHL1    C8   88   2.509   3.081   9.417 -0.8414  0.4832 -0.2087
    2CHL1    H8   89   2.566   3.176   9.404  1.0866 -0.7094 -0.9022
    2CHL1   C14   90   2.456   3.031   9.288  0.5445  1.3278  0.2567
    2CHL1   H14   91   2.395   2.945   9.322  2.6765 -0.5861 -0.4285
    2CHL1   C15   92   2.564   2.983   9.175  0.8696  0.5250 -0.1864
    2CHL1  H15A   93   2.657   3.044   9.174  0.5274  1.0668  0.0530
    2CHL1  H15B   94   2.594   2.878   9.191 -1.1477 -0.4410 -2.1949
    2CHL1   C16   95   2.482   2.998   9.043  0.6164  0.0490 -0.1294
    2CHL1  H16A   96   2.540   3.074   8.986  0.3767  1.1714  1.0836
    2CHL1  H16B   97   2.477   2.907   8.980  2.9346  1.1024 -2.0080
    2CHL1   C17   98   2.337   3.050   9.084 -0.0569  0.3385  0.3568
    2CHL1   H17   99   2.269   2.964   9.108  1.6389 -0.9046  0.9131
    2CHL1   C13  100   2.354   3.120   9.219  0.0168 -0.0935  0.3370
    2CHL1   C18  101   2.430   3.258   9.192 -0.0532  0.9613  0.0575
    2CHL1  H18A  102   2.447   3.318   9.284 -1.2269  2.3624 -0.5975
    2CHL1  H18B  103   2.524   3.241   9.136 -0.4037  1.6080 -0.7526
    2CHL1  H18C  104   2.361   3.321   9.132  0.0779  2.3786  1.3490
    2CHL1   C12  105   2.227   3.139   9.309 -0.5497  0.0208 -0.3968
    2CHL1  H12A  106   2.161   3.219   9.271 -1.8602 -0.7520  0.1791
    2CHL1  H12B  107   2.169   3.045   9.323 -1.6974  1.0822  3.3160
    2CHL1   C11  108   2.278   3.184   9.450  0.2752  0.3888  0.7278
    2CHL1  H11A  109   2.305   3.291   9.437 -0.7226  0.6446  0.7069
    2CHL1  H11B  110   2.182   3.192   9.505 -1.8791 -0.3105 -2.6097
    2CHL1    C9  111   2.395   3.101   9.512  0.5927  0.2430 -0.1235
    2CHL1    H9  112   2.353   2.999   9.523 -0.7629  0.7138 -0.7550
    2CHL1   C10  113   2.441   3.151   9.658 -0.2756  0.0921  0.8347
    2CHL1   C19  114   2.477   3.301   9.652  0.1831 -0.1478  0.4177
    2CHL1  H19A  115   2.389   3.359   9.618  1.5339  2.3829  0.9164
    2CHL1  H19B  116   2.521   3.326   9.752  1.6068 -0.9772  0.0295
    2CHL1  H19C  117   2.560   3.316   9.579 -0.1585  1.0771  0.2538
    2CHL1    C1  118   2.320   3.131   9.761  0.3281  0.0540  0.2964
    2CHL1   H1A  119   2.232   3.191   9.727 -1.9400 -1.7816  2.4952
    2CHL1   H1B  120   2.287   3.025   9.765  0.8821 -0.1114  0.5639
    2CHL1    C2  121   2.364   3.164   9.906 -0.1063 -0.0134 -0.2217
    2CHL1   H2A  122   2.274   3.139   9.967 -0.6677 -0.9804 -1.4190
    2CHL1   H2B  123   2.400   3.269   9.917 -1.6943  0.5340  0.0099
    2CHL1   C20  124   2.268   3.134   8.970  0.4357 -0.1035  0.2176
    2CHL1   H20  125   2.289   3.243   8.967 -1.1428  0.2456  0.8779
    2CHL1   C21  126   2.119   3.113   8.992  0.3421 -0.0858 -0.0386
    2CHL1  H21A  127   2.086   3.119   9.098  2.3966  1.1266  0.5754
    2CHL1  H21B  128   2.088   3.008   8.972 -0.8065 -0.0021  1.1277
    2CHL1  H21C  129   2.061   3.186   8.930  0.5356  1.7242  1.7872
    2CHL1   C22  130   2.310   3.095   8.826 -0.2930  0.5061  0.0609
    2CHL1  H22A  131   2.418   3.116   8.812 -0.2485 -0.8141 -1.9592
    2CHL1  H22B  132   2.300   2.985   8.811  0.4057  0.3796  0.4919
    2CHL1   C23  133   2.242   3.157   8.705 -0.7306  0.2125  0.2820
    2CHL1  H23A  134   2.134   3.129   8.714 -0.3863 -2.9231 -2.7616
    2CHL1  H23B  135   2.254   3.267   8.703 -0.8385  0.2237 -1.3471
    2CHL1   C24  136   2.302   3.095   8.574 -0.1266 -0.2963 -0.3397
    2CHL1  H24A  137   2.407   3.133   8.574 -0.7832  1.7384  1.5750
    2CHL1  H24B  138   2.284   2.987   8.560 -0.5967 -0.3462  0.5604
    2CHL1   C25  139   2.233   3.160   8.452 -0.4495 -0.0603  0.3462
    2CHL1   H25  140   2.134   3.111   8.440 -0.8455  0.7317  0.3647
    2CHL1   C26  141   2.210   3.314   8.451  0.1443 -0.1091 -0.5409
    2CHL1  H26A  142   2.199   3.340   8.344  0.8128  1.4728 -0.2495
    2CHL1  H26B  143   2.124   3.321   8.521  1.0791 -0.0385  0.6365
    2CHL1  H26C  144   2.297   3.374   8.486 -0.6173  1.2461 -0.9143
    2CHL1   C27  145   2.319   3.115   8.338 -0.8151 -0.0718 -0.3840
    2CHL1  H27A  146   2.323   3.004   8.326  1.3857 -0.2208  1.2155
    2CHL1  H27B  147   2.283   3.153   8.240  0.3380 -1.1399 -1.2775
    2CHL1  H27C  148   2.420   3.160   8.343  0.8128 -3.2551 -1.4949
    3CHL1    C3  149   3.098   2.629  10.223  0.7161 -0.4870 -0.0022
    3CHL1    H3  150   3.078   2.736  10.246  0.1299 -0.9039  1.6191
    3CHL1    O3  151   3.086   2.553  10.336 -0.2861  0.5576  0.0923
    3CHL1   H3'  152   3.178   2.544  10.361 -0.4982  1.4284  1.2464
    3CHL1    C4  153   2.982   2.584  10.126  0.5410  0.7220 -0.0363
    3CHL1   H4A  154   2.980   2.474  10.117 -1.9518  0.8758 -3.0880
    3CHL1   H4B  155   2.894   2.610  10.188 -0.2002  1.5934 -1.3875
    3CHL1    C5  156   2.989   2.624   9.980 -0.0916 -0.8243  0.3556
    3CHL1    C6  157   2.884   2.675   9.920  0.2457 -0.1143  0.0228
    3CHL1    H6  158   2.786   2.681   9.970  0.7507 -0.4668  1.0854
    3CHL1    C7  159   2.895   2.704   9.767 -0.9873 -0.8159 -0.2917
    3CHL1   H7A  160   2.809   2.670   9.705 -0.9885  0.1847 -0.8643
    3CHL1   H7B  161   2.896   2.815   9.768 -1.6520 -0.8030 -0.5764
    3CHL1    C8  162   3.023   2.646   9.698  0.5361 -0.0164  0.0467
    3CHL1    H8  163   3.002   2.537   9.692  1.7318 -0.4608  2.4563
    3CHL1   C14  164   3.051   2.717   9.560 -0.4123  0.1718 -1.1276
    3CHL1   H14  165   3.084   2.820   9.585  0.3181 -0.4649  0.6813
    3CHL1   C15  166   2.931   2.738   9.462 -0.1849  0.5104  0.1015
    3CHL1  H15A  167   2.840   2.677   9.483 -0.1664  0.8592  1.2625
    3CHL1  H15B  168   2.887   2.834   9.495 -2.5445 -0.6897  0.7242
    3CHL1   C16  169   2.983   2.726   9.326  0.0522  0.1358  0.0775
    3CHL1  H16A  170   2.945   2.632   9.279  0.3421  0.3048 -0.5091
    3CHL1  H16B  171   2.953   2.800   9.249  0.2524 -0.3880 -0.5211
    3CHL1   C17  172   3.140   2.714   9.345 -0.8095  0.2262 -0.0715
    3CHL1   H17  173   3.184   2.817   9.345  1.3364 -0.6287  0.4377
    3CHL1   C13  174   3.160   2.647   9.485  0.0616 -0.1662  0.5109
    3CHL1   C18  175   3.126   2.498   9.464 -0.0808 -0.4078 -0.7744
    3CHL1  H18A  176   3.120   2.447   9.563 -0.6234  0.8566 -0.1344
    3CHL1  H18B  177   3.027   2.479   9.417 -1.2611  1.3893  0.8141
    3CHL1  H18C  178   3.211   2.441   9.422 -0.2997 -0.8994 -0.5703
    3CHL1   C12  179   3.292   2.670   9.560 -0.1045 -0.4336 -0.2041
    3CHL1  H12A  180   3.390   2.635   9.523  1.4714  2.8134  0.5179
    3CHL1  H12B  181   3.311   2.780   9.561 -2.2841  0.0439 -2.3682
    3CHL1   C11  182   3.286   2.609   9.704 -0.0108  0.7387  0.0645
    3CHL1  H11A  183   3.296   2.498   9.701 -1.5067  0.5677  0.6413
    3CHL1  H11B  184   3.380   2.641   9.754  1.3002 -0.4800 -1.5213
    3CHL1    C9  185   3.158   2.660   9.782  0.9281 -0.0863 -0.2175
    3CHL1    H9  186   3.180   2.768   9.792  1.7052 -0.0441 -1.9499
    3CHL1   C10  187   3.138   2.608   9.927  0.0141 -0.4741  0.1768
    3CHL1   C19  188   3.164   2.456   9.922  0.6398  0.6066  0.0624
    3CHL1  H19A  189   3.139   2.413  10.021 -1.8605  2.1319  0.1795
    3CHL1  H19B  190   3.102   2.417   9.838 -0.2872 -1.6996  1.7187
    3CHL1  H19C  191   3.272   2.440   9.902  0.4408  0.1278 -0.6869
    3CHL1    C1  192   3.233   2.682  10.026 -0.4910 -0.8290  0.5961
    3CHL1   H1A  193   3.337   2.679   9.988  0.7271  2.4610  3.1557
    3CHL1   H1B  194   3.197   2.787  10.035  2.2973  0.1296  1.4731
    3CHL1    C2  195   3.237   2.623  10.166 -0.1280  0.2655 -0.4496
    3CHL1   H2A  196   3.304   2.689  10.224  1.0827 -0.9402 -0.4308
    3CHL1   H2B  197   3.288   2.526  10.185  0.9942  0.7224 -1.0174
    3CHL1   C20  198   3.211   2.641   9.226  0.3115  0.4760 -0.5375
    3CHL1   H20  199   3.179   2.535   9.212  1.8277 -0.4495  2.2212
    3CHL1   C21  200   3.362   2.641   9.248 -0.5526 -0.2662  0.0741
    3CHL1  H21A  201   3.392   2.741   9.288 -1.6700  0.2127 -0.2554
    3CHL1  H21B  202   3.421   2.628   9.155  2.1307  1.9302  1.3006
    3CHL1  H21C  203   3.394   2.557   9.313  1.4492  0.1753 -0.2636
    3CHL1   C22  204   3.184   2.711   9.088 -0.2238  0.0729 -0.1739
    3CHL1  H22A  205   3.076   2.734   9.072 -0.3702  0.5456  1.2518
    3CHL1  H22B  206   3.233   2.810   9.096  0.1802 -0.1583  0.2678
    3CHL1   C23  207   3.229   2.624   8.971  0.9119 -0.9401 -0.6283
    3CHL1  H23A  208   3.340   2.631   8.962  0.9130 -2.3032 -2.0323
    3CHL1  H23B  209   3.203   2.519   8.994  2.2914 -0.9500  1.0815
    3CHL1   C24  210   3.168   2.665   8.836 -0.1896  0.3285 -0.7243
    3CHL1  H24A  211   3.058   2.677   8.850 -0.4721 -2.2103 -0.2947
    3CHL1  H24B  212   3.220   2.759   8.811  0.0893  0.4767  0.3702
    3CHL1   C25  213   3.199   2.567   8.725  0.1681 -0.3314  0.7981
    3CHL1   H25  214   3.308   2.547   8.734 -0.1140 -1.7643  1.2350
    3CHL1   C26  215   3.119   2.438   8.726 -0.8887  0.3235 -0.0852
    3CHL1  H26A  216   3.021   2.459   8.677 -1.2239  2.3563  1.3409
    3CHL1  H26B  217   3.174   2.363   8.665 -0.3129  0.6623  0.0032
    3CHL1  H26C  218   3.101   2.399   8.828 -0.8881  1.8673  0.5311
    3CHL1   C27  219   3.161   2.633   8.590 -0.3393 -0.1377  0.0111
    3CHL1  H27A  220   3.194   2.557   8.516  1.0212 -2.2628  2.6148
    3CHL1  H27B  221   3.052   2.654   8.586 -0.4351 -0.6549 -0.2705
    3CHL1  H27C  222   3.208   2.733   8.585  0.0403 -0.3127  0.0668
    4CHL1    C3  223   2.021   4.400  10.569  0.1404  0.1147  0.2193
    4CHL1    H3  224   2.130   4.377  10.568  0.1989  0.3421  0.7003
    4CHL1    O3  225   1.986   4.404  10.705  0.2374  0.0059  0.0518
    4CHL1   H3'  226   1.891   4.404  10.692  0.3229  0.5012 -0.6118
    4CHL1    C4  227   2.007   4.534  10.496 -0.4973 -0.3572  0.3804
    4CHL1   H4A  228   1.906   4.569  10.526 -1.3721 -1.9696 -0.5734
    4CHL1   H4B  229   2.065   4.616  10.544 -0.2359 -0.8354  0.8987
    4CHL1    C5  230   2.031   4.533  10.345 -0.1485  0.6051  0.3005
    4CHL1    C6  231   2.119   4.612  10.277 -0.4871  0.7682 -0.0206
    4CHL1    H6  232   2.177   4.688  10.330 -1.1275  0.9020  0.5034
    4CHL1    C7  233   2.138   4.610  10.129  0.5136 -0.0340 -0.0286
    4CHL1   H7A  234   2.145   4.716  10.096 -1.6747  0.1154 -0.1466
    4CHL1   H7B  235   2.230   4.558  10.096  0.5736 -0.8654  1.3699
    4CHL1    C8  236   2.023   4.545  10.061  0.6996  0.2540 -0.2579
    4CHL1    H8  237   1.933   4.609  10.070  2.3008  2.9009 -1.9543
    4CHL1   C14  238   2.053   4.531   9.916  0.2746  0.0490 -0.6952
    4CHL1   H14  239   2.138   4.460   9.906 -0.5030 -0.8452 -0.9939
    4CHL1   C15  240   2.101   4.658   9.838  0.3112  0.2433  0.5516
    4CHL1  H15A  241   2.037   4.744   9.865 -2.7397 -1.4380 -0.8904
    4CHL1  H15B  242   2.209   4.673   9.861  0.7301 -1.5711 -0.0572
    4CHL1   C16  243   2.067   4.627   9.689  0.3628  0.1327  0.2119
    4CHL1  H16A  244   1.979   4.685   9.653  0.4400 -0.2101 -0.5260
    4CHL1  H16B  245   2.147   4.641   9.613  0.3665 -0.5610  0.0859
    4CHL1   C17  246   2.011   4.476   9.689 -0.1578 -0.1554 -0.1789
    4CHL1   H17  247   2.096   4.404   9.692 -0.5789 -0.6159  1.2145
    4CHL1   C13  248   1.945   4.458   9.828  0.0929 -0.2428 -0.8509
    4CHL1   C18  249   1.812   4.537   9.844  0.3210 -0.1727 -0.2886
    4CHL1  H18A  250   1.759   4.502   9.935  0.4975  1.8883  0.6546
    4CHL1  H18B  251   1.810   4.647   9.829 -0.5422 -0.2291 -0.6908
    4CHL1  H18C  252   1.733   4.508   9.771  0.6163 -0.8554 -0.3421
    4CHL1   C12  253   1.936   4.310   9.893  0.1618  0.2735  0.1716
    4CHL1  H12A  254   1.853   4.251   9.849 -0.5181  0.9104  0.5785
    4CHL1  H12B  255   2.034   4.260   9.875 -0.2251 -0.3141 -0.3337
    4CHL1   C11  256   1.902   4.310  10.042  0.5390  0.2276  0.5738
    4CHL1  H11A  257   1.795   4.342  10.045  0.7216  1.0176 -0.5595
    4CHL1  H11B  258   1.918   4.211  10.090 -0.5887  1.2457  3.2993
    4CHL1    C9  259   1.995   4.404  10.131 -0.5682 -0.0187  0.0029
    4CHL1    H9  260   2.098   4.362  10.130 -0.3096  0.4609  2.0162
    4CHL1   C10  261   1.945   4.419  10.277 -0.0970  0.2262  0.3474
    4CHL1   C19  262   1.794   4.439  10.282 -0.1090 -0.3444 -0.1931
    4CHL1  H19A  263   1.746   4.338  10.286  0.1046 -0.4066  0.9541
    4CHL1  H19B  264   1.759   4.489  10.375 -0.3789 -3.9352  1.8032
    4CHL1  H19C  265   1.747   4.489  10.195  1.6435 -1.1906 -1.6893
    4CHL1    C1  266   1.976   4.288  10.351  0.6260  0.4262  0.2321
    4CHL1   H1A  267   1.934   4.201  10.295  2.0428  0.2693 -0.6419
    4CHL1   H1B  268   2.086   4.272  10.350  0.4661 -0.8095 -0.1264
    4CHL1    C2  269   1.942   4.284  10.505  0.3297 -0.9258  0.3583
    4CHL1   H2A  270   1.973   4.185  10.545 -0.4658 -2.2484 -2.0948
    4CHL1   H2B  271   1.834   4.291  10.530  0.6035  2.0681  1.0061
    4CHL1   C20  272   1.922   4.447   9.567  0.1462  0.1647  0.2209
    4CHL1   H20  273   1.845   4.526   9.556  0.2445 -0.0423 -2.5500
    4CHL1   C21  274   1.858   4.307   9.570 -0.0329 -0.0146  0.2005
    4CHL1  H21A  275   1.805   4.271   9.479 -0.6752 -1.1259  0.9817
    4CHL1  H21B  276   1.797   4.288   9.661  0.2311  2.0377  0.8627
    4CHL1  H21C  277   1.941   4.235   9.585 -0.0420 -0.0794 -0.0525
    4CHL1   C22  278   2.006   4.465   9.442  0.3373  0.1264 -0.2837
    4CHL1  H22A  279   2.072   4.554   9.435  1.2696 -0.3574  1.7896
    4CHL1  H22B  280   2.079   4.382   9.436 -0.4958 -0.6022 -0.6675
    4CHL1   C23  281   1.907   4.480   9.320 -0.3175  0.3253 -0.6160
    4CHL1  H23A  282   1.836   4.395   9.316  0.6448 -0.6072  0.8671
    4CHL1  H23B  283   1.839   4.562   9.349  0.3875  2.7230 -5.0184
    4CHL1   C24  284   1.979   4.520   9.188 -0.2484  0.2046  0.2457
    4CHL1  H24A  285   2.052   4.601   9.209 -1.3938  0.6227  3.1695
    4CHL1  H24B  286   2.029   4.425   9.160 -0.4757 -0.7340  2.7879
    4CHL1   C25  287   1.883   4.559   9.072  0.5554 -0.3926  1.1019
    4CHL1   H25  288   1.795   4.596   9.128  0.3778  0.4004  0.3415
    4CHL1   C26  289   1.932   4.673   8.982  0.1000 -0.4706 -0.1013
    4CHL1  H26A  290   1.989   4.754   9.033  0.3263  0.6698 -2.0637
    4CHL1  H26B  291   1.995   4.633   8.899 -0.8160 -1.2307 -0.4534
    4CHL1  H26C  292   1.842   4.715   8.933  0.4180  1.2934  0.7579
    4CHL1   C27  293   1.836   4.434   9.001 -0.0583 -0.2319  0.4608
    4CHL1  H27A  294   1.765   4.459   8.919  0.9431  2.1238  0.2187
    4CHL1  H27B  295   1.914   4.378   8.946 -0.6153  0.9833 -1.7163
    4CHL1  H27C  296   1.791   4.360   9.070 -0.7426  1.7351  2.2508
    5CHL1    C3  297   3.542   3.381  10.278 -0.0513 -0.0369  0.4648
    5CHL1    H3  298   3.584   3.283  10.246  2.1544  1.1496 -0.4832
    5CHL1    O3  299   3.539   3.394  10.415  0.3111  0.3793 -0.0778
    5CHL1   H3'  300   3.567   3.485  10.429 -2.4478  1.7467 -2.1979
    5CHL1    C4  301   3.637   3.488  10.214  0.4045 -0.4921  0.2844
    5CHL1   H4A  302   3.616   3.588  10.257 -0.3051 -1.7060  2.9948
    5CHL1   H4B  303   3.736   3.457  10.254  1.2748  0.0137 -1.4173
    5CHL1    C5  304   3.646   3.491  10.062 -0.0389 -0.4631 -0.0489
    5CHL1    C6  305   3.759   3.472   9.996  0.0434 -0.8362 -0.2426
    5CHL1    H6  306   3.854   3.461  10.050  0.9587 -0.0939 -1.6280
    5CHL1    C7  307   3.771   3.467   9.846 -0.1573 -0.5568 -0.4765
    5CHL1   H7A  308   3.852   3.536   9.814 -0.6108  0.0328 -0.3718
    5CHL1   H7B  309   3.780   3.358   9.828  1.3796 -0.5721  0.2007
    5CHL1    C8  310   3.638   3.517   9.774 -0.3619  0.0399 -0.2966
    5CHL1    H8  311   3.643   3.628   9.774  0.2062  0.0214 -0.2223
    5CHL1   C14  312   3.627   3.473   9.628  0.2744 -0.2258 -0.3039
    5CHL1   H14  313   3.612   3.363   9.639 -3.6104  0.2703  0.7498
    5CHL1   C15  314   3.744   3.503   9.541  0.0751 -0.5839  0.2752
    5CHL1  H15A  315   3.779   3.608   9.555  2.4368 -1.5375  2.1779
    5CHL1  H15B  316   3.827   3.435   9.570 -1.5944 -1.7997  2.4963
    5CHL1   C16  317   3.688   3.494   9.399 -0.2389 -0.4753  0.5118
    5CHL1  H16A  318   3.703   3.593   9.351 -0.7442 -0.4272  0.4491
    5CHL1  H16B  319   3.734   3.407   9.348 -0.1759 -2.2305  3.3663
    5CHL1   C17  320   3.534   3.471   9.414  0.7788  0.0953 -0.0061
    5CHL1   H17  321   3.534   3.361   9.430 -0.0526  0.1064  0.1272
    5CHL1   C13  322   3.503   3.533   9.554 -0.4400 -0.0896  0.2007
    5CHL1   C18  323   3.502   3.685   9.549 -0.1941 -0.1285  0.0598
    5CHL1  H18A  324   3.482   3.736   9.645  0.8015  0.6387 -0.1227
    5CHL1  H18B  325   3.602   3.712   9.509  0.4563 -1.6376  0.5802
    5CHL1  H18C  326   3.418   3.713   9.481  0.2736 -0.2920 -0.5998
    5CHL1   C12  327   3.380   3.472   9.625  0.0166 -0.1242 -0.6557
    5CHL1  H12A  328   3.282   3.497   9.579  0.2313 -2.3328 -2.5415
    5CHL1  H12B  329   3.389   3.362   9.613  0.9788 -0.2000  0.5763
    5CHL1   C11  330   3.376   3.508   9.774 -0.2026  0.0422  0.0982
    5CHL1  H11A  331   3.366   3.618   9.782  0.5790  0.2444 -1.2918
    5CHL1  H11B  332   3.288   3.466   9.828 -0.0851 -0.7177 -0.2901
    5CHL1    C9  333   3.510   3.468   9.843 -0.0119 -0.8028  0.0241
    5CHL1    H9  334   3.502   3.357   9.844  1.3718 -0.9158  0.5054
    5CHL1   C10  335   3.503   3.502   9.993 -0.4382  0.1168  0.2118
    5CHL1   C19  336   3.471   3.651  10.014  0.0880 -0.0742  0.7253
    5CHL1  H19A  337   3.369   3.680   9.980 -0.2732 -2.5885 -0.6453
    5CHL1  H19B  338   3.496   3.679  10.118  0.1312 -2.0198  1.2801
    5CHL1  H19C  339   3.539   3.718   9.957 -0.3429  0.5027  0.8832
    5CHL1    C1  340   3.400   3.401  10.060 -0.9863 -0.2562  0.2873
    5CHL1   H1A  341   3.296   3.427  10.029 -0.8829 -0.3939 -0.1847
    5CHL1   H1B  342   3.416   3.295  10.029 -0.3348 -0.6170  1.7532
    5CHL1    C2  343   3.400   3.403  10.215 -0.2754  0.2877  1.4326
    5CHL1   H2A  344   3.330   3.320  10.237  1.1380 -2.0500 -2.0376
    5CHL1   H2B  345   3.355   3.498  10.252  0.2213  0.0610  2.6736
    5CHL1   C20  346   3.458   3.507   9.280 -0.0947 -0.4877 -0.5451
    5CHL1   H20  347   3.493   3.608   9.252 -1.6084  0.5914  1.2029
    5CHL1   C21  348   3.303   3.503   9.302 -0.6455 -0.0947 -0.7978
    5CHL1  H21A  349   3.250   3.510   9.205 -0.4573  0.0265 -0.8928
    5CHL1  H21B  350   3.261   3.575   9.376  1.6850  1.0772 -0.5056
    5CHL1  H21C  351   3.272   3.406   9.344  0.0541  0.5249  1.2924
    5CHL1   C22  352   3.493   3.411   9.165 -0.0235  0.0894  0.4207
    5CHL1  H22A  353   3.595   3.368   9.172 -0.4219 -0.9595  0.0496
    5CHL1  H22B  354   3.427   3.322   9.175  0.0334 -0.2888 -1.9534
    5CHL1   C23  355   3.454   3.473   9.029  0.5995  0.2388  0.6746
    5CHL1  H23A  356   3.348   3.443   9.018  0.5346 -0.0377  1.8754
    5CHL1  H23B  357   3.457   3.583   9.046  0.8278  0.0114  2.2983
    5CHL1   C24  358   3.544   3.440   8.918 -0.6940  0.3284  0.9736
    5CHL1  H24A  359   3.653   3.455   8.935  0.3249 -2.8128 -1.7777
    5CHL1  H24B  360   3.547   3.331   8.896 -0.8410  0.3883  0.6496
    5CHL1   C25  361   3.500   3.506   8.785  0.1229  0.3729  0.3138
    5CHL1   H25  362   3.394   3.477   8.773  0.5373 -0.3341 -2.4543
    5CHL1   C26  363   3.518   3.661   8.782  0.6008  0.9367 -0.6305
    5CHL1  H26A  364   3.500   3.708   8.683 -1.2374  1.7425  0.0334
    5CHL1  H26B  365   3.464   3.707   8.867  1.5136  0.2825  0.3316
    5CHL1  H26C  366   3.623   3.678   8.812  0.8015 -1.8225  0.5684
    5CHL1   C27  367   3.571   3.458   8.656 -0.1749  0.4133 -0.1901
    5CHL1  H27A  368   3.509   3.486   8.568 -1.4427  0.0024  0.5459
    5CHL1  H27B  369   3.676   3.492   8.643 -0.0720 -0.4454 -1.8503
    5CHL1  H27C  370   3.591   3.349   8.661  1.6347  0.7582  2.3223
    6CHL1    C3  371   1.289   0.382  10.307  0.0571 -0.0911 -0.1836
    6CHL1    H3  372   1.323   0.276  10.298 -2.2500 -0.8941 -0.1281
    6CHL1    O3  373   1.252   0.413  10.442 -0.2059 -0.0154 -0.3064
    6CHL1   H3'  374   1.244   0.509  10.448 -1.4355 -0.0157 -1.3214
    6CHL1    C4  375   1.408   0.468  10.261 -0.0087  0.5758  0.0002
    6CHL1   H4A  376   1.390   0.577  10.277  1.6006  0.8968 -0.2496
    6CHL1   H4B  377   1.492   0.454  10.333  0.5852  0.0557 -0.7862
    6CHL1    C5  378   1.434   0.444  10.115 -0.1103 -0.8079 -0.2781
    6CHL1    C6  379   1.559   0.410  10.079  0.3473 -0.6652  0.4275
    6CHL1    H6  380   1.634   0.386  10.156  2.2499  2.1611 -0.3921
    6CHL1    C7  381   1.614   0.412   9.937  0.4072 -0.2576  0.4991
    6CHL1   H7A  382   1.707   0.472   9.929 -0.9816  1.9220 -0.2475
    6CHL1   H7B  383   1.626   0.305   9.910 -0.2555 -0.1969 -0.0923
    6CHL1    C8  384   1.506   0.472   9.839  0.0701 -0.3761 -0.3762
    6CHL1    H8  385   1.503   0.582   9.852 -0.1523 -0.5390  1.1638
    6CHL1   C14  386   1.551   0.442   9.700 -0.3019  0.3404  0.6700
    6CHL1   H14  387   1.549   0.331   9.694 -2.0732  0.3956 -0.7031
    6CHL1   C15  388   1.691   0.495   9.654 -0.1020 -0.7965 -0.0235
    6CHL1  H15A  389   1.686   0.604   9.676 -0.4860 -0.8398  0.1201
    6CHL1  H15B  390   1.777   0.455   9.712  0.1718  0.4796  0.4795
    6CHL1   C16  391   1.682   0.471   9.504 -0.8034 -0.0330  0.3955
    6CHL1  H16A  392   1.717   0.559   9.446  2.2855 -1.5291 -0.2063
    6CHL1  H16B  393   1.736   0.377   9.478 -0.3178  0.4974 -0.5531
    6CHL1   C17  394   1.534   0.454   9.464 -0.4030  0.0785 -0.4091
    6CHL1   H17  395   1.515   0.346   9.444 -1.3524  0.1629 -0.0267
    6CHL1   C13  396   1.454   0.491   9.594 -0.3285 -0.0905 -0.2642
    6CHL1   C18  397   1.431   0.643   9.592 -0.2961 -0.5048 -0.1464
    6CHL1  H18A  398   1.517   0.703   9.555 -0.6001  1.0240  1.4641
    6CHL1  H18B  399   1.338   0.674   9.540  0.6677  3.1626  0.0202
    6CHL1  H18C  400   1.410   0.674   9.697  1.2563 -0.8206  0.2854
    6CHL1   C12  401   1.327   0.412   9.624  0.1342 -0.1515  0.0967
    6CHL1  H12A  402   1.251   0.433   9.546 -1.0952  2.5097  1.8626
    6CHL1  H12B  403   1.343   0.302   9.623 -1.2580 -0.3851 -1.9123
    6CHL1   C11  404   1.259   0.455   9.757  0.0759 -0.5185 -0.6098
    6CHL1  H11A  405   1.228   0.561   9.747  0.5940 -0.4383 -1.4132
    6CHL1  H11B  406   1.176   0.384   9.779  0.2539 -0.4578  0.3023
    6CHL1    C9  407   1.361   0.428   9.874  0.1396  0.1233  0.3802
    6CHL1    H9  408   1.360   0.317   9.868 -1.8032  0.0970  0.7080
    6CHL1   C10  409   1.318   0.469  10.018  0.0973 -0.2304 -0.0962
    6CHL1   C19  410   1.310   0.626  10.018  0.6186  0.8331  0.1872
    6CHL1  H19A  411   1.247   0.659   9.933  0.5863  3.1779  1.0488
    6CHL1  H19B  412   1.258   0.666  10.108 -3.9942 -2.8860 -0.4517
    6CHL1  H19C  413   1.405   0.681   9.999  1.7289 -1.1978 -0.3952
    6CHL1    C1  414   1.187   0.391  10.060 -0.5940 -0.4809 -0.5334
    6CHL1   H1A  415   1.096   0.423  10.004  0.3593  1.3550 -1.1163
    6CHL1   H1B  416   1.213   0.286  10.034  0.5291 -0.5293  0.6950
    6CHL1    C2  417   1.165   0.404  10.218 -1.0513 -0.0454  0.1640
    6CHL1   H2A  418   1.090   0.326  10.245  0.1383 -0.6122  2.0788
    6CHL1   H2B  419   1.141   0.510  10.241  0.9675  0.7248 -1.0278
    6CHL1   C20  420   1.490   0.518   9.333  0.4331 -0.1032 -0.6063
    6CHL1   H20  421   1.514   0.626   9.339 -3.5300  0.8490  1.4207
    6CHL1   C21  422   1.340   0.505   9.309 -0.0882 -0.2041 -0.4268
    6CHL1  H21A  423   1.293   0.549   9.219  0.4889 -2.1068 -1.7106
    6CHL1  H21B  424   1.285   0.545   9.398 -0.3551  0.4546 -0.8767
    6CHL1  H21C  425   1.307   0.400   9.299 -1.5045  0.0144  1.3369
    6CHL1   C22  426   1.569   0.461   9.219  0.6594 -0.2833 -0.4964
    6CHL1  H22A  427   1.678   0.460   9.240  0.4264  1.2249  0.9995
    6CHL1  H22B  428   1.542   0.357   9.189 -0.2391  0.2500 -1.6447
    6CHL1   C23  429   1.564   0.537   9.084  0.3131  0.6205 -0.3551
    6CHL1  H23A  430   1.464   0.539   9.035  0.6650 -2.5364 -1.3883
    6CHL1  H23B  431   1.580   0.643   9.114 -0.0568  0.5607  0.0542
    6CHL1   C24  432   1.652   0.482   8.977 -0.0144  0.3409  0.0503
    6CHL1  H24A  433   1.756   0.481   9.017  0.5510 -2.1521 -1.3158
    6CHL1  H24B  434   1.626   0.374   8.972 -4.4232  1.0872  1.8383
    6CHL1   C25  435   1.661   0.557   8.847  0.6265  0.2684  0.1878
    6CHL1   H25  436   1.718   0.649   8.870  0.8819  0.1304  0.1117
    6CHL1   C26  437   1.742   0.468   8.746 -0.5957 -0.7979  0.0092
    6CHL1  H26A  438   1.757   0.526   8.653 -1.0675  1.0043  1.0069
    6CHL1  H26B  439   1.844   0.439   8.779 -0.0334 -0.5620 -1.4524
    6CHL1  H26C  440   1.698   0.366   8.734  1.1103 -1.7231  1.1806
    6CHL1   C27  441   1.527   0.586   8.781  1.0253  0.4640  0.0531
    6CHL1  H27A  442   1.479   0.664   8.844 -3.0199 -1.0231 -0.8348
    6CHL1  H27B  443   1.550   0.624   8.679  0.3148  2.4414  0.5816
    6CHL1  H27C  444   1.459   0.499   8.771  1.9545 -0.1369 -1.1741
    7CHL1    C3  445   4.115   4.192  10.544  0.0382 -0.2947 -0.1018
    7CHL1    H3  446   4.130   4.083  10.526 -1.1306 -0.7325  1.4104
    7CHL1    O3  447   4.108   4.212  10.687  0.2324 -0.3952  0.3707
    7CHL1   H3'  448   4.073   4.301  10.700  0.7485 -0.2499  0.8037
    7CHL1    C4  449   4.225   4.279  10.485  0.1269  0.3891 -0.1248
    7CHL1   H4A  450   4.218   4.383  10.523 -1.4335 -0.2368  1.4737
    7CHL1   H4B  451   4.317   4.236  10.530 -0.4631  0.2064  0.9598
    7CHL1    C5  452   4.233   4.282  10.334 -0.1391  0.0697  0.4215
    7CHL1    C6  453   4.355   4.261  10.283  0.6097  0.1590  0.4960
    7CHL1    H6  454   4.447   4.236  10.339  1.7870  0.0154 -1.4131
    7CHL1    C7  455   4.377   4.269  10.134 -0.0947 -0.2476 -0.1915
    7CHL1   H7A  456   4.474   4.322  10.123  1.2018 -2.4164  0.2277
    7CHL1   H7B  457   4.383   4.162  10.106 -2.3189  0.3918 -3.7113
    7CHL1    C8  458   4.261   4.337  10.062 -0.3485 -0.2191  0.3527
    7CHL1    H8  459   4.267   4.444  10.089 -1.2685  0.0339 -0.4072
    7CHL1   C14  460   4.269   4.318   9.911  0.0418  0.1400 -0.1295
    7CHL1   H14  461   4.255   4.209   9.898  0.5731  0.2739 -2.2707
    7CHL1   C15  462   4.408   4.335   9.841  0.3453 -0.9459  1.1794
    7CHL1  H15A  463   4.463   4.417   9.891 -0.4179  0.0201  0.4817
    7CHL1  H15B  464   4.475   4.247   9.830  0.1217 -0.9374 -0.6249
    7CHL1   C16  465   4.370   4.372   9.692  0.1663  0.2765 -0.2182
    7CHL1  H16A  466   4.390   4.480   9.675  2.1235  0.7167  3.6564
    7CHL1  H16B  467   4.432   4.314   9.621 -1.8056 -1.1153 -0.9025
    7CHL1   C17  468   4.213   4.347   9.686 -0.2565  0.3190  0.0555
    7CHL1   H17  469   4.194   4.239   9.669 -0.9919  0.6685 -1.5889
    7CHL1   C13  470   4.159   4.380   9.825  0.1318  0.3344 -0.0861
    7CHL1   C18  471   4.155   4.530   9.856 -0.1518  0.8971  0.6747
    7CHL1  H18A  472   4.137   4.551   9.963 -1.4402 -1.8426  1.0875
    7CHL1  H18B  473   4.249   4.582   9.826 -0.7440  0.0491 -3.1577
    7CHL1  H18C  474   4.081   4.582   9.791  0.4013  0.8996  0.0319
    7CHL1   C12  475   4.024   4.311   9.865  0.1011  0.0128 -0.4578
    7CHL1  H12A  476   3.940   4.355   9.806 -1.0002 -0.1254  0.9722
    7CHL1  H12B  477   4.026   4.203   9.837  0.1289 -0.1265  0.0816
    7CHL1   C11  478   3.996   4.340  10.018  0.3573  0.3183  0.5362
    7CHL1  H11A  479   3.977   4.448  10.035 -1.4521  0.0858  0.1582
    7CHL1  H11B  480   3.908   4.286  10.058  1.1556 -0.5688  1.1779
    7CHL1    C9  481   4.118   4.294  10.106  0.0617  0.0770  0.0787
    7CHL1    H9  482   4.124   4.183  10.100  1.7553  0.1978 -1.4044
    7CHL1   C10  483   4.101   4.311  10.262  0.1867 -0.1364  1.1141
    7CHL1   C19  484   4.068   4.464  10.285 -0.2978 -0.1220 -0.0994
    7CHL1  H19A  485   3.964   4.478  10.247 -1.2826 -0.9698  2.1320
    7CHL1  H19B  486   4.065   4.486  10.393 -0.2801 -1.8238  0.2750
    7CHL1  H19C  487   4.136   4.537  10.235  1.9089 -2.1228 -0.1622
    7CHL1    C1  488   3.988   4.224  10.328  0.7949  0.5598 -0.3711
    7CHL1   H1A  489   3.885   4.248  10.293  0.3337 -1.8894 -0.8363
    7CHL1   H1B  490   4.002   4.124  10.282  3.2272  0.6756 -0.0477
    7CHL1    C2  491   3.985   4.241  10.480 -0.3120 -0.3095  0.5979
    7CHL1   H2A  492   3.897   4.188  10.524  0.4760 -1.3210  1.0012
    7CHL1   H2B  493   3.967   4.348  10.503 -3.4802 -0.6883  0.3110
    7CHL1   C20  494   4.165   4.413   9.564  0.3299  0.0673 -0.2134
    7CHL1   H20  495   4.197   4.520   9.567 -1.6646  0.7018  0.0214
    7CHL1   C21  496   4.016   4.405   9.551 -0.4155  1.0019 -0.3360
    7CHL1  H21A  497   3.986   4.437   9.449 -0.7200  0.3534 -0.4619
    7CHL1  H21B  498   3.954   4.465   9.621 -0.0778  1.1967 -0.2030
    7CHL1  H21C  499   3.996   4.300   9.582  2.0341  0.2949 -0.9415
    7CHL1   C22  500   4.222   4.344   9.431  0.0185  0.4986 -0.8310
    7CHL1  H22A  501   4.325   4.306   9.445 -0.3038  0.4749  2.0865
    7CHL1  H22B  502   4.155   4.256   9.418 -0.1787  0.3326  1.0475
    7CHL1   C23  503   4.214   4.439   9.310 -0.3000 -0.9101 -0.0429
    7CHL1  H23A  504   4.247   4.376   9.224  0.0441 -2.7031  1.3450
    7CHL1  H23B  505   4.112   4.476   9.286 -0.2661 -1.2928 -0.8184
    7CHL1   C24  506   4.307   4.560   9.327 -0.1069 -0.1824  0.5278
    7CHL1  H24A  507   4.274   4.617   9.416 -1.8177  0.1560 -0.2713
    7CHL1  H24B  508   4.413   4.537   9.350 -0.0233 -1.0055 -0.5955
    7CHL1   C25  509   4.294   4.661   9.207  0.3370  0.0404  0.2415
    7CHL1   H25  510   4.184   4.678   9.197  0.0767 -1.8547 -0.4390
    7CHL1   C26  511   4.352   4.801   9.247 -0.1713 -1.1480 -0.3667
    7CHL1  H26A  512   4.461   4.789   9.265 -0.2950 -0.8141  0.6169
    7CHL1  H26B  513   4.336   4.882   9.173  0.5408 -0.3001  0.3944
    7CHL1  H26C  514   4.298   4.834   9.338  0.0261 -0.3420 -0.5397
    7CHL1   C27  515   4.352   4.611   9.070 -0.0332 -0.5087 -0.3242
    7CHL1  H27A  516   4.463   4.608   9.062 -0.0213 -3.4801 -0.2862
    7CHL1  H27B  517   4.318   4.509   9.040 -1.4514 -0.6712  1.6907
    7CHL1  H27C  518   4.326   4.679   8.986  0.0490  1.3776  1.1343
    8CHL1    C3  519   4.769   5.320  10.352 -0.2891 -0.4004  0.5065
    8CHL1    H3  520   4.868   5.270  10.338 -0.4051 -0.0503 -2.0418
    8CHL1    O3  521   4.736   5.319  10.487  0.3390  0.5925 -0.3625
    8CHL1   H3'  522   4.711   5.407  10.517  0.0734  0.4032 -0.0156
    8CHL1    C4  523   4.771   5.461  10.290  0.3514 -0.1142  0.2608
    8CHL1   H4A  524   4.667   5.499  10.300  0.6483  1.4638 -1.9334
    8CHL1   H4B  525   4.840   5.529  10.344  1.3863 -0.0620 -1.0755
    8CHL1    C5  526   4.807   5.466  10.149 -0.2252  0.2367  0.6799
    8CHL1    C6  527   4.904   5.541  10.097  0.1834  0.5316 -0.3955
    8CHL1    H6  528   4.966   5.609  10.157  0.7606  0.5734 -1.0172
    8CHL1    C7  529   4.944   5.551   9.950 -0.3888  0.0664 -0.0851
    8CHL1   H7A  530   4.957   5.661   9.940 -1.7635  0.1356 -1.4001
    8CHL1   H7B  531   5.038   5.500   9.919  0.6552  1.5679  0.5206
    8CHL1    C8  532   4.830   5.493   9.853 -0.3467 -0.3530 -0.1834
    8CHL1    H8  533   4.740   5.558   9.849 -0.4197 -0.5197 -2.0873
    8CHL1   C14  534   4.886   5.460   9.713  0.1881 -0.2268  0.6460
    8CHL1   H14  535   4.966   5.384   9.732 -0.3611 -0.4324  2.3724
    8CHL1   C15  536   4.960   5.576   9.643  0.4929  0.4934 -0.7453
    8CHL1  H15A  537   4.893   5.664   9.654 -0.6475 -0.4832  0.4363
    8CHL1  H15B  538   5.056   5.618   9.681  0.9828  0.9023 -2.3603
    8CHL1   C16  539   4.975   5.522   9.508 -0.6856  0.6941  0.7343
    8CHL1  H16A  540   4.954   5.601   9.434  1.5762 -0.4559 -1.2809
    8CHL1  H16B  541   5.080   5.493   9.484 -2.2094 -1.6350 -4.6703
    8CHL1   C17  542   4.890   5.393   9.480  0.0462  0.0610  0.5107
    8CHL1   H17  543   4.947   5.300   9.501 -0.2381  0.1621  1.8476
    8CHL1   C13  544   4.790   5.403   9.607 -0.1746 -0.4814 -0.9077
    8CHL1   C18  545   4.666   5.488   9.583 -0.0787 -0.7053 -0.2157
    8CHL1  H18A  546   4.601   5.442   9.506  0.7200 -1.2195 -0.5986
    8CHL1  H18B  547   4.620   5.508   9.682  0.1488  2.6697 -0.6642
    8CHL1  H18C  548   4.693   5.585   9.535  0.0173 -0.6189  0.0106
    8CHL1   C12  549   4.747   5.271   9.667 -0.1302  0.2145 -0.5925
    8CHL1  H12A  550   4.676   5.225   9.594  0.4829  0.1751 -1.1731
    8CHL1  H12B  551   4.835   5.204   9.678 -1.1063 -0.7933  1.8895
    8CHL1   C11  552   4.695   5.282   9.810 -0.4356  0.1779  0.2768
    8CHL1  H11A  553   4.601   5.337   9.791 -1.2581 -1.7281 -1.4380
    8CHL1  H11B  554   4.666   5.184   9.852  0.0129 -0.8896 -1.7904
    8CHL1    C9  555   4.787   5.358   9.912 -0.4344  0.2557 -0.2481
    8CHL1    H9  556   4.875   5.290   9.920  1.1813  2.0532 -1.8224
    8CHL1   C10  557   4.722   5.367  10.058 -0.0933 -0.9902 -0.3812
    8CHL1   C19  558   4.581   5.427  10.045 -0.4338 -0.3744 -0.2902
    8CHL1  H19A  559   4.584   5.519   9.983  2.0923 -0.1981 -0.0129
    8CHL1  H19B  560   4.506   5.363   9.993 -1.6588  1.2244 -0.5610
    8CHL1  H19C  561   4.539   5.459  10.143  0.2900  2.2078 -0.7538
    8CHL1    C1  562   4.708   5.227  10.122  0.1539 -0.3973  0.0477
    8CHL1   H1A  563   4.632   5.159  10.080 -0.2131 -0.2767  0.5059
    8CHL1   H1B  564   4.802   5.169  10.114  0.4834  0.0953  0.2422
    8CHL1    C2  565   4.667   5.238  10.271  0.6975  0.3849 -0.7325
    8CHL1   H2A  566   4.672   5.132  10.304 -0.8560  0.7903  0.9571
    8CHL1   H2B  567   4.564   5.279  10.285  1.5203  2.1937  0.4044
    8CHL1   C20  568   4.840   5.393   9.339 -0.0362 -0.1690 -0.1978
    8CHL1   H20  569   4.781   5.487   9.330  0.0319 -0.1526 -0.4598
    8CHL1   C21  570   4.756   5.265   9.324  0.4151 -0.4514  0.7132
    8CHL1  H21A  571   4.802   5.165   9.332 -0.6827 -1.1070 -0.8566
    8CHL1  H21B  572   4.710   5.266   9.223  1.0168  1.0509  0.4306
    8CHL1  H21C  573   4.670   5.270   9.395 -1.5203 -2.0084 -1.3769
    8CHL1   C22  574   4.944   5.399   9.222  0.0440  0.2947 -0.4251
    8CHL1  H22A  575   5.019   5.477   9.246 -2.0277  1.5205  2.7789
    8CHL1  H22B  576   4.993   5.300   9.213  1.6021  0.9616  0.3827
    8CHL1   C23  577   4.873   5.416   9.084 -0.0132  0.2844 -0.3334
    8CHL1  H23A  578   4.813   5.326   9.062  1.3362 -0.5126 -0.8846
    8CHL1  H23B  579   4.805   5.503   9.095 -0.1349  0.4331 -2.0163
    8CHL1   C24  580   4.963   5.424   8.973 -0.4941  0.1861  0.2027
    8CHL1  H24A  581   5.030   5.335   8.977  0.5080  0.7463 -2.0478
    8CHL1  H24B  582   4.907   5.416   8.877  0.3679 -3.4118 -0.1572
    8CHL1   C25  583   5.048   5.549   8.969  0.1442 -0.0772 -0.1974
    8CHL1   H25  584   5.110   5.540   9.061  0.4531  0.1741 -0.3770
    8CHL1   C26  585   5.147   5.527   8.854 -0.5106  0.6225  0.1260
    8CHL1  H26A  586   5.231   5.600   8.849  1.1940 -1.3130 -0.9534
    8CHL1  H26B  587   5.196   5.429   8.869 -0.4254  0.7322  0.5669
    8CHL1  H26C  588   5.091   5.525   8.758 -2.1071  0.8708  1.0094
    8CHL1   C27  589   4.973   5.683   8.981  0.7160  1.1213 -0.3125
    8CHL1  H27A  590   5.044   5.768   8.985  1.8165  0.1861  1.0083
    8CHL1  H27B  591   4.903   5.698   8.897  0.0394 -2.7072 -0.6040
    8CHL1  H27C  592   4.912   5.694   9.074  0.3067 -0.3107 -0.3855
    9CHL1    C3  593   0.923   2.121  10.210 -0.4483  0.6793 -0.2745
    9CHL1    H3  594   1.000   2.201  10.205  0.7673 -0.5245 -1.9846
    9CHL1    O3  595   0.924   2.085  10.342 -0.0726  1.0038  0.7844
    9CHL1   H3'  596   0.835   2.053  10.358  0.2873 -0.2128  0.4824
    9CHL1    C4  597   0.785   2.167  10.171 -0.6411 -0.1618  0.4070
    9CHL1   H4A  598   0.709   2.090  10.195 -2.9509  0.6478 -3.4768
    9CHL1   H4B  599   0.768   2.256  10.236 -0.1062 -1.3907  2.3066
    9CHL1    C5  600   0.772   2.209  10.025  0.0138 -0.6947 -0.6343
    9CHL1    C6  601   0.722   2.328   9.979 -0.0815  0.0349  0.0663
    9CHL1    H6  602   0.684   2.401  10.052  0.7611  1.3358 -0.7601
    9CHL1    C7  603   0.693   2.364   9.835  0.3077 -0.2885  0.1012
    9CHL1   H7A  604   0.594   2.415   9.833  0.6081  0.4076  1.7594
    9CHL1   H7B  605   0.763   2.440   9.794  1.5824 -1.1342  0.6761
    9CHL1    C8  606   0.708   2.236   9.747 -0.3590  0.0667 -0.2399
    9CHL1    H8  607   0.625   2.166   9.769 -0.2592 -0.1584 -0.5734
    9CHL1   C14  608   0.702   2.262   9.602  0.3215 -0.5848 -0.1607
    9CHL1   H14  609   0.788   2.329   9.580 -1.0001  1.0375 -0.5795
    9CHL1   C15  610   0.574   2.337   9.544 -0.0648  0.1756 -0.0146
    9CHL1  H15A  611   0.496   2.275   9.593  1.5689 -2.1415 -0.1978
    9CHL1  H15B  612   0.569   2.445   9.569 -0.4657  0.1142  0.1866
    9CHL1   C16  613   0.584   2.308   9.395  0.1487 -0.2480  0.1409
    9CHL1  H16A  614   0.486   2.280   9.351  0.0973  0.8984 -0.5363
    9CHL1  H16B  615   0.610   2.403   9.343 -0.1359  0.4751  1.2936
    9CHL1   C17  616   0.701   2.206   9.377 -0.2853 -0.1470 -0.1640
    9CHL1   H17  617   0.790   2.268   9.349 -0.4345  0.7424  1.2276
    9CHL1   C13  618   0.723   2.138   9.517  0.0648 -0.4806 -0.4530
    9CHL1   C18  619   0.610   2.032   9.541 -0.0736 -0.6503 -0.0918
    9CHL1  H18A  620   0.625   1.995   9.645 -0.5456  2.6210  1.2793
    9CHL1  H18B  621   0.518   2.094   9.543  0.3804  0.0471 -0.3218
    9CHL1  H18C  622   0.605   1.950   9.467  2.3646 -1.2762  0.3582
    9CHL1   C12  623   0.871   2.096   9.542 -0.6022 -0.1200 -0.3149
    9CHL1  H12A  624   0.895   2.014   9.470  0.5000 -0.1585  0.0788
    9CHL1  H12B  625   0.947   2.176   9.531 -0.4197  0.2939  3.1239
    9CHL1   C11  626   0.878   2.042   9.681  0.0092 -0.3781 -0.2396
    9CHL1  H11A  627   0.811   1.954   9.679 -0.7387  0.1921 -0.5890
    9CHL1  H11B  628   0.986   2.020   9.699 -0.4500 -1.3582  1.6066
    9CHL1    C9  629   0.836   2.155   9.780  0.4181  0.0532 -0.0563
    9CHL1    H9  630   0.916   2.231   9.774  1.2493 -0.7928  0.1273
    9CHL1   C10  631   0.826   2.104   9.927  0.1084 -0.2102 -0.5048
    9CHL1   C19  632   0.720   1.987   9.931 -0.6062 -0.2750 -0.2581
    9CHL1  H19A  633   0.708   1.946  10.034  3.5284 -0.5845  0.2471
    9CHL1  H19B  634   0.626   2.017   9.879  1.7110 -0.0742 -4.8915
    9CHL1  H19C  635   0.752   1.900   9.869 -1.1530 -1.4607  1.0673
    9CHL1    C1  636   0.967   2.055   9.969  0.6224  0.0022 -0.0856
    9CHL1   H1A  637   0.998   1.968   9.907 -2.6762 -1.2416 -0.1864
    9CHL1   H1B  638   1.036   2.140   9.950  2.5809 -1.3132  0.8135
    9CHL1    C2  639   0.966   2.011  10.113 -0.2061  0.1312 -0.1106
    9CHL1   H2A  640   1.062   1.965  10.143 -0.0265  0.2320 -0.5272
    9CHL1   H2B  641   0.887   1.933  10.126  0.7392 -0.8291  0.0201
    9CHL1   C20  642   0.678   2.116   9.253  0.4162  0.7124  0.2376
    9CHL1   H20  643   0.580   2.068   9.273  0.5756  0.1691 -0.2793
    9CHL1   C21  644   0.778   2.001   9.244 -0.3792 -0.2073  0.0699
    9CHL1  H21A  645   0.881   2.029   9.273 -0.3083 -0.2403 -0.1428
    9CHL1  H21B  646   0.800   1.973   9.138  4.6170 -0.0088  0.8082
    9CHL1  H21C  647   0.736   1.912   9.297  2.0036 -0.7738  1.1202
    9CHL1   C22  648   0.647   2.193   9.122 -0.5138 -0.0242 -0.3706
    9CHL1  H22A  649   0.621   2.108   9.056 -1.7208 -1.1908  1.5368
    9CHL1  H22B  650   0.552   2.250   9.132 -0.9419 -0.8492  0.3370
    9CHL1   C23  651   0.762   2.259   9.051  0.0366  0.3310 -0.2156
    9CHL1  H23A  652   0.802   2.349   9.103  0.1657  0.4617 -0.5400
    9CHL1  H23B  653   0.849   2.191   9.048  0.1369  0.1222  3.4224
    9CHL1   C24  654   0.732   2.295   8.904 -0.3842 -0.3469  0.5308
    9CHL1  H24A  655   0.723   2.207   8.835 -0.1766  0.3745 -0.4412
    9CHL1  H24B  656   0.640   2.353   8.884  0.4222  1.0931  0.8411
    9CHL1   C25  657   0.855   2.364   8.841  0.0863  0.4666  0.7719
    9CHL1   H25  658   0.898   2.442   8.908 -0.0855  1.4535 -0.2242
    9CHL1   C26  659   0.967   2.264   8.799  0.3414  0.1642 -0.3220
    9CHL1  H26A  660   0.965   2.180   8.872  0.7239 -0.7190 -1.3026
    9CHL1  H26B  661   0.936   2.216   8.704  1.6630  0.4790 -0.9228
    9CHL1  H26C  662   1.066   2.313   8.800  1.0146 -1.0703 -2.2712
    9CHL1   C27  663   0.809   2.449   8.715  0.4893  0.5219  0.5288
    9CHL1  H27A  664   0.749   2.539   8.740 -1.0096 -0.0478 -0.8022
    9CHL1  H27B  665   0.896   2.480   8.654  0.1042  0.4016 -0.0870
    9CHL1  H27C  666   0.745   2.383   8.653  0.4720  1.4870 -0.4979
   10CHL1    C3  667   6.477   5.978  10.017  0.0888 -0.6798  0.4078
   10CHL1    H3  668   6.559   5.914   9.980  0.7074  0.4925 -0.3182
   10CHL1    O3  669   6.449   5.974  10.156 -1.2241  0.1927 -0.3622
   10CHL1   H3'  670   6.392   6.047  10.181 -2.3318 -1.1855  1.4028
   10CHL1    C4  671   6.513   6.124   9.986 -0.2038 -0.7190  0.1642
   10CHL1   H4A  672   6.430   6.192  10.015  0.0429 -1.1193  1.9575
   10CHL1   H4B  673   6.604   6.152  10.045 -1.3252  0.5509  1.3670
   10CHL1    C5  674   6.525   6.158   9.838  0.0095  0.2766  0.2811
   10CHL1    C6  675   6.641   6.202   9.781 -0.7895 -0.0053 -0.5154
   10CHL1    H6  676   6.722   6.224   9.852 -0.3321  0.3116 -1.1295
   10CHL1    C7  677   6.648   6.231   9.634 -0.5556 -0.1248 -0.1905
   10CHL1   H7A  678   6.704   6.325   9.612 -0.0003 -0.3175  0.3648
   10CHL1   H7B  679   6.705   6.146   9.590 -0.0131  0.7427 -1.2079
   10CHL1    C8  680   6.508   6.246   9.567  0.0465 -0.2383  0.6374
   10CHL1    H8  681   6.470   6.343   9.605 -0.6954 -1.3603  2.9139
   10CHL1   C14  682   6.527   6.256   9.407  0.3470  0.4359  0.6476
   10CHL1   H14  683   6.587   6.168   9.375 -0.4865  0.2787 -0.5488
   10CHL1   C15  684   6.610   6.369   9.350 -0.7542 -0.7736  0.2395
   10CHL1  H15A  685   6.576   6.464   9.399  4.3442  2.0275 -0.9894
   10CHL1  H15B  686   6.714   6.355   9.385 -0.6620 -0.9576 -0.1089
   10CHL1   C16  687   6.567   6.363   9.207  0.5998 -0.3084  0.1144
   10CHL1  H16A  688   6.539   6.466   9.176  0.0614 -0.4534  0.0996
   10CHL1  H16B  689   6.649   6.315   9.148  1.1685  0.5402  0.2061
   10CHL1   C17  690   6.447   6.267   9.187  0.5780 -0.1130  0.2036
   10CHL1   H17  691   6.489   6.172   9.149  0.1425 -0.0847 -0.3654
   10CHL1   C13  692   6.396   6.258   9.333  0.4634 -0.6100  0.2760
   10CHL1   C18  693   6.318   6.395   9.375  0.9746  0.0413  0.0414
   10CHL1  H18A  694   6.215   6.389   9.332  0.5001  1.2695  0.9390
   10CHL1  H18B  695   6.296   6.403   9.484 -0.0800  0.8665 -0.2091
   10CHL1  H18C  696   6.372   6.484   9.338  0.9261 -0.3633 -1.0476
   10CHL1   C12  697   6.317   6.129   9.368 -0.2054 -0.1097 -0.1335
   10CHL1  H12A  698   6.221   6.123   9.312  1.5723 -1.1955 -3.3907
   10CHL1  H12B  699   6.381   6.046   9.331 -1.2266  0.6705 -4.1322
   10CHL1   C11  700   6.289   6.116   9.519  0.4715 -0.3420 -0.8779
   10CHL1  H11A  701   6.215   6.191   9.551  1.8860  0.5760  0.3622
   10CHL1  H11B  702   6.241   6.020   9.548  0.8613 -0.1935  0.3047
   10CHL1    C9  703   6.417   6.138   9.608 -0.2806  0.8764 -0.3801
   10CHL1    H9  704   6.476   6.047   9.583 -0.8517 -0.2347  2.0280
   10CHL1   C10  705   6.394   6.123   9.763  0.9858  0.3949  0.1701
   10CHL1   C19  706   6.274   6.209   9.808  0.1195 -0.1281 -0.1493
   10CHL1  H19A  707   6.181   6.193   9.749 -0.4359 -1.7023  1.0935
   10CHL1  H19B  708   6.246   6.181   9.912  0.0371  0.0409 -0.1253
   10CHL1  H19C  709   6.301   6.317   9.807 -3.2359  0.8457 -1.5898
   10CHL1    C1  710   6.360   5.968   9.791  0.2478  0.1776  0.2000
   10CHL1   H1A  711   6.262   5.939   9.747  0.4645 -1.7784  0.9336
   10CHL1   H1B  712   6.436   5.903   9.743  0.2237  1.3488 -1.5193
   10CHL1    C2  713   6.352   5.943   9.943 -1.0831 -0.0645  0.2719
   10CHL1   H2A  714   6.352   5.832   9.949  1.9866 -0.4473 -3.1370
   10CHL1   H2B  715   6.260   5.988   9.988 -0.0459 -0.1585  2.6080
   10CHL1   C20  716   6.353   6.322   9.078 -0.0840  0.5856 -0.3848
   10CHL1   H20  717   6.296   6.411   9.112  0.9310  2.2489 -2.7132
   10CHL1   C21  718   6.257   6.203   9.037 -0.5537  0.5019 -0.5624
   10CHL1  H21A  719   6.182   6.243   8.965 -1.5159  0.0167  0.1487
   10CHL1  H21B  720   6.195   6.158   9.118 -0.5217 -1.7730 -1.7455
   10CHL1  H21C  721   6.330   6.128   9.003  0.8707  2.0860 -1.1247
   10CHL1   C22  722   6.411   6.366   8.946 -0.3615 -0.0781  0.2360
   10CHL1  H22A  723   6.498   6.434   8.944  0.5205 -1.1871 -1.5942
   10CHL1  H22B  724   6.456   6.278   8.896 -0.0148  0.9824 -1.3716
   10CHL1   C23  725   6.319   6.434   8.844  0.1975 -0.8281  0.0992
   10CHL1  H23A  726   6.371   6.440   8.746 -0.4567  0.6553 -0.1766
   10CHL1  H23B  727   6.229   6.372   8.826 -0.1608 -0.6523  1.1731
   10CHL1   C24  728   6.269   6.569   8.897  0.0975 -0.2072  0.0974
   10CHL1  H24A  729   6.199   6.552   8.982  1.6024  0.0922  1.4452
   10CHL1  H24B  730   6.363   6.621   8.926  0.6356 -0.9104 -0.3469
   10CHL1   C25  731   6.201   6.658   8.793 -0.8648 -0.7764 -0.2542
   10CHL1   H25  732   6.131   6.588   8.742 -1.9217 -0.7768  1.1585
   10CHL1   C26  733   6.119   6.767   8.862 -0.0312  0.8556  0.3871
   10CHL1  H26A  734   6.019   6.772   8.813  0.8420 -2.6880 -2.1477
   10CHL1  H26B  735   6.098   6.738   8.967 -0.7393 -0.0490  0.0082
   10CHL1  H26C  736   6.179   6.860   8.850  0.6741  0.4309  0.5361
   10CHL1   C27  737   6.299   6.716   8.693  0.1225  0.4460 -0.3186
   10CHL1  H27A  738   6.370   6.635   8.668 -0.5442 -0.0208 -0.7251
   10CHL1  H27B  739   6.242   6.747   8.603 -2.1864 -2.2365  0.0875
   10CHL1  H27C  740   6.356   6.799   8.741  2.7000 -0.9930 -0.6835
   11CHL1    C3  741   2.299   1.469  10.126  0.2599 -0.0459 -0.1693
   11CHL1    H3  742   2.400   1.428  10.151  0.1370 -0.3503 -0.1690
   11CHL1    O3  743   2.221   1.433  10.235  0.3008 -0.2130 -0.5447
   11CHL1   H3'  744   2.278   1.429  10.312 -2.2501 -1.2126  1.4410
   11CHL1    C4  745   2.318   1.624  10.119  0.8091 -0.1213  0.4764
   11CHL1   H4A  746   2.217   1.663  10.098  0.3503 -2.4588 -2.2804
   11CHL1   H4B  747   2.353   1.669  10.215 -1.1455  2.5807  0.0287
   11CHL1    C5  748   2.420   1.658  10.003 -0.0934 -0.2986 -0.0765
   11CHL1    C6  749   2.538   1.729  10.029  0.4369  0.3945 -0.1141
   11CHL1    H6  750   2.559   1.758  10.133  2.0662 -1.7534  0.2020
   11CHL1    C7  751   2.640   1.757   9.928  0.0312  0.0819  0.2822
   11CHL1   H7A  752   2.656   1.866   9.942 -0.5388  0.1468  0.4413
   11CHL1   H7B  753   2.733   1.704   9.957  1.0815 -0.6183 -3.7098
   11CHL1    C8  754   2.602   1.728   9.780 -0.2732  0.0758  0.0691
   11CHL1    H8  755   2.536   1.810   9.746  1.7356  3.4988  3.5654
   11CHL1   C14  756   2.711   1.709   9.680 -0.3248 -0.7064 -0.1745
   11CHL1   H14  757   2.762   1.619   9.721  4.7590  1.9988  0.1829
   11CHL1   C15  758   2.822   1.822   9.672 -0.3957 -0.3731  0.3366
   11CHL1  H15A  759   2.779   1.925   9.675 -2.0593 -1.0252  0.2896
   11CHL1  H15B  760   2.889   1.801   9.757  2.1805  0.0292 -1.4903
   11CHL1   C16  761   2.896   1.787   9.540 -0.4475 -0.3402 -0.4958
   11CHL1  H16A  762   2.894   1.875   9.473  1.1971 -1.2576 -1.8458
   11CHL1  H16B  763   2.997   1.748   9.566 -0.0018  0.9211 -0.2807
   11CHL1   C17  764   2.810   1.673   9.474 -0.5456 -0.1196 -0.2273
   11CHL1   H17  765   2.852   1.576   9.509 -0.9797 -1.1764 -2.3922
   11CHL1   C13  766   2.680   1.683   9.535  0.2427 -0.6611  0.4144
   11CHL1   C18  767   2.593   1.812   9.488  0.1293  0.6516 -0.1872
   11CHL1  H18A  768   2.488   1.822   9.522 -1.1708 -3.9054 -2.0193
   11CHL1  H18B  769   2.650   1.906   9.484  0.2794  0.5560 -0.3002
   11CHL1  H18C  770   2.577   1.797   9.379 -0.9777 -0.0943  0.0522
   11CHL1   C12  771   2.598   1.553   9.528  0.0053  0.3432 -0.2669
   11CHL1  H12A  772   2.544   1.539   9.431 -0.0800 -0.8879 -0.0615
   11CHL1  H12B  773   2.667   1.467   9.544 -1.2516 -0.7597 -0.5350
   11CHL1   C11  774   2.477   1.550   9.627  0.0470 -0.5785  0.1205
   11CHL1  H11A  775   2.403   1.625   9.589  0.6659 -0.7325 -1.4554
   11CHL1  H11B  776   2.431   1.449   9.629 -1.0271 -0.1170 -0.1645
   11CHL1    C9  777   2.511   1.599   9.771  0.4519  0.5314  0.3714
   11CHL1    H9  778   2.568   1.518   9.822  0.9667  0.5782 -0.1145
   11CHL1   C10  779   2.381   1.597   9.870 -0.0812  0.0320  0.4862
   11CHL1   C19  780   2.268   1.676   9.804 -0.1623  0.9431  0.1226
   11CHL1  H19A  781   2.188   1.718   9.867 -0.3736  1.5146 -0.5083
   11CHL1  H19B  782   2.312   1.771   9.765 -0.2107  1.1893  0.6720
   11CHL1  H19C  783   2.218   1.608   9.731 -0.6101  0.4818  0.8548
   11CHL1    C1  784   2.339   1.448   9.894 -0.8557  0.2798  0.0073
   11CHL1   H1A  785   2.307   1.395   9.802  3.8466 -1.9610 -0.6268
   11CHL1   H1B  786   2.435   1.398   9.920  0.8009  2.8280 -0.8553
   11CHL1    C2  787   2.238   1.423  10.002 -0.0171 -0.1936 -0.1574
   11CHL1   H2A  788   2.210   1.316  10.012  1.1703 -0.3469  2.2423
   11CHL1   H2B  789   2.146   1.481   9.981 -0.0868 -0.8801 -1.9681
   11CHL1   C20  790   2.820   1.680   9.312 -0.4770  0.0960 -0.8229
   11CHL1   H20  791   2.769   1.767   9.265 -0.7234  0.6187  0.3815
   11CHL1   C21  792   2.763   1.549   9.253  0.0639 -0.6788  0.4520
   11CHL1  H21A  793   2.786   1.533   9.145  0.9707 -0.4284  0.5994
   11CHL1  H21B  794   2.653   1.540   9.264  0.1132 -4.5774 -0.9018
   11CHL1  H21C  795   2.818   1.476   9.315  0.0583 -1.4039 -0.3730
   11CHL1   C22  796   2.968   1.691   9.259 -0.5105  0.3807  0.1637
   11CHL1  H22A  797   3.016   1.779   9.307 -2.3909  1.1570  0.6839
   11CHL1  H22B  798   3.012   1.592   9.283 -3.2532 -1.2863 -1.2115
   11CHL1   C23  799   2.975   1.725   9.103 -0.0984  0.1196  0.0291
   11CHL1  H23A  800   2.878   1.756   9.060  0.7314  0.1841 -1.8655
   11CHL1  H23B  801   3.049   1.806   9.093  0.2878 -0.2971 -0.4993
   11CHL1   C24  802   3.039   1.616   9.014 -0.0513  0.1065 -0.8909
   11CHL1  H24A  803   3.135   1.576   9.055 -0.5059  0.2705  0.3586
   11CHL1  H24B  804   2.963   1.536   9.023  1.8908 -1.9374 -1.6657
   11CHL1   C25  805   3.052   1.650   8.869 -0.4523 -0.4797 -0.5070
   11CHL1   H25  806   3.098   1.749   8.853  0.9744 -0.9533  0.4546
   11CHL1   C26  807   3.121   1.540   8.795 -0.3311 -0.2238  0.3175
   11CHL1  H26A  808   3.139   1.561   8.687 -0.6553  1.1184  0.5072
   11CHL1  H26B  809   3.222   1.508   8.829  0.5554  0.8888 -1.1445
   11CHL1  H26C  810   3.064   1.446   8.809  0.5250 -1.0424 -1.3062
   11CHL1   C27  811   2.914   1.659   8.801 -0.8765 -0.2497  0.5161
   11CHL1  H27A  812   2.843   1.720   8.861  0.7953  0.0111  2.3442
   11CHL1  H27B  813   2.919   1.704   8.700 -0.9687  1.3485  1.1936
   11CHL1  H27C  814   2.859   1.564   8.787  0.6378 -1.2110  0.8299
   12CHL1    C3  815   5.170   5.191  10.177  0.1800  0.2671  0.3867
   12CHL1    H3  816   5.068   5.221  10.145 -0.1125 -1.8689 -0.8494
   12CHL1    O3  817   5.168   5.187  10.318  0.8454  0.6091  0.1625
   12CHL1   H3'  818   5.231   5.118  10.338  1.5388  1.1246 -0.2097
   12CHL1    C4  819   5.186   5.053  10.110  0.0156  0.7471  0.7581
   12CHL1   H4A  820   5.282   5.012  10.144 -0.0019 -0.4976 -0.5882
   12CHL1   H4B  821   5.097   4.995  10.143 -0.3399  1.2451  0.7020
   12CHL1    C5  822   5.194   5.064   9.956  0.2177 -0.2479  0.0385
   12CHL1    C6  823   5.110   4.997   9.882 -0.2290  0.1210  0.0594
   12CHL1    H6  824   5.040   4.928   9.932  0.9008  0.1146  1.7220
   12CHL1    C7  825   5.111   4.986   9.734  0.1656 -0.0250 -0.3394
   12CHL1   H7A  826   5.109   4.876   9.720 -1.5555 -0.0327 -0.1593
   12CHL1   H7B  827   5.014   5.030   9.701 -0.0596  0.2415  0.6265
   12CHL1    C8  828   5.237   5.062   9.680  1.3217 -0.1142  0.8344
   12CHL1    H8  829   5.323   4.992   9.688  2.3739  0.4903 -2.9940
   12CHL1   C14  830   5.222   5.089   9.525 -0.6590 -1.0686  0.7153
   12CHL1   H14  831   5.149   5.173   9.526  1.5989  1.0605  2.1413
   12CHL1   C15  832   5.157   4.986   9.439 -0.4601  0.1238 -0.3741
   12CHL1  H15A  833   5.203   4.885   9.446  0.1271  0.3549 -0.8747
   12CHL1  H15B  834   5.051   4.973   9.469 -0.7057  1.4780 -0.6044
   12CHL1   C16  835   5.191   5.040   9.298 -0.4058 -0.9084 -0.2421
   12CHL1  H16A  836   5.248   4.963   9.242  1.2584 -0.1007  0.2753
   12CHL1  H16B  837   5.096   5.075   9.251 -1.2059 -2.1281  0.4001
   12CHL1   C17  838   5.287   5.170   9.312 -0.3814 -0.3146  0.2020
   12CHL1   H17  839   5.227   5.263   9.312  0.5979  0.3657 -1.9821
   12CHL1   C13  840   5.343   5.159   9.456 -0.1923  0.0822 -0.1307
   12CHL1   C18  841   5.455   5.060   9.446 -0.2879 -0.4637 -0.4243
   12CHL1  H18A  842   5.466   5.011   9.545 -2.2190  0.1369  0.1221
   12CHL1  H18B  843   5.435   4.974   9.378  0.5760 -0.7646 -0.3155
   12CHL1  H18C  844   5.553   5.107   9.424  0.6122 -1.6648  0.8330
   12CHL1   C12  845   5.377   5.287   9.532 -0.0060 -0.3000 -0.6148
   12CHL1  H12A  846   5.467   5.344   9.500  2.1506 -1.4448  2.8177
   12CHL1  H12B  847   5.284   5.348   9.528 -0.4673 -1.0439 -1.4327
   12CHL1   C11  848   5.393   5.273   9.686  0.6383 -0.3955 -0.1919
   12CHL1  H11A  849   5.492   5.225   9.706 -0.0376 -1.2179  1.3680
   12CHL1  H11B  850   5.394   5.375   9.728 -1.3817  0.8167 -2.7824
   12CHL1    C9  851   5.273   5.193   9.749 -0.8403  0.0642 -0.3740
   12CHL1    H9  852   5.177   5.248   9.736 -1.5032 -0.7591  0.9183
   12CHL1   C10  853   5.299   5.171   9.904  0.5633 -0.9642  0.3466
   12CHL1   C19  854   5.443   5.125   9.933  0.2805  0.7440  0.1684
   12CHL1  H19A  855   5.468   5.045   9.859 -0.8467  0.6374 -0.1093
   12CHL1  H19B  856   5.516   5.208   9.921 -0.6341  1.5119 -0.1454
   12CHL1  H19C  857   5.467   5.092  10.036  1.8209  3.5118  0.7899
   12CHL1    C1  858   5.277   5.302   9.980 -0.3225 -0.7015  0.2123
   12CHL1   H1A  859   5.355   5.378   9.958 -0.9445  0.6390  2.2858
   12CHL1   H1B  860   5.179   5.348   9.955 -0.8472 -1.9705 -0.1381
   12CHL1    C2  861   5.280   5.280  10.134  0.5251 -0.8019  0.4655
   12CHL1   H2A  862   5.256   5.379  10.179 -2.8713 -0.3628 -1.9064
   12CHL1   H2B  863   5.375   5.239  10.174  0.5993  1.6327  3.0415
   12CHL1   C20  864   5.375   5.194   9.189  0.0678  0.0951 -0.3561
   12CHL1   H20  865   5.462   5.125   9.190 -0.4439 -0.5620 -0.0716
   12CHL1   C21  866   5.429   5.339   9.195  0.4742  0.0701 -0.6464
   12CHL1  H21A  867   5.483   5.365   9.289 -0.8418  3.0585 -0.5945
   12CHL1  H21B  868   5.334   5.395   9.209  0.9049  0.7483 -0.3429
   12CHL1  H21C  869   5.488   5.372   9.107 -0.3481  2.3813 -0.4200
   12CHL1   C22  870   5.290   5.169   9.057  0.6133  0.6619 -0.0837
   12CHL1  H22A  871   5.250   5.066   9.048 -3.1852  1.8433  1.5427
   12CHL1  H22B  872   5.206   5.242   9.055 -0.0902 -0.1211  0.5431
   12CHL1   C23  873   5.367   5.182   8.924 -0.3660  0.0108 -0.2256
   12CHL1  H23A  874   5.428   5.275   8.912 -1.4766  0.7788 -0.0334
   12CHL1  H23B  875   5.443   5.101   8.933 -1.3251 -1.2915 -2.8502
   12CHL1   C24  876   5.279   5.163   8.800 -0.3820 -0.2646 -0.1193
   12CHL1  H24A  877   5.222   5.068   8.813 -2.9260  1.3863  1.4537
   12CHL1  H24B  878   5.205   5.243   8.784 -2.1586 -1.4226  1.8879
   12CHL1   C25  879   5.369   5.153   8.672 -0.0542  0.3682  0.1051
   12CHL1   H25  880   5.296   5.126   8.593 -0.6798 -1.8768  1.3887
   12CHL1   C26  881   5.421   5.295   8.637  0.3643 -0.1668  0.5089
   12CHL1  H26A  882   5.490   5.335   8.715  0.1061  0.0222  0.6404
   12CHL1  H26B  883   5.476   5.289   8.540 -0.3838  0.4165  0.0406
   12CHL1  H26C  884   5.337   5.366   8.620 -0.9854 -1.9004 -0.4679
   12CHL1   C27  885   5.473   5.038   8.686  0.4402 -0.6102  0.1386
   12CHL1  H27A  886   5.475   4.970   8.597  1.4630 -1.4309  0.7607
   12CHL1  H27B  887   5.574   5.079   8.705  1.3882 -2.3650 -0.8518
   12CHL1  H27C  888   5.446   4.976   8.775 -0.9510 -1.1855 -0.6460
   13CHL1    C3  889   4.160   6.132  10.074  0.3090 -0.1538 -0.0192
   13CHL1    H3  890   4.251   6.070  10.080 -0.3580 -1.1342  0.2215
   13CHL1    O3  891   4.120   6.169  10.206  0.4729  0.0979 -0.6693
   13CHL1   H3'  892   4.034   6.210  10.198 -0.4267 -1.5684  0.0127
   13CHL1    C4  893   4.175   6.266   9.992  0.1371  0.4705  0.6241
   13CHL1   H4A  894   4.093   6.333  10.026 -2.2479 -2.4520  1.0800
   13CHL1   H4B  895   4.273   6.298  10.033  0.9013  2.9241 -2.6826
   13CHL1    C5  896   4.183   6.253   9.840  0.0388 -0.0152 -0.3806
   13CHL1    C6  897   4.289   6.311   9.781 -0.3622  0.4890  0.8108
   13CHL1    H6  898   4.359   6.378   9.832  2.6529 -0.7425 -1.4070
   13CHL1    C7  899   4.308   6.302   9.628  0.3101  0.3237  0.0314
   13CHL1   H7A  900   4.343   6.396   9.580  0.2792 -0.2384 -1.1282
   13CHL1   H7B  901   4.395   6.234   9.617  0.1470 -0.1587  1.4161
   13CHL1    C8  902   4.183   6.235   9.548  0.0982 -0.0899 -0.2059
   13CHL1    H8  903   4.111   6.318   9.531 -0.6245 -0.4596  0.8915
   13CHL1   C14  904   4.237   6.171   9.425 -0.8389  0.1749  0.3423
   13CHL1   H14  905   4.317   6.101   9.455  0.7071  1.4237 -0.7208
   13CHL1   C15  906   4.319   6.268   9.326 -0.4815  0.7331  0.3036
   13CHL1  H15A  907   4.271   6.368   9.329 -1.0337  0.4678  0.4897
   13CHL1  H15B  908   4.426   6.264   9.356  0.6088  0.0237 -3.1865
   13CHL1   C16  909   4.307   6.199   9.185  0.2488 -0.0144 -0.9387
   13CHL1  H16A  910   4.256   6.274   9.121  0.3378  1.4129  0.5889
   13CHL1  H16B  911   4.408   6.193   9.138  0.3624  0.6792 -0.8016
   13CHL1   C17  912   4.224   6.068   9.200  0.3683  0.1700 -0.3521
   13CHL1   H17  913   4.295   5.991   9.235 -1.3015 -0.3291  2.2256
   13CHL1   C13  914   4.134   6.103   9.328 -0.1450 -0.3272  0.5253
   13CHL1   C18  915   4.030   6.210   9.305 -0.1677  0.3557  0.4284
   13CHL1  H18A  916   3.982   6.232   9.403  3.3318  1.6665  2.0107
   13CHL1  H18B  917   4.067   6.297   9.246  1.1271  0.1679  0.9337
   13CHL1  H18C  918   3.952   6.150   9.254  0.6931 -2.1023  1.8244
   13CHL1   C12  919   4.070   5.990   9.401  0.2423 -0.1744  0.6799
   13CHL1  H12A  920   3.997   5.939   9.334  1.6689 -0.5351 -0.6738
   13CHL1  H12B  921   4.148   5.912   9.418 -0.0397 -0.9226 -1.1551
   13CHL1   C11  922   4.018   6.032   9.549 -0.4524  0.1640  0.3700
   13CHL1  H11A  923   3.924   6.087   9.528  0.1118  0.8692 -0.4035
   13CHL1  H11B  924   3.992   5.935   9.596  2.0601 -0.9428 -0.3642
   13CHL1    C9  925   4.126   6.118   9.630 -0.5889  1.0437 -1.0966
   13CHL1    H9  926   4.213   6.052   9.649 -0.2937  1.6821 -0.1706
   13CHL1   C10  927   4.082   6.158   9.777  0.4039  0.2612  0.6644
   13CHL1   C19  928   3.953   6.241   9.768  0.1841 -0.0784 -0.2538
   13CHL1  H19A  929   3.909   6.259   9.868 -3.8036 -1.0490 -1.6399
   13CHL1  H19B  930   3.967   6.343   9.725  0.6336  1.3025  2.8845
   13CHL1  H19C  931   3.871   6.192   9.711  0.6203 -0.4455 -0.5814
   13CHL1    C1  932   4.074   6.022   9.863  0.4541 -0.5192 -0.2716
   13CHL1   H1A  933   4.009   5.946   9.814  0.8767 -1.0793  0.0176
   13CHL1   H1B  934   4.175   5.977   9.850  0.2690 -1.1837  0.5112
   13CHL1    C2  935   4.044   6.050  10.012 -0.7578  0.2555  0.8571
   13CHL1   H2A  936   4.040   5.944  10.047  0.0812  0.0827  0.4600
   13CHL1   H2B  937   3.946   6.103  10.017 -1.0443 -0.0165 -1.0986
   13CHL1   C20  938   4.148   6.017   9.077  0.0749  0.0404 -0.3896
   13CHL1   H20  939   4.045   6.058   9.073 -0.1235 -0.5367 -2.6808
   13CHL1   C21  940   4.133   5.866   9.083  0.4123 -0.6227 -0.5276
   13CHL1  H21A  941   4.068   5.831   9.000 -2.4744  1.6221  0.6242
   13CHL1  H21B  942   4.103   5.832   9.185  1.0137  2.1224  0.6550
   13CHL1  H21C  943   4.234   5.822   9.067  1.4489  1.4373 -0.0091
   13CHL1   C22  944   4.218   6.054   8.944  0.1432  0.1841 -0.1929
   13CHL1  H22A  945   4.225   6.165   8.934  0.4057  0.2372  0.4793
   13CHL1  H22B  946   4.321   6.013   8.956 -0.0729 -0.2967  0.0428
   13CHL1   C23  947   4.159   5.996   8.810  0.4420 -0.5886 -0.3813
   13CHL1  H23A  948   4.187   5.889   8.815  2.8114 -0.0150  4.5198
   13CHL1  H23B  949   4.048   6.008   8.808  0.6213  1.4061 -0.0641
   13CHL1   C24  950   4.227   6.064   8.687 -0.5932 -0.3779  0.0725
   13CHL1  H24A  951   4.190   6.167   8.670 -0.5605 -0.6264 -1.6901
   13CHL1  H24B  952   4.337   6.071   8.698 -0.7911  1.3582  1.2947
   13CHL1   C25  953   4.201   5.977   8.560  0.5152  0.0761  0.1357
   13CHL1   H25  954   4.267   6.027   8.486  0.8243  1.1658  1.1201
   13CHL1   C26  955   4.264   5.829   8.561 -0.4301  0.2171 -0.2540
   13CHL1  H26A  956   4.373   5.833   8.580 -0.3517 -0.5150 -0.5210
   13CHL1  H26B  957   4.224   5.761   8.639 -0.8252  0.6052 -0.1132
   13CHL1  H26C  958   4.240   5.777   8.466  1.9803 -0.4690 -0.5524
   13CHL1   C27  959   4.065   5.976   8.517  0.0253  0.7933  0.3057
   13CHL1  H27A  960   4.061   5.924   8.419  1.3222  1.6693 -0.2234
   13CHL1  H27B  961   4.007   5.923   8.596 -0.1976  0.2843 -0.1939
   13CHL1  H27C  962   4.030   6.078   8.490  2.6110  2.9616  4.1487
   14CHL1    C3  963   4.190   3.515  10.395 -0.1496  0.1428  0.2500
   14CHL1    H3  964   4.291   3.471  10.410 -0.4100 -1.3278 -1.8913
   14CHL1    O3  965   4.127   3.495  10.515 -0.3073  0.4035 -0.1441
   14CHL1   H3'  966   4.038   3.525  10.499 -0.5962 -0.5970 -0.4393
   14CHL1    C4  967   4.214   3.671  10.374  0.1029  0.0175  0.0330
   14CHL1   H4A  968   4.127   3.736  10.398  0.2362 -0.3455  1.5696
   14CHL1   H4B  969   4.288   3.701  10.452 -0.9136  0.2947  0.9123
   14CHL1    C5  970   4.262   3.698  10.233 -0.0499 -0.5928  0.1002
   14CHL1    C6  971   4.371   3.778  10.208 -0.3300  0.1887 -0.4732
   14CHL1    H6  972   4.417   3.836  10.289 -0.1493 -2.0105  1.1169
   14CHL1    C7  973   4.410   3.816  10.066 -0.0860  0.3342 -0.4238
   14CHL1   H7A  974   4.431   3.925  10.069  1.0853  0.1135 -0.0938
   14CHL1   H7B  975   4.504   3.769  10.030  0.3952  3.0718 -3.2721
   14CHL1    C8  976   4.290   3.789   9.966  0.0578 -0.1099  0.0924
   14CHL1    H8  977   4.213   3.868   9.983 -0.0118 -0.5326  1.8916
   14CHL1   C14  978   4.349   3.810   9.826  0.1815  0.0307 -0.5094
   14CHL1   H14  979   4.425   3.730   9.809 -2.9900 -3.4782  0.5297
   14CHL1   C15  980   4.425   3.936   9.791 -0.4044  0.4607 -1.1643
   14CHL1  H15A  981   4.369   4.014   9.847  1.3404  1.2765 -0.5066
   14CHL1  H15B  982   4.532   3.930   9.820 -0.8421 -3.3361  0.3003
   14CHL1   C16  983   4.414   3.962   9.639  0.1577 -0.0863 -0.8030
   14CHL1  H16A  984   4.368   4.062   9.625  1.8345  1.2954  2.2375
   14CHL1  H16B  985   4.522   3.967   9.611  1.0606  0.3850  2.2575
   14CHL1   C17  986   4.332   3.842   9.587  0.1761  0.5710 -0.1957
   14CHL1   H17  987   4.414   3.769   9.571  0.2066  0.7053 -0.6803
   14CHL1   C13  988   4.249   3.797   9.707  0.3683  1.0068 -0.3121
   14CHL1   C18  989   4.133   3.899   9.731  0.1538 -0.5094  0.4531
   14CHL1  H18A  990   4.178   4.001   9.736  0.7236 -0.7613  0.5351
   14CHL1  H18B  991   4.050   3.902   9.658  0.9833  0.9631 -0.5060
   14CHL1  H18C  992   4.092   3.883   9.833 -1.0763 -0.7265 -0.0595
   14CHL1   C12  993   4.201   3.650   9.718  0.0943 -0.2168  0.5599
   14CHL1  H12A  994   4.116   3.626   9.650 -2.9743  0.5586  3.8474
   14CHL1  H12B  995   4.295   3.594   9.698  0.9285  1.1351  0.5588
   14CHL1   C11  996   4.148   3.619   9.861  0.4718 -0.3795  0.4613
   14CHL1  H11A  997   4.053   3.676   9.863  1.5866  1.5403  0.8724
   14CHL1  H11B  998   4.129   3.510   9.863  1.1713 -0.5589 -1.2951
   14CHL1    C9  999   4.238   3.654   9.981  0.1055  0.5030 -0.1995
   14CHL1    H9 1000   4.319   3.581   9.958 -1.5749 -1.1084 -1.2364
   14CHL1   C10 1001   4.174   3.629  10.124  0.2110  0.4442  0.8866
   14CHL1   C19 1002   4.030   3.698  10.132 -0.7365  0.4239 -0.1841
   14CHL1  H19A 1003   3.983   3.694  10.232 -2.8198 -0.6654 -1.1407
   14CHL1  H19B 1004   4.042   3.805  10.105  1.9808 -0.4987 -3.2440
   14CHL1  H19C 1005   3.954   3.657  10.061 -2.8863  1.0666  1.6291
   14CHL1    C1 1006   4.175   3.484  10.145 -0.3340  1.1511  0.3005
   14CHL1   H1A 1007   4.114   3.444  10.061  0.3041  0.2327  0.2598
   14CHL1   H1B 1008   4.275   3.437  10.132  0.9132  3.9493 -1.2445
   14CHL1    C2 1009   4.109   3.444  10.279  0.0377  0.2542 -0.3349
   14CHL1   H2A 1010   4.108   3.333  10.289 -0.7503  0.3315  0.5809
   14CHL1   H2B 1011   4.004   3.476  10.291  0.3464  0.5284  1.9361
   14CHL1   C20 1012   4.261   3.883   9.456 -0.2543 -0.9526  0.1434
   14CHL1   H20 1013   4.209   3.978   9.481  3.0773  0.6624  1.6093
   14CHL1   C21 1014   4.168   3.764   9.423  0.0588  0.1017 -0.0145
   14CHL1  H21A 1015   4.125   3.784   9.322  0.5430  1.8305  0.0818
   14CHL1  H21B 1016   4.077   3.764   9.488 -1.7541  1.1956 -2.3917
   14CHL1  H21C 1017   4.216   3.665   9.415 -2.8937 -1.2894 -2.8296
   14CHL1   C22 1018   4.360   3.915   9.338 -0.9908 -0.0955  1.3142
   14CHL1  H22A 1019   4.440   3.981   9.379 -0.8717  0.8207 -0.3145
   14CHL1  H22B 1020   4.411   3.821   9.310 -0.4407  0.5364  0.1233
   14CHL1   C23 1021   4.287   3.979   9.220  0.4432  0.1022 -0.0718
   14CHL1  H23A 1022   4.248   3.900   9.153 -0.1151  0.1075  0.2410
   14CHL1  H23B 1023   4.204   4.038   9.264 -1.0099 -1.0880 -1.1365
   14CHL1   C24 1024   4.385   4.075   9.145  0.2818  0.4012  0.2177
   14CHL1  H24A 1025   4.432   4.150   9.211 -0.0346 -0.9197  2.0200
   14CHL1  H24B 1026   4.463   4.010   9.098  0.1609 -0.2161  0.8548
   14CHL1   C25 1027   4.318   4.147   9.017 -0.1105  0.0879  0.8313
   14CHL1   H25 1028   4.221   4.196   9.040  0.5844  1.3812  1.0769
   14CHL1   C26 1029   4.417   4.248   8.958 -0.2982 -0.5713 -0.6769
   14CHL1  H26A 1030   4.511   4.196   8.929  0.3847 -0.2286  0.8176
   14CHL1  H26B 1031   4.379   4.307   8.873 -0.4134  1.0567  0.4648
   14CHL1  H26C 1032   4.457   4.331   9.020 -0.4246  0.0117 -1.3673
   14CHL1   C27 1033   4.273   4.047   8.907 -0.7134  1.0861 -0.0515
   14CHL1  H27A 1034   4.364   3.991   8.875 -0.3065  1.3156  0.6814
   14CHL1  H27B 1035   4.211   3.962   8.943  1.3581 -0.4000  0.1828
   14CHL1  H27C 1036   4.231   4.089   8.813  0.2183 -1.8853 -1.9704
   15CHL1    C3 1037   4.113   3.004   9.994  0.5355  0.4089 -0.3977
   15CHL1    H3 1038   4.005   2.979   9.980  0.0535  0.9087  1.9979
   15CHL1    O3 1039   4.148   2.957  10.124 -0.4908  0.6528 -0.0908
   15CHL1   H3' 1040   4.244   2.964  10.116 -0.4527  1.7733  0.8893
   15CHL1    C4 1041   4.198   2.930   9.891 -0.6096  0.3072 -0.1704
   15CHL1   H4A 1042   4.303   2.939   9.925 -0.0152 -0.1271 -1.7805
   15CHL1   H4B 1043   4.184   2.820   9.887  0.8042  0.1141 -3.3668
   15CHL1    C5 1044   4.186   2.983   9.754  0.1794  0.0992  0.0598
   15CHL1    C6 1045   4.162   2.907   9.644  0.0131 -0.2653 -0.2674
   15CHL1    H6 1046   4.149   2.798   9.652  1.3411 -0.3195  2.3164
   15CHL1    C7 1047   4.162   2.951   9.502 -0.0349  0.2716 -0.3346
   15CHL1   H7A 1048   4.252   2.901   9.461  1.2123 -1.1189  3.6252
   15CHL1   H7B 1049   4.064   2.926   9.456  0.5284 -0.2440 -1.2849
   15CHL1    C8 1050   4.195   3.098   9.492 -0.2051  0.1084 -0.0683
   15CHL1    H8 1051   4.305   3.111   9.484 -0.2549  0.0914 -0.8581
   15CHL1   C14 1052   4.142   3.145   9.354 -0.0436 -0.2603 -0.7739
   15CHL1   H14 1053   4.033   3.127   9.344 -0.1260 -0.6824  0.5679
   15CHL1   C15 1054   4.187   3.073   9.229  0.2202 -0.3413 -0.1439
   15CHL1  H15A 1055   4.290   3.031   9.227  0.0709 -0.6932 -1.1163
   15CHL1  H15B 1056   4.116   2.987   9.221 -2.3570  1.7536 -1.0549
   15CHL1   C16 1057   4.167   3.175   9.117 -0.5180  0.1629 -0.1634
   15CHL1  H16A 1058   4.265   3.211   9.077  1.0792 -3.1775  0.3335
   15CHL1  H16B 1059   4.095   3.147   9.038 -1.6774  0.8033  0.6465
   15CHL1   C17 1060   4.108   3.301   9.186  0.2175  0.1821  0.2458
   15CHL1   H17 1061   4.001   3.273   9.178  0.7322 -1.5342 -1.4673
   15CHL1   C13 1062   4.159   3.297   9.329 -0.2947  0.5234 -0.1970
   15CHL1   C18 1063   4.311   3.330   9.332 -0.1606  0.3451 -0.6068
   15CHL1  H18A 1064   4.360   3.316   9.431 -1.4624  4.2694  0.7873
   15CHL1  H18B 1065   4.369   3.256   9.272  0.1498 -1.0289  1.2835
   15CHL1  H18C 1066   4.325   3.440   9.320  0.5220  0.2282 -0.9425
   15CHL1   C12 1067   4.092   3.377   9.437  0.7118  0.2819  0.0304
   15CHL1  H12A 1068   4.118   3.484   9.429  3.1118 -0.0685  1.9762
   15CHL1  H12B 1069   3.981   3.370   9.426  0.8861 -1.0941 -1.2086
   15CHL1   C11 1070   4.144   3.335   9.577  0.3879 -0.3684 -0.4002
   15CHL1  H11A 1071   4.245   3.376   9.595  0.0960 -0.4234  1.5189
   15CHL1  H11B 1072   4.073   3.387   9.644 -0.6961  1.2098 -2.6634
   15CHL1    C9 1073   4.137   3.181   9.605  0.4559  0.7461  0.0264
   15CHL1    H9 1074   4.029   3.159   9.607 -0.4690  4.3239 -1.6873
   15CHL1   C10 1075   4.191   3.138   9.742  0.5664 -0.1692  0.1838
   15CHL1   C19 1076   4.341   3.173   9.758 -0.5281 -0.6684  0.4260
   15CHL1  H19A 1077   4.374   3.150   9.862 -0.6485 -2.0226  0.1800
   15CHL1  H19B 1078   4.397   3.121   9.677 -2.1365 -1.8133 -0.0064
   15CHL1  H19C 1079   4.365   3.279   9.734  2.2015 -1.0818  0.9977
   15CHL1    C1 1080   4.104   3.196   9.850  0.4825 -0.2094  0.6574
   15CHL1   H1A 1081   4.088   3.306   9.849 -0.1367 -0.2843  1.3102
   15CHL1   H1B 1082   3.998   3.168   9.831  0.8618 -1.9005  0.9271
   15CHL1    C2 1083   4.124   3.154   9.992 -0.1916  0.9909 -0.0856
   15CHL1   H2A 1084   4.058   3.211  10.060  0.2931  1.1615  0.2462
   15CHL1   H2B 1085   4.226   3.191  10.016 -0.4798  1.8672 -0.2001
   15CHL1   C20 1086   4.117   3.430   9.106  0.1037  0.5037 -0.1365
   15CHL1   H20 1087   4.194   3.499   9.145  2.7200 -1.7400 -0.9773
   15CHL1   C21 1088   3.978   3.504   9.134  0.0515 -0.3309  0.6891
   15CHL1  H21A 1089   3.966   3.598   9.076 -0.4196 -0.8835 -0.1311
   15CHL1  H21B 1090   3.983   3.531   9.242  2.2808  1.2153  0.2550
   15CHL1  H21C 1091   3.894   3.434   9.113  0.6620 -1.0887  0.7049
   15CHL1   C22 1092   4.132   3.416   8.947 -0.1023  0.1741  0.7208
   15CHL1  H22A 1093   4.230   3.366   8.931 -0.5386 -0.7580  0.9364
   15CHL1  H22B 1094   4.049   3.359   8.901  2.2308 -1.9611 -1.1011
   15CHL1   C23 1095   4.154   3.548   8.872 -0.6533 -0.7846 -0.7446
   15CHL1  H23A 1096   4.065   3.614   8.884  1.2288  1.7626  0.0738
   15CHL1  H23B 1097   4.238   3.605   8.917 -0.8369  0.3550 -1.7808
   15CHL1   C24 1098   4.191   3.532   8.724  0.0924  0.2056  0.6157
   15CHL1  H24A 1099   4.278   3.465   8.706  1.2289  1.9749 -0.6776
   15CHL1  H24B 1100   4.105   3.496   8.664  0.4079 -0.2798  0.4495
   15CHL1   C25 1101   4.216   3.666   8.658 -0.2427  1.0129  0.4917
   15CHL1   H25 1102   4.260   3.714   8.748 -0.1328 -1.1805  1.6728
   15CHL1   C26 1103   4.308   3.658   8.540  0.2729 -0.5087  0.3523
   15CHL1  H26A 1104   4.263   3.635   8.441  0.3464  1.6218 -0.2166
   15CHL1  H26B 1105   4.365   3.751   8.518 -1.6314  1.3121  2.5594
   15CHL1  H26C 1106   4.374   3.571   8.558  0.0769 -1.1225 -1.6001
   15CHL1   C27 1107   4.089   3.751   8.614  0.4885  0.2983  0.1602
   15CHL1  H27A 1108   4.046   3.723   8.515  1.2031 -1.2133  0.2401
   15CHL1  H27B 1109   4.016   3.760   8.697  0.7041  1.0955  0.2716
   15CHL1  H27C 1110   4.127   3.855   8.602  0.4543  0.2934  0.0089
   16CHL1    C3 1111   5.858   2.725  10.342 -1.1606 -0.1729  1.1362
   16CHL1    H3 1112   5.806   2.823  10.334 -1.7171 -0.4143  1.7729
   16CHL1    O3 1113   5.903   2.694  10.468  0.1823 -0.0286 -0.1893
   16CHL1   H3' 1114   5.936   2.604  10.463  1.0516  0.3449 -1.5674
   16CHL1    C4 1115   5.763   2.620  10.278 -0.6380 -0.9267 -0.2804
   16CHL1   H4A 1116   5.822   2.527  10.291  1.3343  0.2091 -0.6332
   16CHL1   H4B 1117   5.669   2.618  10.337 -1.2826  0.8630 -1.1683
   16CHL1    C5 1118   5.728   2.652  10.129 -0.5163 -0.1057  0.2791
   16CHL1    C6 1119   5.598   2.663  10.092  0.0402 -0.1607  0.6034
   16CHL1    H6 1120   5.517   2.641  10.163 -0.4991 -1.3641 -0.3403
   16CHL1    C7 1121   5.551   2.684   9.951  0.4075 -0.3117 -0.4655
   16CHL1   H7A 1122   5.475   2.611   9.918  1.2027 -0.0635 -3.0944
   16CHL1   H7B 1123   5.502   2.783   9.939  0.9959  0.3546  2.0373
   16CHL1    C8 1124   5.670   2.673   9.850 -0.4029  0.2358  0.0630
   16CHL1    H8 1125   5.694   2.565   9.839 -2.1675 -0.0098 -2.1703
   16CHL1   C14 1126   5.627   2.730   9.721  0.8356  0.0822  0.7146
   16CHL1   H14 1127   5.606   2.839   9.726  2.0187  0.5757 -2.4622
   16CHL1   C15 1128   5.492   2.681   9.662  0.1972  0.2429  0.3713
   16CHL1  H15A 1129   5.458   2.578   9.690 -0.4229 -0.3560 -2.2937
   16CHL1  H15B 1130   5.419   2.749   9.711 -1.8358 -1.1847 -0.4881
   16CHL1   C16 1131   5.505   2.694   9.513  0.5720  0.5129 -0.0451
   16CHL1  H16A 1132   5.481   2.598   9.462 -1.6292  0.4277  1.0380
   16CHL1  H16B 1133   5.441   2.773   9.467  0.0704  0.4614  0.5454
   16CHL1   C17 1134   5.645   2.758   9.484 -0.3249 -0.5821 -0.3196
   16CHL1   H17 1135   5.639   2.869   9.487  0.8378 -0.5045 -0.5518
   16CHL1   C13 1136   5.730   2.719   9.613  0.0716 -0.1352 -0.8513
   16CHL1   C18 1137   5.762   2.569   9.596 -0.5155 -0.1255 -0.1416
   16CHL1  H18A 1138   5.808   2.539   9.499 -1.1905 -2.2677  0.1357
   16CHL1  H18B 1139   5.818   2.543   9.689 -0.2987 -0.9774 -0.4945
   16CHL1  H18C 1140   5.668   2.511   9.609 -0.2391 -0.0431  3.0058
   16CHL1   C12 1141   5.853   2.799   9.656 -0.7718  0.2984  0.9317
   16CHL1  H12A 1142   5.920   2.766   9.574 -2.1952  0.6625 -0.4387
   16CHL1  H12B 1143   5.824   2.904   9.633 -3.5696 -0.6409 -0.3354
   16CHL1   C11 1144   5.910   2.771   9.795 -0.0522  0.1466 -0.3426
   16CHL1  H11A 1145   5.974   2.681   9.796  0.0243  0.1962 -0.6169
   16CHL1  H11B 1146   5.980   2.848   9.834  0.1793 -0.8615  1.3099
   16CHL1    C9 1147   5.797   2.749   9.902  0.9958 -0.0634 -0.2424
   16CHL1    H9 1148   5.751   2.848   9.915 -1.5412 -0.4607 -4.3043
   16CHL1   C10 1149   5.849   2.685  10.038  0.0247 -0.3270  0.1910
   16CHL1   C19 1150   5.926   2.557  10.007 -0.5352 -0.4876  0.1388
   16CHL1  H19A 1151   6.028   2.580   9.970 -0.5586  1.0277  0.9038
   16CHL1  H19B 1152   5.949   2.496  10.098  1.6812 -0.1310 -0.1083
   16CHL1  H19C 1153   5.876   2.491   9.933 -0.2949  0.6154 -1.0428
   16CHL1    C1 1154   5.945   2.783  10.109 -0.1892 -0.3864 -0.2633
   16CHL1   H1A 1155   6.032   2.814  10.047 -1.3896 -0.6961 -2.1936
   16CHL1   H1B 1156   5.890   2.879  10.104  0.5945  0.1908  1.2726
   16CHL1    C2 1157   5.981   2.735  10.251 -0.2855 -0.3567  0.3213
   16CHL1   H2A 1158   6.047   2.815  10.291  1.1759 -1.4822  0.2423
   16CHL1   H2B 1159   6.041   2.641  10.249 -0.8911 -0.7443  0.0222
   16CHL1   C20 1160   5.687   2.738   9.337  0.8670  0.5854  0.9774
   16CHL1   H20 1161   5.707   2.630   9.321  0.2474  0.7387 -1.2184
   16CHL1   C21 1162   5.817   2.825   9.312 -0.3175  0.5250  0.8852
   16CHL1  H21A 1163   5.794   2.932   9.331  0.9061  0.9480  0.1321
   16CHL1  H21B 1164   5.856   2.808   9.209  0.7248  1.2336  1.1479
   16CHL1  H21C 1165   5.906   2.816   9.378  0.2724  0.2805  0.0673
   16CHL1   C22 1166   5.578   2.776   9.230 -0.1185 -0.3998 -0.1600
   16CHL1  H22A 1167   5.617   2.744   9.131 -3.1559 -1.6871 -1.0490
   16CHL1  H22B 1168   5.491   2.707   9.238  0.6847 -1.3235  1.3088
   16CHL1   C23 1169   5.537   2.927   9.210 -0.8872 -0.7859  0.1614
   16CHL1  H23A 1170   5.514   2.964   9.313  0.8577  3.2342 -0.6977
   16CHL1  H23B 1171   5.632   2.977   9.184  0.0988 -2.0995  1.0970
   16CHL1   C24 1172   5.432   2.948   9.107  1.0331 -0.5344 -0.0075
   16CHL1  H24A 1173   5.332   2.916   9.143 -0.3785  1.4212 -1.9144
   16CHL1  H24B 1174   5.421   3.056   9.082  0.1808 -0.7706 -0.6619
   16CHL1   C25 1175   5.454   2.877   8.968  0.2003 -0.4133  0.1386
   16CHL1   H25 1176   5.464   2.768   8.987 -0.5909 -0.3760  0.8486
   16CHL1   C26 1177   5.330   2.890   8.883 -0.0457 -0.6794  0.6026
   16CHL1  H26A 1178   5.351   2.872   8.776 -1.4539  0.4848  0.1058
   16CHL1  H26B 1179   5.251   2.827   8.930 -2.9465  1.0371 -1.6493
   16CHL1  H26C 1180   5.295   2.995   8.884 -1.1146 -1.0125  2.0102
   16CHL1   C27 1181   5.582   2.922   8.897 -0.0475  0.0613  0.4237
   16CHL1  H27A 1182   5.667   2.896   8.963 -0.3412 -0.2287  0.6915
   16CHL1  H27B 1183   5.581   2.857   8.807  0.1351  1.5636 -0.7120
   16CHL1  H27C 1184   5.587   3.029   8.865  2.1224 -0.1996 -0.2629
   17CHL1    C3 1185   0.486   6.430  10.414 -0.8215 -0.0917 -0.4538
   17CHL1    H3 1186   0.385   6.455  10.375 -0.5700 -1.4959 -2.1188
   17CHL1    O3 1187   0.484   6.421  10.549  0.1410  0.8282 -0.4512
   17CHL1   H3' 1188   0.412   6.364  10.576  0.3265  0.6112 -0.4078
   17CHL1    C4 1189   0.534   6.298  10.360  0.2899  0.4183  0.5134
   17CHL1   H4A 1190   0.622   6.276  10.424  0.4294  2.3449  1.0240
   17CHL1   H4B 1191   0.455   6.226  10.393  1.0185 -0.0646  1.2616
   17CHL1    C5 1192   0.557   6.281  10.214 -0.7230  0.4342  0.3511
   17CHL1    C6 1193   0.502   6.189  10.131  0.6768  0.1106  0.3134
   17CHL1    H6 1194   0.429   6.117  10.171 -2.8619  3.0467 -0.2617
   17CHL1    C7 1195   0.511   6.200   9.980  0.2855  0.0262  0.4530
   17CHL1   H7A 1196   0.524   6.103   9.926  1.3859  0.7632 -0.6736
   17CHL1   H7B 1197   0.418   6.251   9.946  1.6545  1.1311 -1.9636
   17CHL1    C8 1198   0.627   6.284   9.923 -0.7511  0.1136  0.3013
   17CHL1    H8 1199   0.716   6.219   9.940  0.2157  0.8623 -1.4809
   17CHL1   C14 1200   0.612   6.309   9.774 -0.1473 -0.4400  0.1822
   17CHL1   H14 1201   0.521   6.373   9.770  0.7024  0.7961 -0.2455
   17CHL1   C15 1202   0.589   6.181   9.682  0.3897 -0.6365 -0.3049
   17CHL1  H15A 1203   0.669   6.104   9.689  1.9896  1.0377  1.1020
   17CHL1  H15B 1204   0.491   6.136   9.704 -0.9115  1.5207 -1.3323
   17CHL1   C16 1205   0.609   6.239   9.540 -0.4343 -0.1782  0.5400
   17CHL1  H16A 1206   0.686   6.172   9.496 -0.1707  1.3885 -1.5285
   17CHL1  H16B 1207   0.516   6.256   9.482  0.3743  2.2325 -0.1739
   17CHL1   C17 1208   0.683   6.376   9.563  0.5834 -0.5255  0.0089
   17CHL1   H17 1209   0.604   6.450   9.537  0.4685 -1.5630 -2.8800
   17CHL1   C13 1210   0.721   6.391   9.710  0.0515 -0.7601 -0.3091
   17CHL1   C18 1211   0.853   6.314   9.738  0.3445 -0.6435  0.0572
   17CHL1  H18A 1212   0.837   6.206   9.758  1.3054 -1.2627 -2.1985
   17CHL1  H18B 1213   0.923   6.334   9.654 -2.1395  3.3947 -1.3699
   17CHL1  H18C 1214   0.904   6.346   9.831  0.5051 -0.6167 -0.0408
   17CHL1   C12 1215   0.720   6.528   9.783  0.2874 -0.3208  0.0022
   17CHL1  H12A 1216   0.799   6.596   9.746 -0.4624  0.9449  0.6547
   17CHL1  H12B 1217   0.624   6.583   9.770  0.4774  0.0332  0.0681
   17CHL1   C11 1218   0.731   6.513   9.937 -0.4985 -0.1331  0.1588
   17CHL1  H11A 1219   0.835   6.481   9.958 -0.6693 -2.0096 -1.5593
   17CHL1  H11B 1220   0.701   6.612   9.978 -2.7188 -0.7304  0.1064
   17CHL1    C9 1221   0.637   6.407  10.001  0.0447  0.6785  0.4838
   17CHL1    H9 1222   0.535   6.447   9.982 -1.0088 -2.2430 -0.5807
   17CHL1   C10 1223   0.643   6.397  10.161 -0.4408 -0.0667 -0.5116
   17CHL1   C19 1224   0.797   6.364  10.204 -0.9758  0.1072 -0.3104
   17CHL1  H19A 1225   0.840   6.277  10.150  3.8130  1.5710  0.6652
   17CHL1  H19B 1226   0.863   6.448  10.173  2.1525 -2.7660 -2.1506
   17CHL1  H19C 1227   0.803   6.349  10.314 -2.1402 -2.6569 -0.5461
   17CHL1    C1 1228   0.604   6.537  10.223  0.0933 -1.1169  0.1989
   17CHL1   H1A 1229   0.684   6.610  10.198 -1.2800 -0.1293 -1.5534
   17CHL1   H1B 1230   0.512   6.575  10.174  2.1499  1.8420 -1.6846
   17CHL1    C2 1231   0.582   6.544  10.375  0.1453  0.1606  0.4871
   17CHL1   H2A 1232   0.541   6.645  10.396 -1.3844 -0.2645 -0.3166
   17CHL1   H2B 1233   0.682   6.530  10.421  0.8041  2.0724 -0.2867
   17CHL1   C20 1234   0.778   6.419   9.446  0.2343  0.9197 -0.6132
   17CHL1   H20 1235   0.859   6.343   9.452  0.4587  1.1612 -0.6050
   17CHL1   C21 1236   0.841   6.555   9.479  0.0266  0.1102 -0.0166
   17CHL1  H21A 1237   0.909   6.548   9.566  2.2175 -0.7842 -1.7034
   17CHL1  H21B 1238   0.760   6.629   9.495 -1.6659 -2.0441  2.0446
   17CHL1  H21C 1239   0.906   6.585   9.394 -0.4518 -0.6379 -0.6631
   17CHL1   C22 1240   0.706   6.424   9.309 -0.2312  0.2296  0.7859
   17CHL1  H22A 1241   0.654   6.328   9.292 -1.3741  0.4512  2.7376
   17CHL1  H22B 1242   0.625   6.499   9.303 -1.5208 -1.2536 -2.9894
   17CHL1   C23 1243   0.808   6.444   9.200 -0.3525 -0.2065  0.0778
   17CHL1  H23A 1244   0.853   6.546   9.202  0.2055 -0.4550  1.2359
   17CHL1  H23B 1245   0.894   6.374   9.203  0.9754  1.3819  0.4210
   17CHL1   C24 1246   0.742   6.451   9.065  0.6793  0.0416  0.8780
   17CHL1  H24A 1247   0.671   6.370   9.038  0.3288  0.8561 -0.7622
   17CHL1  H24B 1248   0.676   6.541   9.071  2.5770  1.5274  0.4018
   17CHL1   C25 1249   0.829   6.462   8.946 -0.2972  0.4656  0.0594
   17CHL1   H25 1250   0.903   6.542   8.969 -3.0388  2.4267  3.1152
   17CHL1   C26 1251   0.915   6.338   8.929 -1.0735  0.5781 -0.1954
   17CHL1  H26A 1252   0.982   6.320   9.016  1.6235 -0.6060 -2.3768
   17CHL1  H26B 1253   0.852   6.250   8.907 -0.8055  0.4162 -0.3119
   17CHL1  H26C 1254   0.988   6.345   8.846  1.1187  1.6505  1.7063
   17CHL1   C27 1255   0.757   6.496   8.818 -0.3593  1.0825  0.5106
   17CHL1  H27A 1256   0.673   6.426   8.796 -0.1495  0.8255  0.5169
   17CHL1  H27B 1257   0.720   6.600   8.825 -1.8128  0.6684 -0.4392
   17CHL1  H27C 1258   0.825   6.487   8.731 -0.7118 -1.5993  0.4353
   18CHL1    C3 1259   0.239   5.383  10.191 -0.1681 -0.0751  0.1027
   18CHL1    H3 1260   0.131   5.367  10.171  0.2356 -4.8209  0.6527
   18CHL1    O3 1261   0.272   5.385  10.329  0.5232  0.4045 -0.2867
   18CHL1   H3' 1262   0.322   5.465  10.348 -1.5891  1.8417 -0.3190
   18CHL1    C4 1263   0.321   5.281  10.123 -0.7916  0.5312 -0.7147
   18CHL1   H4A 1264   0.430   5.299  10.141 -0.6891  1.0758 -1.7804
   18CHL1   H4B 1265   0.298   5.180  10.162 -1.0793  0.3076 -1.4549
   18CHL1    C5 1266   0.296   5.281   9.976  0.6108  0.5376 -0.3082
   18CHL1    C6 1267   0.234   5.182   9.917  0.7586  0.1800  0.0929
   18CHL1    H6 1268   0.210   5.096   9.981 -0.0480  0.5303  0.2780
   18CHL1    C7 1269   0.210   5.174   9.769  0.6024  0.7510  0.1347
   18CHL1   H7A 1270   0.238   5.071   9.740  3.4277  1.2299  0.8111
   18CHL1   H7B 1271   0.100   5.184   9.759  0.4416 -0.4832  0.5187
   18CHL1    C8 1272   0.291   5.280   9.691  0.5018 -0.1777  0.0865
   18CHL1    H8 1273   0.396   5.245   9.694  1.0964  1.3212 -1.5203
   18CHL1   C14 1274   0.229   5.294   9.551  0.1596  0.2229 -0.0386
   18CHL1   H14 1275   0.128   5.336   9.572 -0.0952 -0.4857  0.1602
   18CHL1   C15 1276   0.203   5.168   9.476 -0.3292 -0.3194  0.4405
   18CHL1  H15A 1277   0.297   5.110   9.480 -0.5038 -0.9614 -2.3737
   18CHL1  H15B 1278   0.119   5.113   9.524 -1.4479  2.0602  1.4127
   18CHL1   C16 1279   0.186   5.222   9.335  0.4667 -0.3173  0.0432
   18CHL1  H16A 1280   0.255   5.165   9.269  2.1664 -0.3313  1.7670
   18CHL1  H16B 1281   0.084   5.193   9.301  0.4444  2.9224 -3.3011
   18CHL1   C17 1282   0.213   5.371   9.333  0.2538 -0.2004  0.7282
   18CHL1   H17 1283   0.116   5.425   9.343  0.0697  0.2442 -2.3464
   18CHL1   C13 1284   0.296   5.400   9.456  0.3440  0.1907 -0.0854
   18CHL1   C18 1285   0.440   5.364   9.429 -0.2576  0.8167 -0.3057
   18CHL1  H18A 1286   0.496   5.360   9.525  0.3588  2.5286 -0.5594
   18CHL1  H18B 1287   0.455   5.262   9.387  0.9333  1.4262 -1.4523
   18CHL1  H18C 1288   0.493   5.430   9.357  0.0637 -1.4734 -2.2904
   18CHL1   C12 1289   0.273   5.532   9.532 -0.3862  0.1655 -1.0683
   18CHL1  H12A 1290   0.320   5.625   9.492  0.9118 -0.0329 -0.0824
   18CHL1  H12B 1291   0.164   5.545   9.546 -0.2108 -0.3506  1.0620
   18CHL1   C11 1292   0.342   5.529   9.664 -0.0960  0.0730 -0.8760
   18CHL1  H11A 1293   0.451   5.513   9.649 -0.2516 -3.5242  0.7889
   18CHL1  H11B 1294   0.330   5.631   9.708  1.9533  0.4411 -1.0677
   18CHL1    C9 1295   0.283   5.416   9.760  0.4035 -0.2160 -0.2052
   18CHL1    H9 1296   0.176   5.447   9.763  0.5671  1.1452 -3.6206
   18CHL1   C10 1297   0.330   5.413   9.907 -0.5740 -0.5739  0.7127
   18CHL1   C19 1298   0.491   5.428   9.909 -0.7590  0.1114  0.1730
   18CHL1  H19A 1299   0.536   5.349   9.846 -0.9729  0.0136  0.1431
   18CHL1  H19B 1300   0.517   5.531   9.874  0.5237  0.6380  2.4961
   18CHL1  H19C 1301   0.524   5.420  10.014  0.7772 -2.5192 -0.4335
   18CHL1    C1 1302   0.253   5.526   9.983  0.4188  0.3080  0.2670
   18CHL1   H1A 1303   0.285   5.621   9.935 -0.4219  0.9620  0.9556
   18CHL1   H1B 1304   0.145   5.513   9.961  0.2229  2.2727 -0.1105
   18CHL1    C2 1305   0.271   5.521  10.133  0.2403 -0.3999  0.8284
   18CHL1   H2A 1306   0.229   5.611  10.183  0.4005  1.1580 -1.6260
   18CHL1   H2B 1307   0.382   5.528  10.141  0.3907 -0.6598 -0.7402
   18CHL1   C20 1308   0.256   5.427   9.196  0.7299 -0.2617 -0.3080
   18CHL1   H20 1309   0.358   5.388   9.176 -0.6118 -4.6037  0.2699
   18CHL1   C21 1310   0.250   5.587   9.183 -0.2629  0.8413 -0.3834
   18CHL1  H21A 1311   0.349   5.630   9.212 -0.3961  2.7211 -2.4753
   18CHL1  H21B 1312   0.172   5.641   9.241  0.2503  1.0801  0.1023
   18CHL1  H21C 1313   0.241   5.615   9.076 -2.9644  0.9786 -0.1765
   18CHL1   C22 1314   0.177   5.370   9.083  0.3833 -0.1967  0.1626
   18CHL1  H22A 1315   0.229   5.400   8.989 -1.4851 -2.2382 -1.6018
   18CHL1  H22B 1316   0.182   5.260   9.079  2.8491 -0.1069 -1.3218
   18CHL1   C23 1317   0.028   5.418   9.084  0.5253  0.9799  0.2401
   18CHL1  H23A 1318  -0.025   5.385   9.176 -3.1635 -0.4854 -2.1705
   18CHL1  H23B 1319   0.021   5.527   9.069 -0.5970  0.9654  0.5820
   18CHL1   C24 1320  -0.062   5.347   8.972  0.0485  0.7826 -0.5569
   18CHL1  H24A 1321  -0.050   5.238   8.987  2.3193  1.3838  3.3611
   18CHL1  H24B 1322  -0.170   5.363   8.991 -0.2304 -1.7392  0.3502
   18CHL1   C25 1323  -0.023   5.374   8.829  0.0149 -0.4199 -0.1179
   18CHL1   H25 1324   0.081   5.335   8.819  0.3806  0.1294  1.3216
   18CHL1   C26 1325  -0.107   5.289   8.739 -0.0975  0.7870  1.1042
   18CHL1  H26A 1326  -0.074   5.299   8.634  0.1489 -0.2910  1.0579
   18CHL1  H26B 1327  -0.079   5.188   8.778  2.8871  0.0651 -2.3722
   18CHL1  H26C 1328  -0.217   5.290   8.751 -0.4307 -0.7649 -1.1518
   18CHL1   C27 1329  -0.010   5.523   8.795  0.1456 -0.3336 -0.1436
   18CHL1  H27A 1330   0.058   5.576   8.864  0.3509  0.4166 -0.9072
   18CHL1  H27B 1331   0.035   5.535   8.694  2.6544 -3.6100  0.3905
   18CHL1  H27C 1332  -0.107   5.576   8.799 -0.9227 -2.1743 -0.5382
   19CHL1    C3 1333   5.135   3.106  10.195 -0.4606 -0.6938 -0.2730
   19CHL1    H3 1334   5.095   3.005  10.173  0.8511 -1.1735 -0.5504
   19CHL1    O3 1335   5.158   3.093  10.333 -0.2916  0.0941  0.0335
   19CHL1   H3' 1336   5.185   3.181  10.359  1.8956 -1.2806  2.9065
   19CHL1    C4 1337   5.262   3.122  10.112 -0.6134 -0.0952 -0.0220
   19CHL1   H4A 1338   5.318   3.215  10.136 -1.7929  0.2817  1.4344
   19CHL1   H4B 1339   5.328   3.042  10.151 -0.9680  0.8013  2.6065
   19CHL1    C5 1340   5.227   3.118   9.962 -0.7515  0.8254  0.4944
   19CHL1    C6 1341   5.279   3.026   9.876  0.3697 -0.0509 -0.1732
   19CHL1    H6 1342   5.337   2.946   9.924 -1.3940 -0.3345  1.6268
   19CHL1    C7 1343   5.245   3.027   9.731 -0.2830  0.5088  0.1556
   19CHL1   H7A 1344   5.330   2.980   9.677 -0.6189 -0.3258  0.3350
   19CHL1   H7B 1345   5.159   2.958   9.732  0.3287 -0.2996 -0.8376
   19CHL1    C8 1346   5.207   3.170   9.680  0.4948  0.2268  0.2676
   19CHL1    H8 1347   5.291   3.242   9.693  0.2762  0.1585  2.3803
   19CHL1   C14 1348   5.161   3.165   9.538 -0.3912  0.1100  0.6986
   19CHL1   H14 1349   5.071   3.101   9.530  0.8801 -1.6127 -0.6078
   19CHL1   C15 1350   5.261   3.096   9.438 -0.7840  0.2250 -0.2110
   19CHL1  H15A 1351   5.363   3.125   9.471 -0.5935 -3.3158  3.0099
   19CHL1  H15B 1352   5.259   2.985   9.432  0.6449  0.2466 -1.8776
   19CHL1   C16 1353   5.213   3.154   9.299  0.0497 -0.2088  0.4163
   19CHL1  H16A 1354   5.306   3.181   9.245  0.2876 -0.1405  0.8602
   19CHL1  H16B 1355   5.154   3.075   9.246  1.2315 -0.1843 -1.0044
   19CHL1   C17 1356   5.112   3.266   9.329  0.1945  0.4160  0.1013
   19CHL1   H17 1357   5.012   3.217   9.317  1.2764 -1.8967  0.0656
   19CHL1   C13 1358   5.128   3.298   9.479 -0.0608 -0.0065  1.2242
   19CHL1   C18 1359   5.253   3.391   9.482  0.3147 -0.2374 -0.7592
   19CHL1  H18A 1360   5.346   3.348   9.438  2.7577  2.1263  1.7020
   19CHL1  H18B 1361   5.228   3.488   9.434 -1.9046 -0.5152 -0.2693
   19CHL1  H18C 1362   5.284   3.419   9.585 -2.6256 -0.8067  0.3686
   19CHL1   C12 1363   5.008   3.353   9.562 -0.0278  0.3177  0.5076
   19CHL1  H12A 1364   4.967   3.450   9.525 -1.2350 -0.3898 -0.0837
   19CHL1  H12B 1365   4.925   3.280   9.548 -0.0449  0.6099 -1.1018
   19CHL1   C11 1366   5.042   3.364   9.710 -0.2623  0.3932 -0.6664
   19CHL1  H11A 1367   5.108   3.451   9.733 -3.0606  2.5714 -0.3170
   19CHL1  H11B 1368   4.952   3.384   9.773 -0.6891  2.7598 -1.9008
   19CHL1    C9 1369   5.093   3.229   9.767 -0.6011 -0.4880 -0.2968
   19CHL1    H9 1370   5.014   3.151   9.762 -2.3980  1.2399  0.2302
   19CHL1   C10 1371   5.135   3.233   9.919  0.6227  0.5399  0.4371
   19CHL1   C19 1372   5.224   3.360   9.943  0.5402 -0.0852  0.6658
   19CHL1  H19A 1373   5.254   3.376  10.049 -0.8685  0.4393  1.0135
   19CHL1  H19B 1374   5.306   3.385   9.873 -0.6194  0.7872 -0.4538
   19CHL1  H19C 1375   5.160   3.450   9.929 -0.0841 -0.5116  0.7144
   19CHL1    C1 1376   5.012   3.222  10.015 -0.5652 -0.4922  0.1018
   19CHL1   H1A 1377   4.954   3.314   9.992  0.8419  0.0307 -1.5265
   19CHL1   H1B 1378   4.946   3.134  10.004 -0.2599 -1.2000  2.9554
   19CHL1    C2 1379   5.036   3.217  10.169  0.0617  0.0571 -0.2261
   19CHL1   H2A 1380   4.939   3.213  10.225  0.7162 -0.6722  0.8861
   19CHL1   H2B 1381   5.073   3.319  10.193 -0.8664  0.8136 -1.8817
   19CHL1   C20 1382   5.103   3.385   9.225 -0.1461  0.8918 -0.0780
   19CHL1   H20 1383   5.207   3.422   9.233  1.4370 -3.4310  2.3057
   19CHL1   C21 1384   4.982   3.480   9.254 -0.6744  0.5194 -0.5504
   19CHL1  H21A 1385   4.960   3.564   9.185 -3.2834  1.3470  1.1533
   19CHL1  H21B 1386   4.982   3.523   9.357 -1.1944  0.9372 -0.7236
   19CHL1  H21C 1387   4.895   3.412   9.252 -0.1067 -0.3338  1.0928
   19CHL1   C22 1388   5.069   3.328   9.083  0.7100  0.2335 -0.2237
   19CHL1  H22A 1389   5.129   3.235   9.081  1.4956  0.6349  1.9072
   19CHL1  H22B 1390   4.962   3.297   9.078  0.3554  0.6275  2.7830
   19CHL1   C23 1391   5.112   3.424   8.965  0.1863 -0.1197 -0.0941
   19CHL1  H23A 1392   5.058   3.521   8.974 -0.0416 -0.3675  1.6129
   19CHL1  H23B 1393   5.216   3.458   8.983 -0.3770  0.5848  2.2052
   19CHL1   C24 1394   5.106   3.370   8.823  0.8924 -0.2138  0.0407
   19CHL1  H24A 1395   5.177   3.285   8.820  3.5651  1.9134 -0.8738
   19CHL1  H24B 1396   5.002   3.339   8.800  2.0234 -3.1962 -1.4019
   19CHL1   C25 1397   5.144   3.466   8.703  0.5904 -0.3032  0.9005
   19CHL1   H25 1398   5.090   3.563   8.713  0.3504 -0.3148 -0.1313
   19CHL1   C26 1399   5.290   3.485   8.702  0.3461  0.0069  0.2211
   19CHL1  H26A 1400   5.312   3.548   8.614 -0.2853 -1.0087 -0.6850
   19CHL1  H26B 1401   5.323   3.534   8.796  2.5892 -0.9227 -0.0083
   19CHL1  H26C 1402   5.344   3.389   8.686 -3.0348 -1.7811 -1.6904
   19CHL1   C27 1403   5.095   3.402   8.572 -0.7487 -0.0927 -0.7206
   19CHL1  H27A 1404   5.127   3.459   8.482 -0.1872  1.2789  0.3072
   19CHL1  H27B 1405   5.141   3.301   8.569  1.2412  0.7326  0.2536
   19CHL1  H27C 1406   4.984   3.393   8.568 -0.6485 -1.6410 -0.4711
   20CHL1    C3 1407   0.037   3.326  10.188 -0.1014  0.2139  0.1577
   20CHL1    H3 1408   0.006   3.428  10.156 -2.1910 -0.3527  0.2185
   20CHL1    O3 1409   0.058   3.340  10.328  0.0027 -0.7166  0.3701
   20CHL1   H3' 1410  -0.006   3.277  10.365  1.4024 -2.1001  0.5368
   20CHL1    C4 1411  -0.070   3.222  10.151 -0.5534 -0.4646  0.3738
   20CHL1   H4A 1412  -0.029   3.123  10.181 -0.7655  0.1558  2.9367
   20CHL1   H4B 1413  -0.169   3.233  10.200 -0.2367 -0.0073  0.9156
   20CHL1    C5 1414  -0.086   3.222  10.001  0.2024  0.0670  0.4853
   20CHL1    C6 1415  -0.210   3.235   9.950  0.4719  0.3446  0.0836
   20CHL1    H6 1416  -0.299   3.228  10.014 -0.6953 -0.5175 -1.5651
   20CHL1    C7 1417  -0.234   3.228   9.804 -0.1883  0.0394  0.7491
   20CHL1   H7A 1418  -0.309   3.149   9.784  0.8486 -1.0547  1.0465
   20CHL1   H7B 1419  -0.266   3.326   9.764 -0.0873 -0.5898 -0.9562
   20CHL1    C8 1420  -0.107   3.187   9.717  0.5670 -0.0470 -0.3460
   20CHL1    H8 1421  -0.095   3.077   9.724 -2.6245 -0.4379  0.4553
   20CHL1   C14 1422  -0.130   3.233   9.571  0.0760  0.5048 -0.0666
   20CHL1   H14 1423  -0.129   3.344   9.571  1.4535  0.5460 -1.8858
   20CHL1   C15 1424  -0.261   3.195   9.507  0.7460 -1.0345  0.3769
   20CHL1  H15A 1425  -0.280   3.087   9.528  0.6547 -1.1855 -0.4175
   20CHL1  H15B 1426  -0.342   3.265   9.536  1.4168 -0.5694  1.1631
   20CHL1   C16 1427  -0.224   3.199   9.350 -0.1938  0.3238 -0.3372
   20CHL1  H16A 1428  -0.240   3.097   9.308 -1.9150  1.0336 -1.4993
   20CHL1  H16B 1429  -0.292   3.270   9.300 -0.1181  0.9604  0.4401
   20CHL1   C17 1430  -0.075   3.235   9.342 -0.7807  0.0778  0.6970
   20CHL1   H17 1431  -0.063   3.344   9.330 -0.0640 -0.0202  0.4635
   20CHL1   C13 1432  -0.016   3.193   9.478  0.0075  0.4996 -0.0490
   20CHL1   C18 1433   0.011   3.035   9.486 -0.3049 -0.9495  0.1897
   20CHL1  H18A 1434  -0.075   2.975   9.449  0.8079 -2.4400 -0.1034
   20CHL1  H18B 1435   0.102   3.013   9.426  1.6500  1.7709  1.9750
   20CHL1  H18C 1436   0.018   3.013   9.595 -3.5727  0.4984  0.7897
   20CHL1   C12 1437   0.103   3.282   9.531 -1.0841 -0.1447 -0.2026
   20CHL1  H12A 1438   0.194   3.258   9.473 -1.4278 -0.9113 -0.4274
   20CHL1  H12B 1439   0.068   3.387   9.516  0.4625  0.5902  0.9533
   20CHL1   C11 1440   0.141   3.247   9.676  0.2810 -0.2519 -0.2936
   20CHL1  H11A 1441   0.172   3.141   9.689 -1.8016 -1.0252 -1.2915
   20CHL1  H11B 1442   0.227   3.312   9.706 -0.9663  1.6394 -0.6343
   20CHL1    C9 1443   0.017   3.259   9.772  0.3383  0.7710  1.1556
   20CHL1    H9 1444  -0.014   3.365   9.769 -1.5446  0.2503 -1.4716
   20CHL1   C10 1445   0.045   3.211   9.918 -0.5785  0.6808 -0.1328
   20CHL1   C19 1446   0.086   3.061   9.927  0.3481 -0.1074 -0.4692
   20CHL1  H19A 1447   0.109   3.015  10.026  1.2901  0.0792 -0.5894
   20CHL1  H19B 1448   0.004   2.995   9.891  0.6970  1.0099 -3.5545
   20CHL1  H19C 1449   0.179   3.052   9.867  0.7970 -1.8550  0.4027
   20CHL1    C1 1450   0.161   3.298   9.976  0.6644  0.3176  0.0632
   20CHL1   H1A 1451   0.245   3.250   9.921 -2.1246 -3.1736 -1.5279
   20CHL1   H1B 1452   0.156   3.401   9.935  4.1841  1.1915  1.4649
   20CHL1    C2 1453   0.169   3.287  10.127  0.1148 -0.3530 -0.1559
   20CHL1   H2A 1454   0.261   3.341  10.162 -0.3148 -0.8048  1.8122
   20CHL1   H2B 1455   0.193   3.181  10.148 -0.4585 -0.5616 -0.5587
   20CHL1   C20 1456  -0.008   3.188   9.211 -0.1918 -0.2103  0.1445
   20CHL1   H20 1457  -0.014   3.078   9.204  1.0584 -0.2827  0.0097
   20CHL1   C21 1458   0.146   3.220   9.200  0.5763 -0.5393 -0.2195
   20CHL1  H21A 1459   0.181   3.199   9.097 -0.6660 -0.3858 -0.6830
   20CHL1  H21B 1460   0.201   3.155   9.272  1.0757  0.2881  0.1720
   20CHL1  H21C 1461   0.160   3.326   9.231  2.1249 -0.4376 -1.1360
   20CHL1   C22 1462  -0.088   3.247   9.095  0.5786 -0.2221 -0.0149
   20CHL1  H22A 1463  -0.052   3.177   9.016 -0.1462 -0.4349 -0.1664
   20CHL1  H22B 1464  -0.198   3.227   9.096  0.2678  1.3607  0.2073
   20CHL1   C23 1465  -0.066   3.396   9.060 -0.4182  0.2929 -0.5141
   20CHL1  H23A 1466  -0.085   3.456   9.151  0.3870 -0.2751  0.0363
   20CHL1  H23B 1467   0.041   3.411   9.037 -0.3857  0.1410 -0.4577
   20CHL1   C24 1468  -0.143   3.443   8.940 -0.3112  0.1895 -0.4590
   20CHL1  H24A 1469  -0.120   3.551   8.926 -0.7433  0.4883  0.9485
   20CHL1  H24B 1470  -0.099   3.394   8.851  1.5772 -0.1762  0.6369
   20CHL1   C25 1471  -0.299   3.430   8.937 -1.2434  0.7089  0.1358
   20CHL1   H25 1472  -0.318   3.321   8.935  0.2107  0.3756  2.0132
   20CHL1   C26 1473  -0.353   3.492   9.066 -0.0835  0.1954 -0.2316
   20CHL1  H26A 1474  -0.347   3.434   9.161 -0.8168  1.1378  0.4010
   20CHL1  H26B 1475  -0.303   3.589   9.086 -0.4074  0.3098  0.0164
   20CHL1  H26C 1476  -0.458   3.525   9.056  0.5301  2.5389  0.4618
   20CHL1   C27 1477  -0.352   3.496   8.811  0.2095 -0.4383 -0.2611
   20CHL1  H27A 1478  -0.463   3.490   8.805  0.2384 -1.1051 -0.2023
   20CHL1  H27B 1479  -0.331   3.604   8.797 -2.3174 -0.2240 -4.0506
   20CHL1  H27C 1480  -0.303   3.447   8.724 -0.3235 -0.1334 -0.7427
   21CHL1    C3 1481   5.476   5.698  10.161  0.2994 -0.4615 -0.4240
   21CHL1    H3 1482   5.492   5.590  10.142 -1.1067 -1.1616  1.9800
   21CHL1    O3 1483   5.459   5.719  10.299  0.1332  0.3761  0.2261
   21CHL1   H3' 1484   5.393   5.658  10.334  2.0310 -0.6821  2.1880
   21CHL1    C4 1485   5.590   5.788  10.109 -0.0529  0.1171  0.1741
   21CHL1   H4A 1486   5.568   5.895  10.130 -0.0803  0.5720 -2.0233
   21CHL1   H4B 1487   5.684   5.759  10.162 -0.5844 -0.3482  0.8911
   21CHL1    C5 1488   5.609   5.774   9.957 -0.2213 -0.4698  0.0956
   21CHL1    C6 1489   5.723   5.720   9.900  0.3894 -0.1105  0.0028
   21CHL1    H6 1490   5.801   5.677   9.965 -1.1697  0.5722  2.4828
   21CHL1    C7 1491   5.739   5.710   9.749  0.4015 -0.4463 -0.3699
   21CHL1   H7A 1492   5.836   5.754   9.717  0.7429  0.0599  1.2534
   21CHL1   H7B 1493   5.732   5.606   9.711  1.1267 -0.4320 -0.5585
   21CHL1    C8 1494   5.630   5.777   9.663 -0.5261 -0.4891 -0.2460
   21CHL1    H8 1495   5.643   5.887   9.663  1.5250 -0.6472  1.9175
   21CHL1   C14 1496   5.635   5.722   9.529  0.3004  0.2136 -0.2865
   21CHL1   H14 1497   5.597   5.618   9.539  0.8485  0.0087 -0.3000
   21CHL1   C15 1498   5.767   5.730   9.452  0.2097  0.1604  0.0080
   21CHL1  H15A 1499   5.817   5.825   9.481  0.9251 -0.5334  1.1345
   21CHL1  H15B 1500   5.826   5.643   9.487 -1.2060  0.3023  3.1199
   21CHL1   C16 1501   5.718   5.712   9.306  0.1114 -0.7216 -0.0829
   21CHL1  H16A 1502   5.752   5.804   9.254 -0.8771 -0.3023 -0.0104
   21CHL1  H16B 1503   5.762   5.625   9.252  0.6332  0.6740 -2.0001
   21CHL1   C17 1504   5.560   5.713   9.301 -0.3430 -0.2118 -1.1765
   21CHL1   H17 1505   5.533   5.608   9.324  2.1937 -0.2708  2.3220
   21CHL1   C13 1506   5.526   5.791   9.438  0.1583  0.3188 -0.1108
   21CHL1   C18 1507   5.550   5.942   9.417 -0.1225  0.1221  0.2506
   21CHL1  H18A 1508   5.464   5.987   9.363  1.4071  3.0193  0.0107
   21CHL1  H18B 1509   5.549   5.989   9.518  1.0425  0.5852  0.0615
   21CHL1  H18C 1510   5.636   5.963   9.350 -0.1660  1.2208  0.5125
   21CHL1   C12 1511   5.379   5.765   9.493 -0.1943  0.5089 -0.0801
   21CHL1  H12A 1512   5.309   5.834   9.441  0.0311 -0.2739 -1.4659
   21CHL1  H12B 1513   5.359   5.656   9.492 -1.7884  0.6931  2.9301
   21CHL1   C11 1514   5.378   5.807   9.641 -0.4355 -0.6146  0.2054
   21CHL1  H11A 1515   5.377   5.918   9.647 -0.5588 -0.5634 -0.5826
   21CHL1  H11B 1516   5.280   5.774   9.682 -0.0959 -0.7768  0.8925
   21CHL1    C9 1517   5.493   5.753   9.726  0.5579  0.2628  0.3347
   21CHL1    H9 1518   5.479   5.643   9.720 -3.1682  0.6802 -2.6101
   21CHL1   C10 1519   5.481   5.799   9.870 -0.2936 -0.4668  0.2292
   21CHL1   C19 1520   5.466   5.947   9.874  0.3086 -0.3176 -0.0971
   21CHL1  H19A 1521   5.453   5.979   9.980 -1.9492 -0.9129 -0.1568
   21CHL1  H19B 1522   5.546   5.996   9.815  1.4076 -0.3806  1.2762
   21CHL1  H19C 1523   5.361   5.973   9.850  0.5368 -0.6461 -1.4920
   21CHL1    C1 1524   5.350   5.727   9.938 -0.0272 -0.5016 -0.0289
   21CHL1   H1A 1525   5.263   5.783   9.899  0.8508  1.4791  0.7550
   21CHL1   H1B 1526   5.353   5.623   9.897  1.0663 -1.6814  2.7946
   21CHL1    C2 1527   5.344   5.728  10.091  0.5117 -0.7557 -0.0550
   21CHL1   H2A 1528   5.271   5.651  10.125  0.1242 -0.2176  0.3385
   21CHL1   H2B 1529   5.311   5.827  10.128 -0.8310 -1.3939  0.5276
   21CHL1   C20 1530   5.503   5.767   9.170  0.3694 -0.1915 -0.1360
   21CHL1   H20 1531   5.539   5.872   9.161  2.1031 -0.6935  0.3922
   21CHL1   C21 1532   5.349   5.739   9.164  0.0571  0.2284  0.2689
   21CHL1  H21A 1533   5.305   5.753   9.063 -1.0182  0.0140  0.6988
   21CHL1  H21B 1534   5.285   5.811   9.220 -0.2702  0.6658 -0.6362
   21CHL1  H21C 1535   5.332   5.636   9.200 -0.0728  0.3746  0.6319
   21CHL1   C22 1536   5.558   5.695   9.045 -0.4577  0.5136  0.4076
   21CHL1  H22A 1537   5.669   5.692   9.048 -0.4922 -0.0841  1.4691
   21CHL1  H22B 1538   5.540   5.588   9.068  2.2898  0.0484  0.7688
   21CHL1   C23 1539   5.509   5.746   8.906 -0.1450 -0.0400  0.5525
   21CHL1  H23A 1540   5.422   5.679   8.888  1.6158 -2.2382 -0.2158
   21CHL1  H23B 1541   5.471   5.849   8.891 -0.3282 -0.0783  0.7401
   21CHL1   C24 1542   5.610   5.694   8.798  0.2108  0.1381 -0.1927
   21CHL1  H24A 1543   5.710   5.739   8.817 -0.7589  2.1358  0.3609
   21CHL1  H24B 1544   5.629   5.584   8.798  1.2009  0.2376 -2.5891
   21CHL1   C25 1545   5.558   5.739   8.654  0.4920  0.1913 -0.9587
   21CHL1   H25 1546   5.563   5.850   8.653  1.9803  0.1812  0.5537
   21CHL1   C26 1547   5.663   5.699   8.550 -0.6164 -0.0673 -0.4424
   21CHL1  H26A 1548   5.707   5.782   8.492  2.5679  0.0386  1.8504
   21CHL1  H26B 1549   5.722   5.610   8.580 -0.8894 -0.1229 -0.0557
   21CHL1  H26C 1550   5.608   5.659   8.463 -0.7937 -1.1892  0.1596
   21CHL1   C27 1551   5.420   5.683   8.611 -0.1504  0.3563 -0.7829
   21CHL1  H27A 1552   5.420   5.573   8.619 -0.2190  0.4079 -0.0497
   21CHL1  H27B 1553   5.336   5.718   8.676 -0.0085 -1.8188  0.6507
   21CHL1  H27C 1554   5.400   5.724   8.509 -1.5564 -0.9695 -1.0834
   22CHL1    C3 1555   5.277   0.919  10.022 -0.4282  0.1307  0.5087
   22CHL1    H3 1556   5.287   1.027  10.003 -0.5125  0.2041  0.8718
   22CHL1    O3 1557   5.291   0.892  10.153  0.4646 -0.9672 -0.5735
   22CHL1   H3' 1558   5.368   0.940  10.185 -1.8480  1.1392  2.4238
   22CHL1    C4 1559   5.142   0.863   9.972 -0.0755 -0.4240 -0.4171
   22CHL1   H4A 1560   5.131   0.763  10.019 -1.2413 -0.5689 -0.9579
   22CHL1   H4B 1561   5.054   0.914  10.017 -0.7043 -2.1607  0.3999
   22CHL1    C5 1562   5.114   0.860   9.820 -0.6544  0.3915 -0.4442
   22CHL1    C6 1563   5.011   0.923   9.765  0.1760  0.2445  0.1767
   22CHL1    H6 1564   4.934   0.981   9.817  0.4307  1.2434 -0.5383
   22CHL1    C7 1565   4.999   0.934   9.617  0.4105  0.3186 -0.1217
   22CHL1   H7A 1566   4.897   0.928   9.574 -0.2351  1.2311  1.1750
   22CHL1   H7B 1567   5.018   1.035   9.575 -2.7369  0.8739 -0.4535
   22CHL1    C8 1568   5.090   0.836   9.540 -0.2854 -0.1328  0.5700
   22CHL1    H8 1569   5.041   0.736   9.550 -0.2035 -0.2637 -0.2867
   22CHL1   C14 1570   5.093   0.873   9.392  0.4509  0.5148 -0.4010
   22CHL1   H14 1571   5.140   0.974   9.398  1.5941  0.0696 -1.4202
   22CHL1   C15 1572   4.957   0.883   9.322 -0.7460  0.7642  0.1878
   22CHL1  H15A 1573   4.879   0.810   9.355 -0.5096 -0.2635 -1.4376
   22CHL1  H15B 1574   4.925   0.986   9.346 -0.8552  0.4442  1.5182
   22CHL1   C16 1575   4.991   0.866   9.179  0.9391  0.9075 -0.9163
   22CHL1  H16A 1576   4.939   0.778   9.135 -0.0091  2.0241 -2.0851
   22CHL1  H16B 1577   4.953   0.953   9.122 -1.4549  0.6367  0.1704
   22CHL1   C17 1578   5.147   0.851   9.175 -0.0241 -0.4836  0.6517
   22CHL1   H17 1579   5.186   0.955   9.172 -0.4806 -0.2141  2.7221
   22CHL1   C13 1580   5.183   0.784   9.305  0.3728 -0.2702  0.2655
   22CHL1   C18 1581   5.153   0.630   9.301 -0.0631  0.6130  0.1029
   22CHL1  H18A 1582   5.234   0.592   9.236 -2.7706 -2.0348 -1.9908
   22CHL1  H18B 1583   5.157   0.585   9.402 -0.2042  1.9311  0.7209
   22CHL1  H18C 1584   5.052   0.604   9.263 -0.4526  2.1737 -0.0052
   22CHL1   C12 1585   5.330   0.799   9.362  1.1290  0.4060  0.4045
   22CHL1  H12A 1586   5.404   0.736   9.308  0.5423  0.3273 -0.3210
   22CHL1  H12B 1587   5.357   0.906   9.352 -0.4580  0.5964 -3.7119
   22CHL1   C11 1588   5.331   0.763   9.511 -0.4798  0.5441  0.2416
   22CHL1  H11A 1589   5.296   0.658   9.521  1.3775 -0.2429 -0.9665
   22CHL1  H11B 1590   5.434   0.747   9.551 -0.2352 -1.2870 -1.0126
   22CHL1    C9 1591   5.230   0.836   9.595 -0.0724  0.0206  0.4276
   22CHL1    H9 1592   5.277   0.937   9.589 -0.6109  0.3281  1.2770
   22CHL1   C10 1593   5.235   0.787   9.746  0.4493 -0.1696  0.2782
   22CHL1   C19 1594   5.227   0.628   9.771 -1.0396  0.3784  0.1804
   22CHL1  H19A 1595   5.311   0.592   9.709 -1.5040 -1.0141  0.3296
   22CHL1  H19B 1596   5.250   0.601   9.876  1.6450  0.8714 -0.2091
   22CHL1  H19C 1597   5.138   0.587   9.718 -0.2985  0.4368 -1.1708
   22CHL1    C1 1598   5.366   0.845   9.802  0.0500  0.2494 -0.7644
   22CHL1   H1A 1599   5.452   0.790   9.757  1.1495  1.1588  0.1667
   22CHL1   H1B 1600   5.380   0.952   9.774  0.7773  0.3671  0.0146
   22CHL1    C2 1601   5.386   0.843   9.950 -0.6276 -0.3363 -0.2788
   22CHL1   H2A 1602   5.483   0.884   9.984 -1.6418  1.4705  0.6010
   22CHL1   H2B 1603   5.381   0.742   9.995 -0.0429  1.1464  3.4697
   22CHL1   C20 1604   5.194   0.788   9.046  0.1725 -1.0712  0.5220
   22CHL1   H20 1605   5.176   0.679   9.062 -0.0337 -1.0465  0.4589
   22CHL1   C21 1606   5.341   0.830   9.039  0.1340  0.0777  0.0871
   22CHL1  H21A 1607   5.403   0.814   9.130  0.4941  3.3081  0.5388
   22CHL1  H21B 1608   5.332   0.940   9.022 -0.8033  0.1223  0.7898
   22CHL1  H21C 1609   5.395   0.781   8.955 -0.2104  0.7535 -0.5355
   22CHL1   C22 1610   5.122   0.825   8.918  0.4910 -0.3649  0.0872
   22CHL1  H22A 1611   5.159   0.768   8.830  0.8978  0.6684 -0.4335
   22CHL1  H22B 1612   5.017   0.793   8.932  0.3147  0.6109  1.1660
   22CHL1   C23 1613   5.120   0.974   8.872  0.2306  0.1216 -0.6435
   22CHL1  H23A 1614   5.067   1.039   8.945  2.1577  1.5643 -0.4395
   22CHL1  H23B 1615   5.224   1.008   8.853  0.6223 -1.9487 -2.6712
   22CHL1   C24 1616   5.045   0.997   8.735 -0.4704 -0.1128 -0.0713
   22CHL1  H24A 1617   5.110   0.957   8.655  0.3932  0.5660  0.2763
   22CHL1  H24B 1618   4.959   0.927   8.740  0.9305 -1.9150 -0.6023
   22CHL1   C25 1619   5.002   1.149   8.708  0.2966  0.5408 -0.0625
   22CHL1   H25 1620   4.917   1.176   8.776  0.5355 -0.3951  0.6320
   22CHL1   C26 1621   5.131   1.233   8.726 -0.2526  0.4552 -0.0625
   22CHL1  H26A 1622   5.216   1.186   8.672  0.9563 -0.4344  2.4636
   22CHL1  H26B 1623   5.115   1.335   8.685 -0.1242 -0.1564 -1.7041
   22CHL1  H26C 1624   5.169   1.240   8.830  0.6475  0.5605 -0.3874
   22CHL1   C27 1625   4.951   1.151   8.569  0.4352  0.7211  0.9442
   22CHL1  H27A 1626   4.983   1.244   8.517 -0.6306  0.8033  0.4010
   22CHL1  H27B 1627   4.991   1.073   8.501 -0.0515  2.2470 -1.1891
   22CHL1  H27C 1628   4.840   1.153   8.575  0.2630 -1.1434 -0.5481
   23CHL1    C3 1629   2.314   0.564  10.299 -0.1201 -0.0812  0.1652
   23CHL1    H3 1630   2.297   0.671  10.278 -2.2760 -0.4918 -0.4378
   23CHL1    O3 1631   2.324   0.539  10.440  0.1462 -0.1569 -0.6731
   23CHL1   H3' 1632   2.255   0.584  10.489  0.7176  2.0879 -1.8174
   23CHL1    C4 1633   2.199   0.486  10.230 -0.5042  0.3517 -0.0422
   23CHL1   H4A 1634   2.218   0.381  10.260 -0.4640  0.6098  0.8650
   23CHL1   H4B 1635   2.108   0.520  10.285 -1.6304 -0.9661 -1.0112
   23CHL1    C5 1636   2.182   0.490  10.079  0.1593 -0.1278 -0.1445
   23CHL1    C6 1637   2.061   0.519  10.023  0.9550  0.1318 -0.1698
   23CHL1    H6 1638   1.975   0.527  10.091  0.0599  0.3583 -1.2898
   23CHL1    C7 1639   2.034   0.534   9.879  0.0620 -0.5572 -0.1519
   23CHL1   H7A 1640   1.938   0.490   9.846  0.3743 -1.6833  0.4005
   23CHL1   H7B 1641   2.013   0.640   9.850 -0.8909 -1.0868 -1.4794
   23CHL1    C8 1642   2.158   0.510   9.786 -0.1920  0.4838  0.5353
   23CHL1    H8 1643   2.166   0.399   9.775 -0.0601  0.5906 -0.6238
   23CHL1   C14 1644   2.148   0.579   9.647 -0.6504 -0.4959  0.0109
   23CHL1   H14 1645   2.153   0.687   9.672 -2.0540 -0.5751  0.6870
   23CHL1   C15 1646   2.022   0.560   9.549 -0.4992 -0.0235 -0.6429
   23CHL1  H15A 1647   1.984   0.456   9.549 -1.3415  0.2681 -0.4798
   23CHL1  H15B 1648   1.941   0.629   9.583  2.1922  2.8474  0.5126
   23CHL1   C16 1649   2.075   0.616   9.415 -0.2333  0.9177 -0.2121
   23CHL1  H16A 1650   2.046   0.545   9.335 -0.7664  1.6701 -0.7078
   23CHL1  H16B 1651   2.010   0.701   9.386 -0.4143  0.0166 -2.6399
   23CHL1   C17 1652   2.224   0.645   9.429 -1.0242  0.0473 -0.1063
   23CHL1   H17 1653   2.234   0.751   9.462  0.9612 -0.2075  0.1928
   23CHL1   C13 1654   2.273   0.562   9.555  0.4695  0.4507 -0.4178
   23CHL1   C18 1655   2.298   0.414   9.515 -0.3597  0.2838  0.5411
   23CHL1  H18A 1656   2.229   0.391   9.431  0.2555  2.2106 -0.5497
   23CHL1  H18B 1657   2.401   0.401   9.474 -0.8203  2.6822 -1.6400
   23CHL1  H18C 1658   2.286   0.340   9.597  0.4905 -1.7392 -1.0732
   23CHL1   C12 1659   2.396   0.624   9.627 -0.6157  0.5028  0.0838
   23CHL1  H12A 1660   2.489   0.630   9.568 -2.2225  0.8729 -2.5700
   23CHL1  H12B 1661   2.360   0.727   9.650 -1.0126  0.4634 -0.3483
   23CHL1   C11 1662   2.424   0.559   9.768  0.7041  0.4828 -0.8718
   23CHL1  H11A 1663   2.458   0.454   9.761 -2.9308 -0.7644 -2.2085
   23CHL1  H11B 1664   2.504   0.618   9.818  2.2941 -1.9868 -0.3134
   23CHL1    C9 1665   2.290   0.558   9.857 -0.1428  0.0535 -0.3506
   23CHL1    H9 1666   2.280   0.667   9.874  2.7412  0.4682 -0.8734
   23CHL1   C10 1667   2.315   0.486   9.995 -0.1868 -0.0691  0.2156
   23CHL1   C19 1668   2.371   0.343   9.971  0.0872 -0.2825 -0.3135
   23CHL1  H19A 1669   2.376   0.277  10.060  1.7719 -1.1622 -1.0026
   23CHL1  H19B 1670   2.314   0.299   9.887  0.0359 -0.9249  0.0511
   23CHL1  H19C 1671   2.476   0.345   9.933  0.6015  0.4871  1.0850
   23CHL1    C1 1672   2.429   0.559  10.072 -0.3277  0.4355 -0.3049
   23CHL1   H1A 1673   2.533   0.554  10.034 -0.2872 -0.7807 -0.0603
   23CHL1   H1B 1674   2.403   0.666  10.059 -2.7047 -0.0756 -0.0689
   23CHL1    C2 1675   2.443   0.530  10.226 -0.7209  0.1771  0.0582
   23CHL1   H2A 1676   2.527   0.592  10.264 -0.2289  1.2703 -2.5910
   23CHL1   H2B 1677   2.466   0.421  10.231  0.4131  0.4134  0.3152
   23CHL1   C20 1678   2.299   0.631   9.293  1.0253  0.4355  0.3041
   23CHL1   H20 1679   2.289   0.527   9.256  0.0066  1.4476 -2.5467
   23CHL1   C21 1680   2.449   0.665   9.299  0.0649 -0.4865 -0.3725
   23CHL1  H21A 1681   2.499   0.587   9.361 -0.6405  0.4514  1.4468
   23CHL1  H21B 1682   2.458   0.762   9.353 -1.2736 -0.7848  0.4328
   23CHL1  H21C 1683   2.486   0.669   9.194  0.4459  1.9040 -0.1926
   23CHL1   C22 1684   2.229   0.716   9.181 -0.5717  0.1676 -0.4092
   23CHL1  H22A 1685   2.119   0.708   9.194 -0.4253  0.6154  1.2341
   23CHL1  H22B 1686   2.257   0.823   9.195  2.1603 -0.6774  1.4631
   23CHL1   C23 1687   2.277   0.664   9.043 -0.2742 -0.2033 -0.5428
   23CHL1  H23A 1688   2.377   0.701   9.012 -0.7617  0.3839 -1.4722
   23CHL1  H23B 1689   2.271   0.553   9.050 -1.5157 -0.1338 -0.2317
   23CHL1   C24 1690   2.178   0.707   8.925  0.0874  0.0891  0.2113
   23CHL1  H24A 1691   2.074   0.675   8.945 -0.1465  0.0327 -1.0173
   23CHL1  H24B 1692   2.181   0.818   8.924 -2.3920  0.2559  1.8364
   23CHL1   C25 1693   2.215   0.639   8.791  0.1784  0.3462  0.4572
   23CHL1   H25 1694   2.324   0.643   8.768  0.0762 -1.1776 -0.4216
   23CHL1   C26 1695   2.170   0.493   8.788 -0.5148 -0.2473 -0.5808
   23CHL1  H26A 1696   2.195   0.447   8.690  0.0408  0.3492 -0.7286
   23CHL1  H26B 1697   2.218   0.423   8.859 -0.9634 -0.2902 -0.3105
   23CHL1  H26C 1698   2.061   0.479   8.809 -0.6646 -0.4787 -1.4524
   23CHL1   C27 1699   2.145   0.710   8.674 -0.0837 -0.2592 -0.0506
   23CHL1  H27A 1700   2.186   0.813   8.661 -1.3791  0.2406 -0.3760
   23CHL1  H27B 1701   2.164   0.651   8.582 -3.0249 -3.6435  1.2707
   23CHL1  H27C 1702   2.035   0.711   8.694 -0.1429  0.8124 -0.3780
   24CHL1    C3 1703   3.588   2.857  10.279  0.9330  0.5413 -0.8369
   24CHL1    H3 1704   3.526   2.772  10.242 -0.6261  0.6031  1.4426
   24CHL1    O3 1705   3.596   2.854  10.421  0.1797 -0.0318 -0.0534
   24CHL1   H3' 1706   3.514   2.818  10.454 -0.8617  0.9085 -1.4820
   24CHL1    C4 1707   3.732   2.872  10.227  0.6910 -0.2654  0.7311
   24CHL1   H4A 1708   3.778   2.961  10.274  1.7059  0.3494 -1.3493
   24CHL1   H4B 1709   3.793   2.783  10.252 -2.2079 -2.8986 -0.8706
   24CHL1    C5 1710   3.723   2.879  10.074  0.3162  0.2813  0.8328
   24CHL1    C6 1711   3.783   2.779  10.009 -0.1932  0.1852 -0.5104
   24CHL1    H6 1712   3.847   2.710  10.066  1.0471  0.3914 -1.5851
   24CHL1    C7 1713   3.778   2.759   9.859 -0.5027 -0.7395  0.2603
   24CHL1   H7A 1714   3.882   2.747   9.824 -0.3614 -0.2922  0.5226
   24CHL1   H7B 1715   3.716   2.670   9.835 -0.8031 -1.3543  2.9927
   24CHL1    C8 1716   3.734   2.892   9.781  0.1062 -0.0505 -0.7025
   24CHL1    H8 1717   3.822   2.960   9.792 -0.4139  0.6803 -1.0006
   24CHL1   C14 1718   3.698   2.866   9.640  0.3855  0.2148  0.4561
   24CHL1   H14 1719   3.616   2.791   9.643  1.9092 -1.5069  2.0218
   24CHL1   C15 1720   3.803   2.794   9.557  0.6876  0.7305  0.9539
   24CHL1  H15A 1721   3.903   2.836   9.583 -0.5965  2.6963  3.0489
   24CHL1  H15B 1722   3.797   2.685   9.582 -0.0202 -0.0630 -2.2300
   24CHL1   C16 1723   3.769   2.838   9.412 -0.4350 -0.2867  0.5524
   24CHL1  H16A 1724   3.852   2.900   9.373 -0.6594  0.3501  1.0805
   24CHL1  H16B 1725   3.766   2.754   9.338 -1.9788 -0.0216  0.2764
   24CHL1   C17 1726   3.638   2.924   9.421 -0.6744  0.2677 -0.2592
   24CHL1   H17 1727   3.551   2.855   9.427  1.8993 -3.3200 -0.9707
   24CHL1   C13 1728   3.644   2.984   9.558  0.1718 -0.8052 -0.8501
   24CHL1   C18 1729   3.743   3.106   9.565 -0.1469 -0.3923  0.3086
   24CHL1  H18A 1730   3.833   3.083   9.504 -0.0881 -1.3322  0.7269
   24CHL1  H18B 1731   3.689   3.192   9.520 -1.3866 -1.3539 -0.0986
   24CHL1  H18C 1732   3.777   3.125   9.669  3.0127  0.7629 -0.8039
   24CHL1   C12 1733   3.509   3.027   9.623 -0.5493  0.1794 -0.1385
   24CHL1  H12A 1734   3.459   3.121   9.589  1.5977  0.8011 -1.8320
   24CHL1  H12B 1735   3.435   2.945   9.610  1.1097 -1.3025 -0.5590
   24CHL1   C11 1736   3.523   3.058   9.776 -0.1691  0.4892  0.0319
   24CHL1  H11A 1737   3.590   3.145   9.791  0.0774  0.3341 -0.1610
   24CHL1  H11B 1738   3.426   3.076   9.828  0.5332  0.6510  1.3184
   24CHL1    C9 1739   3.608   2.948   9.851  0.2783  0.5720 -0.4708
   24CHL1    H9 1740   3.539   2.863   9.869  1.3582 -0.2128  0.1004
   24CHL1   C10 1741   3.633   2.985  10.008 -0.3297  0.4464  0.6063
   24CHL1   C19 1742   3.709   3.118  10.015 -0.7370 -0.0034  0.2037
   24CHL1  H19A 1743   3.727   3.131  10.124 -0.0648  1.4364 -0.0520
   24CHL1  H19B 1744   3.806   3.119   9.961 -0.3047 -0.2227  0.9707
   24CHL1  H19C 1745   3.644   3.205   9.990  1.1329  1.4224  0.1156
   24CHL1    C1 1746   3.500   2.993  10.084 -0.0395  0.1705  0.1766
   24CHL1   H1A 1747   3.450   3.088  10.057  1.1063  1.2955  1.8234
   24CHL1   H1B 1748   3.450   2.905  10.038 -2.6711  2.1243 -0.9246
   24CHL1    C2 1749   3.507   2.986  10.239  0.1434 -0.6998 -0.3981
   24CHL1   H2A 1750   3.403   2.980  10.278  0.3829 -0.1471  0.3662
   24CHL1   H2B 1751   3.564   3.077  10.269 -0.1285 -0.7575  0.3115
   24CHL1   C20 1752   3.614   3.015   9.296 -0.0799  0.0108 -0.2093
   24CHL1   H20 1753   3.689   3.097   9.290 -0.9188  0.6945 -2.0954
   24CHL1   C21 1754   3.479   3.075   9.315  0.4088 -0.2114  0.1145
   24CHL1  H21A 1755   3.403   3.013   9.367 -0.5857  1.0235  0.1959
   24CHL1  H21B 1756   3.442   3.112   9.217 -1.9516 -0.3698  0.8685
   24CHL1  H21C 1757   3.484   3.174   9.367 -1.3644  0.0848 -0.2178
   24CHL1   C22 1758   3.627   2.942   9.160  0.0350 -0.2542 -0.1937
   24CHL1  H22A 1759   3.715   2.876   9.144  0.0868  0.1605 -1.7795
   24CHL1  H22B 1760   3.544   2.869   9.158 -0.8535  0.7167  0.2358
   24CHL1   C23 1761   3.613   3.034   9.041 -0.6392 -0.3705 -1.5520
   24CHL1  H23A 1762   3.512   3.079   9.031 -0.2149  0.8147 -0.7301
   24CHL1  H23B 1763   3.691   3.113   9.044 -0.4121 -0.6338  0.5847
   24CHL1   C24 1764   3.619   2.946   8.913  0.2060 -0.4722  0.4288
   24CHL1  H24A 1765   3.714   2.889   8.904  2.9652  3.6568  0.2389
   24CHL1  H24B 1766   3.529   2.882   8.920 -0.7838  0.9884  1.6114
   24CHL1   C25 1767   3.610   3.027   8.780  0.4208  0.2145 -0.2627
   24CHL1   H25 1768   3.557   3.122   8.801  1.4152  1.1166 -1.6647
   24CHL1   C26 1769   3.755   3.069   8.736  0.7178 -0.0040 -0.0275
   24CHL1  H26A 1770   3.757   3.139   8.650  2.7751 -0.8735 -0.7586
   24CHL1  H26B 1771   3.801   3.113   8.827 -2.5499  2.3634  0.6711
   24CHL1  H26C 1772   3.806   2.971   8.722 -2.1211 -1.6098  0.1587
   24CHL1   C27 1773   3.546   2.944   8.667 -0.1617  0.7989  0.8836
   24CHL1  H27A 1774   3.444   2.907   8.690  0.0531 -0.8174 -0.5800
   24CHL1  H27B 1775   3.547   3.009   8.577  0.6769  0.1990  0.4553
   24CHL1  H27C 1776   3.614   2.858   8.652 -3.8074 -2.3611  1.0405
   25CHL1    C3 1777   5.206   4.208  10.464  0.0415 -0.4559  0.2396
   25CHL1    H3 1778   5.248   4.301  10.508  2.2648 -2.0290  1.6495
   25CHL1    O3 1779   5.163   4.120  10.565 -0.0158 -0.7895  0.2603
   25CHL1   H3' 1780   5.071   4.149  10.566  0.5312  1.0598  0.5573
   25CHL1    C4 1781   5.076   4.248  10.386  0.2356 -0.0729 -0.1027
   25CHL1   H4A 1782   5.010   4.159  10.382  1.1571 -0.9462  2.2654
   25CHL1   H4B 1783   5.017   4.316  10.452 -2.1252  1.1338 -3.1796
   25CHL1    C5 1784   5.095   4.303  10.246  0.6994  0.8129 -0.1432
   25CHL1    C6 1785   5.023   4.408  10.215  0.2113 -0.2850  0.1975
   25CHL1    H6 1786   4.948   4.449  10.284  0.5194  1.5097 -0.4756
   25CHL1    C7 1787   5.040   4.469  10.075 -0.6561 -0.2590  0.4084
   25CHL1   H7A 1788   4.947   4.518  10.037 -1.3063 -2.0427 -0.4032
   25CHL1   H7B 1789   5.118   4.549  10.080  1.6871 -2.2436 -1.7817
   25CHL1    C8 1790   5.092   4.366   9.967  0.9360 -0.9727 -0.7958
   25CHL1    H8 1791   5.007   4.297   9.948 -0.0498  0.0351 -0.1190
   25CHL1   C14 1792   5.126   4.438   9.837  0.5613  0.1966 -0.3431
   25CHL1   H14 1793   5.216   4.495   9.869  0.0699  0.2862  0.9492
   25CHL1   C15 1794   5.031   4.551   9.791 -0.5026 -0.4443  0.4245
   25CHL1  H15A 1795   4.925   4.518   9.784 -1.3832  2.3595 -0.8642
   25CHL1  H15B 1796   5.031   4.641   9.855 -0.6481 -0.1441  0.0086
   25CHL1   C16 1797   5.089   4.576   9.651 -0.9965 -0.2375  0.1675
   25CHL1  H16A 1798   5.010   4.554   9.575 -1.2901  0.9204  0.1240
   25CHL1  H16B 1799   5.116   4.683   9.641  0.8325 -0.6367  0.3848
   25CHL1   C17 1800   5.202   4.459   9.622  0.1871  0.1724 -0.4076
   25CHL1   H17 1801   5.300   4.508   9.641 -0.5469  1.7426 -0.4900
   25CHL1   C13 1802   5.179   4.347   9.725 -0.5468  0.0040  0.0955
   25CHL1   C18 1803   5.064   4.264   9.668  0.2862  0.0279 -0.5469
   25CHL1  H18A 1804   5.099   4.192   9.591  0.3080  0.2110 -0.7085
   25CHL1  H18B 1805   5.011   4.200   9.742 -0.9703  0.6212 -0.9026
   25CHL1  H18C 1806   4.978   4.326   9.635 -0.6095 -0.1929  1.2769
   25CHL1   C12 1807   5.312   4.277   9.777 -0.1026 -0.3635 -0.5939
   25CHL1  H12A 1808   5.334   4.198   9.702 -2.0180 -1.3709 -0.1566
   25CHL1  H12B 1809   5.391   4.355   9.781 -0.1297 -0.3100 -1.0522
   25CHL1   C11 1810   5.281   4.205   9.902  0.9276  0.4814 -0.7212
   25CHL1  H11A 1811   5.197   4.133   9.887 -0.2756  1.8628 -0.8028
   25CHL1  H11B 1812   5.376   4.161   9.938  0.5069 -0.1564 -0.3716
   25CHL1    C9 1813   5.216   4.293  10.016  0.3504 -0.2961 -0.3771
   25CHL1    H9 1814   5.296   4.366  10.037  0.7249 -0.7646 -0.1514
   25CHL1   C10 1815   5.197   4.228  10.158  0.1756 -0.0754 -0.0865
   25CHL1   C19 1816   5.134   4.090  10.137 -0.6898  0.1994  0.3564
   25CHL1  H19A 1817   5.207   4.021  10.088 -0.5433  0.6942 -0.1338
   25CHL1  H19B 1818   5.109   4.048  10.237  0.6590  0.5292  0.8453
   25CHL1  H19C 1819   5.052   4.092  10.061  1.0553 -2.1188 -1.7942
   25CHL1    C1 1820   5.325   4.232  10.241  0.2498  0.0197 -0.4597
   25CHL1   H1A 1821   5.399   4.187  10.172 -0.3758 -1.0985 -0.4078
   25CHL1   H1B 1822   5.358   4.338  10.255  1.1523 -0.3914  0.7215
   25CHL1    C2 1823   5.315   4.152  10.372  0.5282 -0.3570  0.5782
   25CHL1   H2A 1824   5.411   4.144  10.428  0.3697  2.6213  1.4579
   25CHL1   H2B 1825   5.280   4.053  10.335 -0.8699  0.7855 -1.3312
   25CHL1   C20 1826   5.217   4.420   9.472  0.3531 -0.5593 -0.3164
   25CHL1   H20 1827   5.121   4.387   9.426 -0.6872  3.2635 -1.2566
   25CHL1   C21 1828   5.321   4.307   9.454  0.6405 -0.0339  0.8807
   25CHL1  H21A 1829   5.287   4.204   9.480  2.8540 -0.8151  0.8802
   25CHL1  H21B 1830   5.410   4.332   9.515  1.1884  0.4597 -0.0894
   25CHL1  H21C 1831   5.351   4.302   9.347  3.2584 -0.1309  1.5492
   25CHL1   C22 1832   5.256   4.546   9.387 -0.2900 -0.0413 -0.1632
   25CHL1  H22A 1833   5.222   4.638   9.439  0.3599 -0.3773  0.8996
   25CHL1  H22B 1834   5.366   4.552   9.369 -0.4481 -1.0724 -1.6448
   25CHL1   C23 1835   5.200   4.535   9.243 -0.8134  0.5237  0.0772
   25CHL1  H23A 1836   5.231   4.435   9.205  0.8936  1.4253 -0.9981
   25CHL1  H23B 1837   5.089   4.534   9.252 -0.7851  0.2993  0.4335
   25CHL1   C24 1838   5.249   4.639   9.154 -0.1857 -0.2602  0.7066
   25CHL1  H24A 1839   5.207   4.734   9.192  0.1893  0.2376 -0.0832
   25CHL1  H24B 1840   5.359   4.644   9.166 -0.4345  0.1291  3.2241
   25CHL1   C25 1841   5.216   4.614   9.002  0.3277 -0.4027 -0.7534
   25CHL1   H25 1842   5.112   4.575   8.994 -0.6949  1.0473  3.1197
   25CHL1   C26 1843   5.225   4.751   8.941  0.0423 -0.1566  1.2421
   25CHL1  H26A 1844   5.314   4.803   8.982  2.2122 -2.5533 -0.0949
   25CHL1  H26B 1845   5.255   4.754   8.834 -0.7563  3.7852  0.9996
   25CHL1  H26C 1846   5.131   4.803   8.967  0.4041  0.0343  2.2119
   25CHL1   C27 1847   5.319   4.521   8.934 -0.0225  0.4068 -0.5125
   25CHL1  H27A 1848   5.422   4.564   8.936  2.7680 -5.2712 -1.4167
   25CHL1  H27B 1849   5.344   4.425   8.983  1.3441 -0.1328 -2.1566
   25CHL1  H27C 1850   5.281   4.496   8.833 -1.7868 -1.6928  0.5925
   26CHL1    C3 1851   5.445   6.570  10.254  0.9821 -0.4992 -0.4534
   26CHL1    H3 1852   5.429   6.678  10.236 -1.1195 -0.0967  2.8781
   26CHL1    O3 1853   5.466   6.556  10.392 -0.1134 -0.1535 -1.0754
   26CHL1   H3' 1854   5.506   6.471  10.410  0.9585  0.5274 -0.1162
   26CHL1    C4 1855   5.314   6.497  10.220 -0.0284  0.2730 -0.2557
   26CHL1   H4A 1856   5.309   6.397  10.268  0.1375  0.3315 -0.1126
   26CHL1   H4B 1857   5.238   6.566  10.264 -1.4547 -1.3462 -0.0521
   26CHL1    C5 1858   5.290   6.501  10.067  0.0060 -0.0003  0.4117
   26CHL1    C6 1859   5.174   6.522  10.011  0.7869  1.0097  0.5657
   26CHL1    H6 1860   5.091   6.542  10.079  0.3216  0.1403  0.2703
   26CHL1    C7 1861   5.143   6.499   9.864  0.2693  0.2253 -0.0149
   26CHL1   H7A 1862   5.042   6.455   9.849  0.4289  0.9491 -5.0139
   26CHL1   H7B 1863   5.141   6.592   9.803 -1.2524 -0.6294 -1.3669
   26CHL1    C8 1864   5.257   6.419   9.790  0.2667 -0.2487 -0.1582
   26CHL1    H8 1865   5.270   6.312   9.820  5.8007  0.4104  0.9099
   26CHL1   C14 1866   5.245   6.432   9.644  0.1307 -0.2551 -0.2319
   26CHL1   H14 1867   5.255   6.538   9.611 -0.2338  0.0380  0.5855
   26CHL1   C15 1868   5.107   6.404   9.582  0.4573 -0.1162  0.1472
   26CHL1  H15A 1869   5.069   6.309   9.625  0.6023 -0.4538 -0.4662
   26CHL1  H15B 1870   5.027   6.481   9.582 -0.1556 -0.7180 -1.2466
   26CHL1   C16 1871   5.139   6.379   9.435 -0.7202 -1.6104  0.1926
   26CHL1  H16A 1872   5.094   6.280   9.413 -0.4916 -1.5943 -0.3753
   26CHL1  H16B 1873   5.099   6.464   9.376  0.7653 -0.6223  0.5343
   26CHL1   C17 1874   5.294   6.377   9.417 -0.3701 -0.3935  0.2067
   26CHL1   H17 1875   5.326   6.480   9.391 -2.5685  0.0889 -0.8022
   26CHL1   C13 1876   5.348   6.354   9.560 -0.1096  0.3831  0.0035
   26CHL1   C18 1877   5.341   6.201   9.576 -0.1272  0.4730 -0.5883
   26CHL1  H18A 1878   5.242   6.159   9.547 -1.5717  4.3585 -1.8789
   26CHL1  H18B 1879   5.425   6.153   9.521  0.1186 -0.4874  0.5638
   26CHL1  H18C 1880   5.374   6.169   9.677 -0.5130  1.4575 -0.1477
   26CHL1   C12 1881   5.490   6.416   9.589 -0.7316  0.0009  1.0330
   26CHL1  H12A 1882   5.566   6.351   9.543  0.3259  1.2254  0.9950
   26CHL1  H12B 1883   5.495   6.519   9.547 -1.3234  1.2464  3.7929
   26CHL1   C11 1884   5.514   6.409   9.742 -0.2803  0.5701  0.1979
   26CHL1  H11A 1885   5.534   6.304   9.769 -0.0567  0.9486  1.5766
   26CHL1  H11B 1886   5.599   6.479   9.763  1.1464 -1.2561  0.8259
   26CHL1    C9 1887   5.395   6.466   9.833  0.3877  0.6666 -0.5665
   26CHL1    H9 1888   5.390   6.573   9.801 -0.2013 -0.1511 -3.5602
   26CHL1   C10 1889   5.414   6.452   9.987  0.4500 -0.6144 -0.0101
   26CHL1   C19 1890   5.442   6.299  10.014  0.5138  0.1588 -0.0296
   26CHL1  H19A 1891   5.396   6.231   9.939 -0.7559  0.3403  0.5594
   26CHL1  H19B 1892   5.551   6.280  10.021  0.3489 -1.3776 -1.0474
   26CHL1  H19C 1893   5.396   6.273  10.111 -0.0525  1.4895  0.0831
   26CHL1    C1 1894   5.533   6.537  10.033 -0.3137  0.9589 -0.6572
   26CHL1   H1A 1895   5.618   6.500   9.971 -1.4911 -3.6940  0.1162
   26CHL1   H1B 1896   5.514   6.642  10.003 -1.9342  1.0058  0.3904
   26CHL1    C2 1897   5.561   6.525  10.182 -0.7833  0.5701  0.4614
   26CHL1   H2A 1898   5.650   6.590  10.197 -0.5859  0.7022 -1.0593
   26CHL1   H2B 1899   5.599   6.422  10.198  0.3086  0.7168 -0.9826
   26CHL1   C20 1900   5.341   6.278   9.309 -0.3617  0.5459 -0.1304
   26CHL1   H20 1901   5.327   6.169   9.325  1.8121  0.4559  1.6291
   26CHL1   C21 1902   5.494   6.279   9.285 -0.6225 -0.6981 -0.4319
   26CHL1  H21A 1903   5.548   6.226   9.366 -0.9589 -1.0849 -0.4514
   26CHL1  H21B 1904   5.533   6.382   9.269 -2.2611  0.2853  1.4918
   26CHL1  H21C 1905   5.530   6.231   9.191 -0.4591 -0.4418 -0.5012
   26CHL1   C22 1906   5.260   6.303   9.172  0.2697 -0.5852 -0.5794
   26CHL1  H22A 1907   5.160   6.261   9.192  1.3741 -2.3455  1.6991
   26CHL1  H22B 1908   5.244   6.411   9.151  2.6806 -0.2505 -1.0778
   26CHL1   C23 1909   5.304   6.249   9.041  0.1837  0.5903  0.2831
   26CHL1  H23A 1910   5.398   6.291   8.998  0.6984 -0.3807  0.4218
   26CHL1  H23B 1911   5.326   6.142   9.059  1.4253  0.6772 -0.5614
   26CHL1   C24 1912   5.198   6.263   8.927  0.4466 -0.2336  0.5689
   26CHL1  H24A 1913   5.102   6.216   8.957 -0.4307 -1.1916 -3.1595
   26CHL1  H24B 1914   5.169   6.369   8.909  3.0394  0.7791  1.8722
   26CHL1   C25 1915   5.240   6.189   8.802 -0.7277 -0.2314  0.1145
   26CHL1   H25 1916   5.336   6.231   8.764 -0.7645  0.7961  1.1200
   26CHL1   C26 1917   5.255   6.035   8.817 -0.2859  0.3587 -0.6069
   26CHL1  H26A 1918   5.348   6.017   8.875 -0.7928 -2.0943 -0.4582
   26CHL1  H26B 1919   5.179   6.009   8.894 -0.4737  3.3493  0.3458
   26CHL1  H26C 1920   5.252   5.974   8.724  0.4520 -3.0009  1.4298
   26CHL1   C27 1921   5.132   6.212   8.687  0.1701 -0.5360  0.3644
   26CHL1  H27A 1922   5.030   6.184   8.723 -0.6102  0.9979 -0.5365
   26CHL1  H27B 1923   5.124   6.316   8.647  0.4389 -1.5538 -2.5266
   26CHL1  H27C 1924   5.158   6.146   8.602  0.3086 -0.1710  0.1237
   27CHL1    C3 1925   5.588   3.649  10.279 -0.7250 -0.2090  0.9434
   27CHL1    H3 1926   5.688   3.605  10.255 -0.8934 -0.5035  0.7840
   27CHL1    O3 1927   5.560   3.624  10.416 -0.0063 -0.0975 -0.2796
   27CHL1   H3' 1928   5.487   3.686  10.426 -1.5649 -1.6281 -1.6489
   27CHL1    C4 1929   5.586   3.796  10.242 -0.2894  0.0126  0.6655
   27CHL1   H4A 1930   5.490   3.832  10.286  0.7142  0.8422  2.2640
   27CHL1   H4B 1931   5.659   3.845  10.310  1.2030 -0.5551 -0.4801
   27CHL1    C5 1932   5.603   3.823  10.099  0.1297 -0.4349 -0.5850
   27CHL1    C6 1933   5.706   3.905  10.059 -0.3466 -0.6211  0.5668
   27CHL1    H6 1934   5.773   3.953  10.133  0.5495 -1.8322  0.5654
   27CHL1    C7 1935   5.736   3.936   9.915  0.8688 -0.4076  0.8654
   27CHL1   H7A 1936   5.774   4.038   9.895  1.5090 -0.6409  0.8836
   27CHL1   H7B 1937   5.823   3.878   9.879  0.9199  0.5045 -0.5470
   27CHL1    C8 1938   5.608   3.906   9.823 -0.0109 -0.3352 -0.1459
   27CHL1    H8 1939   5.527   3.980   9.845 -0.1008 -0.4524 -0.0842
   27CHL1   C14 1940   5.657   3.912   9.678 -0.1868  0.4013  0.1521
   27CHL1   H14 1941   5.745   3.844   9.676  0.5343  1.3390 -0.6977
   27CHL1   C15 1942   5.728   4.038   9.624  0.1520 -0.1727  0.0007
   27CHL1  H15A 1943   5.656   4.123   9.622  0.0304 -0.2821 -1.3982
   27CHL1  H15B 1944   5.820   4.063   9.681  1.7139 -1.3282 -1.8708
   27CHL1   C16 1945   5.748   3.995   9.476 -0.2879 -0.8105 -0.2310
   27CHL1  H16A 1946   5.736   4.085   9.411 -0.5678 -0.9144 -0.3260
   27CHL1  H16B 1947   5.850   3.953   9.462 -0.3298 -0.8978 -0.2751
   27CHL1   C17 1948   5.651   3.879   9.446  0.2744  0.1654  0.0405
   27CHL1   H17 1949   5.709   3.785   9.433  2.6088  1.1463  2.4364
   27CHL1   C13 1950   5.562   3.862   9.568 -0.1651 -0.4522 -0.1053
   27CHL1   C18 1951   5.443   3.963   9.562 -0.6167  0.6115 -0.3614
   27CHL1  H18A 1952   5.392   3.956   9.660 -0.2574  1.5140 -0.0952
   27CHL1  H18B 1953   5.477   4.069   9.562  0.3510  0.3153 -0.7835
   27CHL1  H18C 1954   5.356   3.939   9.498 -6.0733  1.9833  5.5326
   27CHL1   C12 1955   5.526   3.711   9.606  0.8374  0.1033 -0.3968
   27CHL1  H12A 1956   5.450   3.665   9.540  0.7421  0.7053 -0.7169
   27CHL1  H12B 1957   5.611   3.640   9.600 -1.7564 -3.1970 -0.5929
   27CHL1   C11 1958   5.472   3.703   9.754 -0.3238 -0.1274  0.2845
   27CHL1  H11A 1959   5.379   3.762   9.757  0.8190  1.7411  2.3539
   27CHL1  H11B 1960   5.451   3.600   9.792 -3.5371  0.3570  0.0719
   27CHL1    C9 1961   5.565   3.766   9.858  0.0552  0.2977 -0.7746
   27CHL1    H9 1962   5.655   3.702   9.862 -1.3267 -1.6877  0.9131
   27CHL1   C10 1963   5.515   3.748  10.004  0.5579 -0.0546 -0.1897
   27CHL1   C19 1964   5.372   3.808  10.017  0.5251  0.4491  0.2123
   27CHL1  H19A 1965   5.290   3.781   9.948 -0.0559  2.8884 -0.1457
   27CHL1  H19B 1966   5.323   3.805  10.116  1.7207  0.8490  0.8379
   27CHL1  H19C 1967   5.390   3.916   9.997 -0.1152  0.5605  0.2328
   27CHL1    C1 1968   5.511   3.597  10.044  0.3360 -0.4255 -0.3939
   27CHL1   H1A 1969   5.434   3.541   9.987 -0.4440 -1.6557  1.7562
   27CHL1   H1B 1970   5.611   3.555  10.019  0.0577 -0.9589 -0.6069
   27CHL1    C2 1971   5.490   3.568  10.190 -0.4658  0.4416 -0.1389
   27CHL1   H2A 1972   5.505   3.458  10.200 -0.0955  0.6292  1.7127
   27CHL1   H2B 1973   5.387   3.592  10.224  0.8906  3.6151  2.2129
   27CHL1   C20 1974   5.568   3.909   9.313  0.0395  0.0791 -0.0029
   27CHL1   H20 1975   5.504   4.000   9.320 -0.9724 -0.3873 -2.4321
   27CHL1   C21 1976   5.483   3.777   9.288 -0.6737 -0.2370  0.4939
   27CHL1  H21A 1977   5.453   3.775   9.181  2.6597 -0.1656 -0.5624
   27CHL1  H21B 1978   5.390   3.768   9.348 -0.6409  3.3109  1.2854
   27CHL1  H21C 1979   5.546   3.690   9.314  0.3619  0.3706  0.0811
   27CHL1   C22 1980   5.663   3.942   9.200 -0.0513  0.3064  0.0173
   27CHL1  H22A 1981   5.762   3.980   9.231 -0.5004  0.3850  1.4738
   27CHL1  H22B 1982   5.685   3.857   9.132  3.1786 -1.0505  2.4928
   27CHL1   C23 1983   5.620   4.066   9.122 -0.0563 -0.5208 -0.2642
   27CHL1  H23A 1984   5.616   4.149   9.196 -3.3136  0.6321 -1.5739
   27CHL1  H23B 1985   5.700   4.088   9.048  0.5686 -0.6426  0.3590
   27CHL1   C24 1986   5.478   4.043   9.061  0.2718 -0.6077  0.2251
   27CHL1  H24A 1987   5.485   3.946   9.006  2.8073  0.2210 -1.0683
   27CHL1  H24B 1988   5.393   4.052   9.132 -0.5305  0.4413 -0.8376
   27CHL1   C25 1989   5.443   4.158   8.958 -0.5285 -0.6975 -0.3442
   27CHL1   H25 1990   5.451   4.252   9.018 -1.8766 -0.2919 -0.7507
   27CHL1   C26 1991   5.548   4.169   8.848  0.6605 -0.1803 -0.3665
   27CHL1  H26A 1992   5.551   4.068   8.803 -0.5250 -0.4585  0.1337
   27CHL1  H26B 1993   5.520   4.246   8.773  2.5939 -0.4185 -1.3844
   27CHL1  H26C 1994   5.646   4.197   8.891 -0.3791 -1.6291  3.3697
   27CHL1   C27 1995   5.305   4.132   8.897  0.4363 -0.9610 -0.1633
   27CHL1  H27A 1996   5.228   4.152   8.975 -1.8890 -1.3586 -2.2423
   27CHL1  H27B 1997   5.288   4.201   8.811 -1.0196 -1.7068 -0.4907
   27CHL1  H27C 1998   5.291   4.025   8.870  2.7558 -0.6438 -3.1845
   28CHL1    C3 1999   4.872   2.178  10.066 -0.6423  0.6836 -0.1227
   28CHL1    H3 2000   4.940   2.266  10.073 -1.3007  1.1444  0.6292
   28CHL1    O3 2001   4.888   2.091  10.177 -0.2107  0.6465 -0.3154
   28CHL1   H3' 2002   4.811   2.036  10.193 -0.0278  0.2418 -0.7957
   28CHL1    C4 2003   4.721   2.222  10.068  0.6581 -0.0166 -0.2256
   28CHL1   H4A 2004   4.647   2.140  10.082 -0.7962  1.3883  0.5975
   28CHL1   H4B 2005   4.707   2.286  10.157  2.7649 -1.8548  1.5433
   28CHL1    C5 2006   4.689   2.306   9.942 -0.0864  0.0246 -0.3588
   28CHL1    C6 2007   4.620   2.416   9.955  1.0972 -0.1648 -0.3981
   28CHL1    H6 2008   4.594   2.444  10.058 -0.1592 -3.4026  0.3040
   28CHL1    C7 2009   4.571   2.508   9.845  0.4382  0.7864  0.5166
   28CHL1   H7A 2010   4.470   2.551   9.864  1.0394  1.3163  2.8265
   28CHL1   H7B 2011   4.635   2.598   9.847  1.7375 -0.0029 -1.6214
   28CHL1    C8 2012   4.583   2.436   9.708  0.3695  0.6879  0.4349
   28CHL1    H8 2013   4.501   2.362   9.696  1.3180 -0.4583  0.7946
   28CHL1   C14 2014   4.574   2.543   9.599 -0.5610 -0.2558  0.1075
   28CHL1   H14 2015   4.660   2.612   9.614 -0.5667 -0.2089 -0.0730
   28CHL1   C15 2016   4.463   2.642   9.595  0.3595  0.1105 -0.1792
   28CHL1  H15A 2017   4.366   2.588   9.600 -0.3466  1.4387  1.7900
   28CHL1  H15B 2018   4.456   2.713   9.681  1.6363  1.2343 -0.9661
   28CHL1   C16 2019   4.488   2.713   9.463 -0.3455 -0.0849  0.1728
   28CHL1  H16A 2020   4.392   2.740   9.415 -1.5683  0.9904  2.9969
   28CHL1  H16B 2021   4.547   2.801   9.496 -0.7093 -0.4950  2.0950
   28CHL1   C17 2022   4.580   2.623   9.369  0.5617  0.0059  0.4793
   28CHL1   H17 2023   4.680   2.671   9.366 -1.4270  4.5979 -1.5341
   28CHL1   C13 2024   4.586   2.492   9.456 -0.6995  0.4394  0.5027
   28CHL1   C18 2025   4.464   2.395   9.416 -0.2253 -0.1259 -0.5377
   28CHL1  H18A 2026   4.503   2.328   9.337  2.2446 -1.5269  1.6944
   28CHL1  H18B 2027   4.445   2.336   9.508 -1.1670  0.5603 -0.2706
   28CHL1  H18C 2028   4.376   2.459   9.389  1.7076  2.6337 -0.7313
   28CHL1   C12 2029   4.722   2.417   9.446 -0.1934  0.3356  0.2227
   28CHL1  H12A 2030   4.735   2.387   9.340 -2.9190  0.6265 -0.2534
   28CHL1  H12B 2031   4.799   2.495   9.461 -1.0211  1.4411 -1.0295
   28CHL1   C11 2032   4.745   2.302   9.547  0.1375  0.7613 -0.3121
   28CHL1  H11A 2033   4.669   2.228   9.515  0.4777  0.6118 -0.7765
   28CHL1  H11B 2034   4.847   2.259   9.538  0.1377  0.5685  0.5105
   28CHL1    C9 2035   4.716   2.354   9.696  0.2883  0.0824  0.3481
   28CHL1    H9 2036   4.798   2.425   9.722 -0.5828  1.7824 -1.3370
   28CHL1   C10 2037   4.734   2.249   9.809  0.1876  0.2178  0.2861
   28CHL1   C19 2038   4.634   2.138   9.773  0.1420  0.3009  0.0635
   28CHL1  H19A 2039   4.654   2.079   9.681 -1.9550 -1.8641  0.8943
   28CHL1  H19B 2040   4.636   2.066   9.857 -1.4885 -0.3073 -0.3726
   28CHL1  H19C 2041   4.526   2.163   9.764  0.7890  3.3038 -0.4490
   28CHL1    C1 2042   4.880   2.200   9.818  0.5175  0.0007 -1.0471
   28CHL1   H1A 2043   4.900   2.138   9.728  0.2048 -1.2024 -0.3049
   28CHL1   H1B 2044   4.940   2.291   9.841 -0.4888 -0.3692  4.1208
   28CHL1    C2 2045   4.899   2.103   9.931  0.1209  0.0375  0.8515
   28CHL1   H2A 2046   5.007   2.077   9.933  0.3719  1.0020  0.5781
   28CHL1   H2B 2047   4.839   2.010   9.933  0.5038 -0.2356  0.1470
   28CHL1   C20 2048   4.527   2.612   9.221  0.9223 -0.0760 -0.5514
   28CHL1   H20 2049   4.430   2.559   9.230  0.7982 -0.1113 -1.8135
   28CHL1   C21 2050   4.614   2.517   9.132  0.4682  0.5267 -1.0349
   28CHL1  H21A 2051   4.602   2.534   9.023  1.0227 -0.7877 -1.3118
   28CHL1  H21B 2052   4.598   2.409   9.153 -0.7609  1.3618  3.5406
   28CHL1  H21C 2053   4.717   2.554   9.148  0.3424  0.4374  0.0870
   28CHL1   C22 2054   4.513   2.748   9.153 -0.7708  0.1702 -0.2349
   28CHL1  H22A 2055   4.515   2.833   9.224  0.3702  0.9216 -1.1130
   28CHL1  H22B 2056   4.611   2.760   9.102 -1.1296 -0.2403 -1.0355
   28CHL1   C23 2057   4.397   2.752   9.054  0.4233  1.2739  0.1477
   28CHL1  H23A 2058   4.409   2.666   8.985  0.1372  1.5558 -0.2555
   28CHL1  H23B 2059   4.305   2.738   9.116  1.0916  0.8391  1.0747
   28CHL1   C24 2060   4.384   2.877   8.972  0.3916  0.3572  0.8409
   28CHL1  H24A 2061   4.380   2.966   9.038  1.7598  2.1222 -1.3207
   28CHL1  H24B 2062   4.470   2.884   8.902 -0.1582  1.0684  0.2313
   28CHL1   C25 2063   4.255   2.876   8.889 -0.3403  0.0520  0.4742
   28CHL1   H25 2064   4.177   2.872   8.968  0.9823 -0.1929  1.8118
   28CHL1   C26 2065   4.232   3.002   8.811 -0.4222  0.3350  0.5579
   28CHL1  H26A 2066   4.298   3.012   8.722 -1.4721 -2.9897 -0.7408
   28CHL1  H26B 2067   4.127   3.015   8.778 -0.4070  1.7387  0.9927
   28CHL1  H26C 2068   4.248   3.088   8.881  2.8410  0.8119 -0.6107
   28CHL1   C27 2069   4.248   2.753   8.787  0.0953 -0.0522 -0.6243
   28CHL1  H27A 2070   4.148   2.736   8.741  0.8155 -1.8611 -1.6527
   28CHL1  H27B 2071   4.316   2.758   8.699  1.5334 -1.0286  0.3813
   28CHL1  H27C 2072   4.255   2.660   8.848 -0.6679 -1.7281 -2.9364
   29CHL1    C3 2073   5.886   6.332   6.629  0.3361 -0.6274 -0.0876
   29CHL1    H3 2074   5.825   6.424   6.622 -0.8117 -1.4674 -1.8477
   29CHL1    O3 2075   5.898   6.288   6.494  0.5440 -0.0843 -0.2728
   29CHL1   H3' 2076   5.930   6.197   6.495  0.9613  0.0596 -0.2350
   29CHL1    C4 2077   6.022   6.373   6.691  0.2988  0.5489  0.2933
   29CHL1   H4A 2078   6.096   6.290   6.688  0.2634  0.5415 -0.8443
   29CHL1   H4B 2079   6.056   6.451   6.620 -0.5947  0.0127 -0.7495
   29CHL1    C5 2080   6.011   6.427   6.832  0.8448  0.2629  0.1840
   29CHL1    C6 2081   6.066   6.547   6.863  0.3860 -0.1432 -0.2889
   29CHL1    H6 2082   6.139   6.596   6.797  0.0005  0.4941 -0.2509
   29CHL1    C7 2083   6.060   6.606   7.003  0.2950  0.1247 -0.0337
   29CHL1   H7A 2084   6.158   6.641   7.043 -0.5584  0.0241  2.2783
   29CHL1   H7B 2085   5.995   6.696   7.007  0.7541  0.4589 -0.0428
   29CHL1    C8 2086   6.002   6.506   7.112  0.2970 -0.4033  0.0004
   29CHL1    H8 2087   6.088   6.444   7.144 -0.4882 -0.8674  1.2784
   29CHL1   C14 2088   5.953   6.583   7.229 -0.2693  0.1047 -0.0046
   29CHL1   H14 2089   5.862   6.637   7.195 -0.1482  1.9925  2.3541
   29CHL1   C15 2090   6.032   6.709   7.285 -0.3178  0.6368  0.4975
   29CHL1  H15A 2091   6.140   6.690   7.298 -0.5687 -0.4806  1.0775
   29CHL1  H15B 2092   6.023   6.796   7.217 -0.3502 -0.0246 -0.3733
   29CHL1   C16 2093   5.973   6.730   7.424 -0.7727 -0.5546 -0.0478
   29CHL1  H16A 2094   6.051   6.718   7.503  0.1377 -0.7587 -0.9594
   29CHL1  H16B 2095   5.914   6.823   7.436 -0.1035 -0.2124  0.7032
   29CHL1   C17 2096   5.874   6.617   7.452  0.2632  0.6128  0.6970
   29CHL1   H17 2097   5.776   6.658   7.417  0.7009  0.7690 -0.4105
   29CHL1   C13 2098   5.907   6.500   7.353 -0.1849 -0.0533 -0.0320
   29CHL1   C18 2099   6.029   6.414   7.403 -0.0969 -0.5206 -0.4602
   29CHL1  H18A 2100   6.056   6.340   7.324  2.0803  0.4182 -0.6645
   29CHL1  H18B 2101   6.119   6.472   7.432  1.1082 -2.5164 -0.0493
   29CHL1  H18C 2102   5.975   6.358   7.483 -1.0472 -0.9467 -1.3613
   29CHL1   C12 2103   5.783   6.413   7.307  1.0343  0.3064 -0.4508
   29CHL1  H12A 2104   5.747   6.346   7.388  0.2244  1.8616  0.5070
   29CHL1  H12B 2105   5.700   6.480   7.275 -1.8642 -0.8282  3.7916
   29CHL1   C11 2106   5.816   6.336   7.176  0.3517  0.7370  0.3365
   29CHL1  H11A 2107   5.883   6.251   7.202  1.1554  0.7743 -1.4710
   29CHL1  H11B 2108   5.721   6.289   7.142  0.7805  0.1432 -0.0785
   29CHL1    C9 2109   5.883   6.424   7.062 -0.6531 -0.3471  0.3698
   29CHL1    H9 2110   5.802   6.490   7.026 -0.7240 -1.0364 -0.7829
   29CHL1   C10 2111   5.924   6.343   6.939 -0.1955  0.3551  0.2953
   29CHL1   C19 2112   6.002   6.212   6.971  0.1677 -0.3685 -0.3633
   29CHL1  H19A 2113   6.085   6.245   7.035 -1.1740  2.2848  0.1435
   29CHL1  H19B 2114   5.928   6.138   7.010  0.1156 -1.3288 -2.1676
   29CHL1  H19C 2115   6.049   6.174   6.878  3.7900  0.9825  0.7534
   29CHL1    C1 2116   5.799   6.299   6.861  0.0902  0.5589  0.1859
   29CHL1   H1A 2117   5.734   6.236   6.925 -0.6279 -0.3489 -1.3696
   29CHL1   H1B 2118   5.730   6.380   6.829 -1.1574  0.0122  1.4135
   29CHL1    C2 2119   5.811   6.236   6.725  0.2925 -0.5484  0.7017
   29CHL1   H2A 2120   5.709   6.226   6.682  0.4325  0.1973  0.1798
   29CHL1   H2B 2121   5.867   6.140   6.734  0.6276 -0.3873  0.3872
   29CHL1   C20 2122   5.857   6.591   7.602  0.9744  0.3077 -0.3783
   29CHL1   H20 2123   5.954   6.555   7.643  0.6006  0.2903  0.5087
   29CHL1   C21 2124   5.756   6.486   7.640 -0.1081 -0.3425  0.4047
   29CHL1  H21A 2125   5.655   6.505   7.599  0.1049 -1.9696 -1.0203
   29CHL1  H21B 2126   5.754   6.477   7.751  1.0578  3.0983  0.8156
   29CHL1  H21C 2127   5.777   6.383   7.603 -0.2217  0.6974 -2.9361
   29CHL1   C22 2128   5.819   6.721   7.676 -0.5995  0.4531  0.1053
   29CHL1  H22A 2129   5.813   6.815   7.618  2.2386  0.8491  0.3327
   29CHL1  H22B 2130   5.724   6.706   7.732 -0.3428  0.9799  0.6935
   29CHL1   C23 2131   5.934   6.746   7.778 -0.7278  0.2223 -0.0906
   29CHL1  H23A 2132   5.941   6.665   7.854 -0.9868  1.3877  1.2234
   29CHL1  H23B 2133   6.029   6.743   7.721  0.9474  1.5573  2.4093
   29CHL1   C24 2134   5.906   6.881   7.852  0.2557  0.6684  0.0526
   29CHL1  H24A 2135   5.897   6.958   7.773 -1.0596  0.9055  0.4105
   29CHL1  H24B 2136   5.813   6.875   7.913  0.6383  4.2629  1.1957
   29CHL1   C25 2137   6.014   6.910   7.958 -0.1810  0.1907 -0.0182
   29CHL1   H25 2138   6.025   6.826   8.031 -0.7497 -1.6215 -1.9287
   29CHL1   C26 2139   6.153   6.928   7.895 -0.1797 -0.4561 -0.6461
   29CHL1  H26A 2140   6.154   6.998   7.809  1.6089  1.1053  0.5517
   29CHL1  H26B 2141   6.226   6.978   7.962  2.3119 -1.3840 -2.5105
   29CHL1  H26C 2142   6.196   6.826   7.883 -1.8784 -1.4705  1.2616
   29CHL1   C27 2143   5.981   7.045   8.032 -0.5510 -0.5593 -0.2848
   29CHL1  H27A 2144   5.879   7.060   8.074 -0.3135 -1.0126  0.4703
   29CHL1  H27B 2145   6.059   7.054   8.111  1.7545  1.8823 -2.6078
   29CHL1  H27C 2146   6.000   7.134   7.967 -0.8058 -0.3124 -0.0259
   30CHL1    C3 2147   4.088   4.987   7.384 -0.2883  0.4733  0.4062
   30CHL1    H3 2148   4.155   4.899   7.383  2.3370  2.3440  1.5168
   30CHL1    O3 2149   4.057   5.028   7.249  0.3655 -0.2172  0.2179
   30CHL1   H3' 2150   4.127   5.089   7.226  0.9007 -2.0167 -3.6150
   30CHL1    C4 2151   3.964   4.954   7.461 -0.2603 -1.1502 -0.5975
   30CHL1   H4A 2152   3.902   5.046   7.465  1.4233 -0.0225  0.7637
   30CHL1   H4B 2153   3.911   4.876   7.402 -0.3708 -1.9920  0.5822
   30CHL1    C5 2154   3.994   4.920   7.604 -0.5518  1.0230  0.3439
   30CHL1    C6 2155   3.939   4.804   7.654  0.0158  0.6148 -0.3269
   30CHL1    H6 2156   3.866   4.745   7.598 -0.6801  0.6698  0.5057
   30CHL1    C7 2157   3.973   4.760   7.796  0.3751  0.3189  0.4087
   30CHL1   H7A 2158   3.878   4.754   7.854 -0.1955  0.7091 -0.4718
   30CHL1   H7B 2159   4.024   4.663   7.777  1.0320  0.4775  1.2850
   30CHL1    C8 2160   4.067   4.848   7.881 -0.1046 -0.2325  1.1595
   30CHL1    H8 2161   4.002   4.929   7.922 -0.6984  0.0863 -0.3699
   30CHL1   C14 2162   4.127   4.770   7.998  0.1904  0.2449 -0.1448
   30CHL1   H14 2163   4.203   4.698   7.960 -0.7431 -0.8847  0.0824
   30CHL1   C15 2164   4.030   4.697   8.084  0.5074  1.0199 -0.4148
   30CHL1  H15A 2165   3.939   4.757   8.106  0.5120 -0.0244  3.0502
   30CHL1  H15B 2166   3.982   4.603   8.049  0.5909  0.7479  0.1866
   30CHL1   C16 2167   4.113   4.660   8.206 -0.3938  0.4896 -0.2116
   30CHL1  H16A 2168   4.058   4.680   8.300 -1.9489 -2.3949 -0.3984
   30CHL1  H16B 2169   4.140   4.552   8.201  1.4724  0.9154 -0.1023
   30CHL1   C17 2170   4.240   4.749   8.193 -0.0060  0.1361 -0.3381
   30CHL1   H17 2171   4.315   4.695   8.131 -0.6185 -0.5548 -0.4902
   30CHL1   C13 2172   4.210   4.856   8.092 -0.1949 -0.4637 -1.0798
   30CHL1   C18 2173   4.123   4.968   8.152 -0.3644 -0.5950  0.5240
   30CHL1  H18A 2174   4.095   5.039   8.072 -0.5860  0.2067  1.3014
   30CHL1  H18B 2175   4.034   4.928   8.206 -0.1885  0.4888  1.6413
   30CHL1  H18C 2176   4.183   5.033   8.218  0.4586 -1.4529  0.6429
   30CHL1   C12 2177   4.326   4.910   8.002  0.8163 -0.0805  1.2716
   30CHL1  H12A 2178   4.396   4.965   8.069  1.3617 -0.1629  0.7786
   30CHL1  H12B 2179   4.382   4.827   7.952  3.3799  2.9779 -1.3684
   30CHL1   C11 2180   4.279   4.990   7.888  0.5217  0.2587  0.3028
   30CHL1  H11A 2181   4.237   5.086   7.923 -0.2238 -0.1388  0.5323
   30CHL1  H11B 2182   4.365   5.007   7.819 -0.7167  1.2632 -1.0441
   30CHL1    C9 2183   4.168   4.924   7.794  0.0746 -0.9718  0.0898
   30CHL1    H9 2184   4.226   4.843   7.745  0.3598  0.2664 -1.6950
   30CHL1   C10 2185   4.103   5.006   7.674 -0.1445  0.7511 -0.4391
   30CHL1   C19 2186   4.017   5.127   7.729 -0.1827  0.5694 -0.1898
   30CHL1  H19A 2187   3.951   5.096   7.813 -1.6695  0.3718 -1.3770
   30CHL1  H19B 2188   4.085   5.208   7.763 -3.4574  4.3764 -1.8370
   30CHL1  H19C 2189   3.948   5.172   7.653 -2.2855 -0.8768  0.7485
   30CHL1    C1 2190   4.224   5.055   7.591 -0.3859 -0.0524  0.2177
   30CHL1   H1A 2191   4.266   5.137   7.653 -2.3188  0.4701  0.8873
   30CHL1   H1B 2192   4.306   4.980   7.589  0.0718  0.4466 -0.8478
   30CHL1    C2 2193   4.178   5.097   7.448  0.4223 -0.5251  0.5652
   30CHL1   H2A 2194   4.267   5.116   7.384  0.6939 -1.3703  0.6692
   30CHL1   H2B 2195   4.130   5.197   7.450  2.2457  0.4265 -0.2676
   30CHL1   C20 2196   4.302   4.778   8.331  0.4052  0.0703  0.2556
   30CHL1   H20 2197   4.223   4.836   8.383 -0.4411  0.9807 -1.9400
   30CHL1   C21 2198   4.422   4.879   8.316 -0.4132  0.3585  0.1546
   30CHL1  H21A 2199   4.493   4.846   8.237  1.0455 -1.2877  2.0471
   30CHL1  H21B 2200   4.487   4.873   8.405  1.1910  1.7570 -0.8572
   30CHL1  H21C 2201   4.393   4.986   8.308 -1.0068  0.1514 -0.5410
   30CHL1   C22 2202   4.340   4.642   8.390 -0.5363  0.1749  0.8397
   30CHL1  H22A 2203   4.259   4.567   8.381 -0.0148 -0.2667 -0.4562
   30CHL1  H22B 2204   4.434   4.625   8.333 -0.9688  2.3334 -0.6457
   30CHL1   C23 2205   4.383   4.648   8.540  0.2100 -0.9534 -0.0259
   30CHL1  H23A 2206   4.421   4.748   8.569 -0.0076 -0.6162 -0.8827
   30CHL1  H23B 2207   4.292   4.644   8.604  1.5361 -1.0452  1.9628
   30CHL1   C24 2208   4.492   4.542   8.571 -0.0802 -0.4163 -0.0349
   30CHL1  H24A 2209   4.448   4.441   8.553  1.5715 -1.7880  2.8974
   30CHL1  H24B 2210   4.586   4.556   8.514 -0.4328  0.3470 -0.4566
   30CHL1   C25 2211   4.525   4.542   8.719 -0.5922  0.1922 -0.3220
   30CHL1   H25 2212   4.427   4.538   8.773  1.3381 -3.1838  3.5846
   30CHL1   C26 2213   4.587   4.405   8.740  0.1938 -0.4543 -0.1086
   30CHL1  H26A 2214   4.688   4.400   8.694 -0.4316  0.1650 -1.6390
   30CHL1  H26B 2215   4.595   4.398   8.850  2.7963  2.3241  0.0081
   30CHL1  H26C 2216   4.524   4.320   8.704 -1.3033  0.5066  0.1279
   30CHL1   C27 2217   4.603   4.667   8.765  0.0818 -0.7044  0.0444
   30CHL1  H27A 2218   4.706   4.665   8.722  0.4461  0.3125  0.8187
   30CHL1  H27B 2219   4.543   4.751   8.724 -2.7897 -2.6104  0.0430
   30CHL1  H27C 2220   4.612   4.670   8.875  0.4370  2.0032  0.0128
   31CHL1    C3 2221   3.575   0.683   6.734  0.2464  1.2263 -0.1173
   31CHL1    H3 2222   3.628   0.781   6.732  3.0752 -0.2076 -0.9675
   31CHL1    O3 2223   3.557   0.654   6.597  0.4435  0.4587 -0.3005
   31CHL1   H3' 2224   3.544   0.559   6.586 -2.4501  0.8696 -1.5157
   31CHL1    C4 2225   3.675   0.577   6.787  0.0859 -0.1067  0.3347
   31CHL1   H4A 2226   3.645   0.472   6.770  2.5353 -0.4994 -2.2680
   31CHL1   H4B 2227   3.766   0.593   6.726 -0.3848  1.5591  0.0194
   31CHL1    C5 2228   3.701   0.592   6.939 -0.1004  0.4472  0.3411
   31CHL1    C6 2229   3.826   0.593   6.987  0.4342 -0.3047  0.6981
   31CHL1    H6 2230   3.910   0.572   6.919 -0.6154  1.8251 -1.4154
   31CHL1    C7 2231   3.862   0.601   7.129 -0.1770 -0.4005 -0.7361
   31CHL1   H7A 2232   3.940   0.526   7.151  0.3283  0.2111 -0.4259
   31CHL1   H7B 2233   3.905   0.701   7.154 -1.3349 -0.3988  1.5639
   31CHL1    C8 2234   3.734   0.578   7.222 -0.0746  0.4815  0.0814
   31CHL1    H8 2235   3.702   0.471   7.217  1.5870 -0.1041  1.1268
   31CHL1   C14 2236   3.768   0.626   7.360  0.0296  0.3744 -1.0748
   31CHL1   H14 2237   3.795   0.732   7.344  1.1644 -0.2872 -4.1626
   31CHL1   C15 2238   3.899   0.578   7.435 -0.7266  0.2023 -0.1060
   31CHL1  H15A 2239   3.914   0.468   7.430  1.7380  0.5218 -2.1443
   31CHL1  H15B 2240   3.991   0.626   7.395 -0.3213  0.1673  0.7705
   31CHL1   C16 2241   3.879   0.625   7.575 -0.1955 -0.3777 -0.0179
   31CHL1  H16A 2242   3.895   0.539   7.643  0.4056  0.1648  0.5385
   31CHL1  H16B 2243   3.940   0.716   7.596 -1.3966  1.1243 -2.5790
   31CHL1   C17 2244   3.735   0.677   7.590  1.1793  0.1612 -0.0825
   31CHL1   H17 2245   3.747   0.787   7.579 -0.8431  0.3604 -0.6005
   31CHL1   C13 2246   3.662   0.621   7.470 -0.1562  0.8541  0.3438
   31CHL1   C18 2247   3.622   0.474   7.504  0.2359 -0.0560  0.7151
   31CHL1  H18A 2248   3.717   0.435   7.549 -0.1760 -1.4780  0.3874
   31CHL1  H18B 2249   3.540   0.478   7.579 -0.0324 -2.2063  0.6066
   31CHL1  H18C 2250   3.596   0.418   7.412 -1.0250 -0.0021  1.0232
   31CHL1   C12 2251   3.532   0.689   7.419 -0.2672  0.6894 -0.2064
   31CHL1  H12A 2252   3.444   0.689   7.487  0.5099 -1.1495  0.8887
   31CHL1  H12B 2253   3.567   0.793   7.405  1.1441  0.4791  1.4562
   31CHL1   C11 2254   3.490   0.640   7.280 -0.1089 -0.2150  0.3713
   31CHL1  H11A 2255   3.451   0.537   7.292 -3.4627  0.3906 -3.3045
   31CHL1  H11B 2256   3.396   0.689   7.247 -0.2457 -0.9949 -0.4257
   31CHL1    C9 2257   3.611   0.651   7.173  0.0213  0.2578 -0.0950
   31CHL1    H9 2258   3.630   0.761   7.180 -2.8158  0.7803  1.2111
   31CHL1   C10 2259   3.574   0.602   7.030 -0.0332 -0.0444  0.6386
   31CHL1   C19 2260   3.508   0.460   7.044  0.1809  0.0172 -0.1751
   31CHL1  H19A 2261   3.577   0.389   7.093  1.1195  0.1256 -1.2737
   31CHL1  H19B 2262   3.421   0.472   7.112  1.9153  2.2374  1.8213
   31CHL1  H19C 2263   3.466   0.421   6.949  0.5998 -0.8885  0.0020
   31CHL1    C1 2264   3.475   0.698   6.963 -0.0154 -0.2174 -0.1905
   31CHL1   H1A 2265   3.372   0.670   6.997 -0.1331 -1.5369 -1.5379
   31CHL1   H1B 2266   3.499   0.803   6.989  4.7281 -1.9013  3.6339
   31CHL1    C2 2267   3.446   0.681   6.814  0.3577  0.5857  0.1155
   31CHL1   H2A 2268   3.397   0.776   6.786  2.5916  2.4660  2.1974
   31CHL1   H2B 2269   3.399   0.582   6.793  1.7351 -0.3522  1.3188
   31CHL1   C20 2270   3.673   0.662   7.732  0.3545  0.6323  0.0165
   31CHL1   H20 2271   3.635   0.558   7.744  1.3765  0.2962  0.4829
   31CHL1   C21 2272   3.551   0.759   7.743  0.0417 -0.0482 -0.0513
   31CHL1  H21A 2273   3.472   0.727   7.671 -0.4284 -0.6504  0.7175
   31CHL1  H21B 2274   3.577   0.863   7.714  0.0533 -0.0335  0.0127
   31CHL1  H21C 2275   3.502   0.765   7.842 -0.4312 -0.8318 -0.2264
   31CHL1   C22 2276   3.770   0.697   7.842  0.7394 -0.5121 -0.2749
   31CHL1  H22A 2277   3.871   0.657   7.818  0.7736 -1.8732  1.8999
   31CHL1  H22B 2278   3.777   0.808   7.840 -0.4737 -0.4254 -0.3981
   31CHL1   C23 2279   3.720   0.651   7.976  0.5714  0.4908 -0.6015
   31CHL1  H23A 2280   3.622   0.700   7.994 -0.1546 -0.5571 -1.5852
   31CHL1  H23B 2281   3.694   0.543   7.969 -0.0549  0.7108 -2.3182
   31CHL1   C24 2282   3.824   0.670   8.088  0.5084 -0.1744 -0.3571
   31CHL1  H24A 2283   3.902   0.591   8.081 -0.2547 -1.4197  3.2815
   31CHL1  H24B 2284   3.865   0.773   8.084 -0.2515  0.1400 -0.2461
   31CHL1   C25 2285   3.779   0.637   8.234  0.5985  0.1237 -0.5597
   31CHL1   H25 2286   3.758   0.528   8.226  2.2642 -0.0798 -3.8626
   31CHL1   C26 2287   3.888   0.663   8.338  0.6401 -0.2154  0.2024
   31CHL1  H26A 2288   3.851   0.666   8.443  1.4212 -5.9148  0.9401
   31CHL1  H26B 2289   3.964   0.582   8.345  2.1742  1.1149 -0.4961
   31CHL1  H26C 2290   3.940   0.759   8.321  1.9332 -1.1141 -1.1948
   31CHL1   C27 2291   3.649   0.709   8.273  0.3390  0.3988 -0.1720
   31CHL1  H27A 2292   3.647   0.810   8.227 -1.6404  0.0933 -0.8558
   31CHL1  H27B 2293   3.644   0.713   8.384  0.3174 -0.7525 -0.1183
   31CHL1  H27C 2294   3.563   0.652   8.232 -0.0323  1.6556 -1.1989
   32CHL1    C3 2295   4.055   5.855   6.809  1.1025  0.2172  0.0407
   32CHL1    H3 2296   3.973   5.780   6.810  1.5558 -0.2897  0.9915
   32CHL1    O3 2297   4.052   5.908   6.678  0.5959  0.3373  0.1864
   32CHL1   H3' 2298   4.131   5.963   6.680  1.4391 -0.7395 -1.5877
   32CHL1    C4 2299   4.034   5.967   6.916  0.4768  0.0281 -0.5341
   32CHL1   H4A 2300   4.105   6.046   6.884 -0.0019  0.0259 -1.6859
   32CHL1   H4B 2301   3.930   6.006   6.905  1.0534  1.3330 -1.5546
   32CHL1    C5 2302   4.060   5.917   7.053 -0.5232  0.5817 -0.1696
   32CHL1    C6 2303   3.970   5.925   7.150 -0.3885 -0.8538  0.1887
   32CHL1    H6 2304   3.875   5.969   7.117 -0.3228  0.1828  1.3311
   32CHL1    C7 2305   4.000   5.877   7.288 -0.3810  0.6517  0.0677
   32CHL1   H7A 2306   3.964   5.944   7.368  1.4394 -0.2102  1.6847
   32CHL1   H7B 2307   3.962   5.775   7.311  0.5044 -0.3581 -2.5683
   32CHL1    C8 2308   4.153   5.875   7.321  0.2388  0.2719  0.6070
   32CHL1    H8 2309   4.186   5.981   7.319 -1.1230  0.7055 -0.4556
   32CHL1   C14 2310   4.189   5.823   7.464 -0.8844  0.2663  0.0684
   32CHL1   H14 2311   4.145   5.722   7.469  0.3950 -0.2913  0.4150
   32CHL1   C15 2312   4.128   5.880   7.585  0.0157 -0.0198  0.0027
   32CHL1  H15A 2313   4.131   5.991   7.585  0.2051 -0.0254 -0.1660
   32CHL1  H15B 2314   4.019   5.869   7.600 -0.3720  2.3946 -0.5880
   32CHL1   C16 2315   4.216   5.843   7.701 -0.7343  0.2908 -0.0581
   32CHL1  H16A 2316   4.256   5.927   7.761 -0.4161 -0.4440  0.7711
   32CHL1  H16B 2317   4.165   5.768   7.765  1.1920  0.6294  1.9807
   32CHL1   C17 2318   4.342   5.765   7.636 -0.6369  0.7362 -0.7989
   32CHL1   H17 2319   4.316   5.657   7.643 -0.3359  0.6660 -0.7621
   32CHL1   C13 2320   4.340   5.801   7.489  0.2308  0.8126  0.3311
   32CHL1   C18 2321   4.405   5.934   7.466  0.6874  0.7380 -0.6398
   32CHL1  H18A 2322   4.510   5.925   7.499 -0.3492 -2.4063  2.4029
   32CHL1  H18B 2323   4.398   5.967   7.360 -2.1425  1.3495 -0.3578
   32CHL1  H18C 2324   4.356   6.002   7.539 -0.8016  1.4554 -2.2271
   32CHL1   C12 2325   4.393   5.699   7.385  0.1850  0.4889  0.4916
   32CHL1  H12A 2326   4.496   5.659   7.399 -0.4445 -2.3041 -1.7119
   32CHL1  H12B 2327   4.329   5.608   7.396 -0.1835  0.8092  1.0356
   32CHL1   C11 2328   4.365   5.745   7.244  0.0532  0.1402 -0.4795
   32CHL1  H11A 2329   4.437   5.825   7.219 -0.9079  1.4761  0.8200
   32CHL1  H11B 2330   4.369   5.655   7.179 -1.2236 -0.1119 -0.2464
   32CHL1    C9 2331   4.219   5.792   7.211  0.8924  0.4520  0.3809
   32CHL1    H9 2332   4.158   5.699   7.212  2.0512 -0.3094  1.4452
   32CHL1   C10 2333   4.200   5.855   7.074 -0.2401 -1.2775 -0.5128
   32CHL1   C19 2334   4.314   5.954   7.051 -0.1317 -0.0569  0.2377
   32CHL1  H19A 2335   4.409   5.900   7.034 -0.2915 -0.1906 -0.2683
   32CHL1  H19B 2336   4.295   6.012   6.958 -4.3893 -2.7474 -0.8805
   32CHL1  H19C 2337   4.315   6.031   7.131 -1.0234 -0.7362  0.9300
   32CHL1    C1 2338   4.216   5.738   6.967 -0.7334  0.1562  0.4811
   32CHL1   H1A 2339   4.315   5.691   6.984 -1.2659 -1.6041 -0.9500
   32CHL1   H1B 2340   4.139   5.663   6.995 -1.1989  0.3174 -0.3209
   32CHL1    C2 2341   4.186   5.765   6.822 -0.0356  0.0352 -0.0204
   32CHL1   H2A 2342   4.175   5.668   6.768  2.5079 -0.6300  0.5524
   32CHL1   H2B 2343   4.268   5.827   6.780  1.6150 -1.8523  0.2832
   32CHL1   C20 2344   4.474   5.779   7.715 -0.6077  0.2633 -1.1878
   32CHL1   H20 2345   4.497   5.888   7.715  0.5947  0.2244  3.6589
   32CHL1   C21 2346   4.589   5.705   7.646 -0.1193  0.0408  0.4595
   32CHL1  H21A 2347   4.674   5.695   7.716  0.3736  0.8413 -0.0103
   32CHL1  H21B 2348   4.623   5.757   7.554  0.0690 -1.8214 -0.5754
   32CHL1  H21C 2349   4.562   5.601   7.616  0.5643  0.4767 -1.8046
   32CHL1   C22 2350   4.465   5.748   7.872 -0.2900 -0.3163  0.7559
   32CHL1  H22A 2351   4.565   5.766   7.918 -0.5373 -0.4343  1.3481
   32CHL1  H22B 2352   4.390   5.813   7.923 -0.1979  1.6024 -1.4026
   32CHL1   C23 2353   4.437   5.602   7.899  0.7402  0.0857 -0.0420
   32CHL1  H23A 2354   4.343   5.563   7.853 -0.0594 -1.0426  2.3552
   32CHL1  H23B 2355   4.523   5.538   7.871  1.4026 -0.0618  2.1440
   32CHL1   C24 2356   4.405   5.595   8.053 -0.5001 -0.9885  0.4857
   32CHL1  H24A 2357   4.323   5.666   8.077  1.4529  1.6003 -0.0004
   32CHL1  H24B 2358   4.361   5.497   8.082 -3.0503  0.2823  1.2898
   32CHL1   C25 2359   4.524   5.622   8.152  0.2107 -0.6865 -0.2775
   32CHL1   H25 2360   4.564   5.726   8.143  0.6228 -0.3078  4.0110
   32CHL1   C26 2361   4.472   5.609   8.295 -0.3897 -0.9606 -0.5126
   32CHL1  H26A 2362   4.385   5.678   8.307  1.2649  1.2945 -0.9039
   32CHL1  H26B 2363   4.448   5.505   8.326  1.1731 -1.2586 -0.2301
   32CHL1  H26C 2364   4.553   5.642   8.362 -0.1453  0.3817 -1.4323
   32CHL1   C27 2365   4.642   5.518   8.136 -0.2397 -0.6272 -0.4920
   32CHL1  H27A 2366   4.727   5.528   8.206 -0.0025 -0.6350 -0.7776
   32CHL1  H27B 2367   4.588   5.422   8.148 -0.5143 -0.5148 -0.8287
   32CHL1  H27C 2368   4.686   5.515   8.034  0.7428 -1.0062 -0.0656
   33CHL1    C3 2369   6.009   5.399   6.808  0.2142 -0.0486  0.0559
   33CHL1    H3 2370   6.076   5.487   6.797 -1.1629  1.0842  0.4017
   33CHL1    O3 2371   5.981   5.358   6.673  0.2223  0.2262 -0.6796
   33CHL1   H3' 2372   5.935   5.434   6.636  0.5203 -0.0121 -1.5598
   33CHL1    C4 2373   6.094   5.301   6.883  0.0778 -0.8018 -0.4962
   33CHL1   H4A 2374   6.061   5.196   6.864 -1.2704 -0.1590 -1.9915
   33CHL1   H4B 2375   6.197   5.297   6.842  0.4022 -0.3462  0.2490
   33CHL1    C5 2376   6.100   5.324   7.035 -0.3772 -0.0778 -0.0472
   33CHL1    C6 2377   6.221   5.329   7.098  0.2531  1.1300  0.0784
   33CHL1    H6 2378   6.312   5.315   7.038  0.1201  2.2826 -0.4215
   33CHL1    C7 2379   6.245   5.349   7.248 -0.0465 -0.0535  0.2616
   33CHL1   H7A 2380   6.312   5.267   7.282 -0.6608 -1.1467 -1.0563
   33CHL1   H7B 2381   6.284   5.452   7.261  0.6018 -0.3235  0.4902
   33CHL1    C8 2382   6.111   5.357   7.335 -0.0982  0.1606 -0.2287
   33CHL1    H8 2383   6.088   5.253   7.368 -1.1302  0.7839  1.1292
   33CHL1   C14 2384   6.121   5.430   7.466 -0.4475  0.0360  0.3231
   33CHL1   H14 2385   6.144   5.535   7.439 -0.6964  1.0439  3.5448
   33CHL1   C15 2386   6.236   5.385   7.562 -0.1062 -0.6161  0.0398
   33CHL1  H15A 2387   6.241   5.274   7.558 -1.7031 -0.6791 -1.4185
   33CHL1  H15B 2388   6.326   5.437   7.524 -0.8796  0.1579 -0.7818
   33CHL1   C16 2389   6.196   5.439   7.700  0.1004 -0.8680 -0.3118
   33CHL1  H16A 2390   6.188   5.354   7.772  1.9348  0.3118  1.3858
   33CHL1  H16B 2391   6.269   5.513   7.738 -0.0020 -1.1754  0.5034
   33CHL1   C17 2392   6.056   5.509   7.677 -0.7313 -0.1805 -0.5698
   33CHL1   H17 2393   6.086   5.610   7.642  2.7518 -0.8855  0.0074
   33CHL1   C13 2394   5.999   5.435   7.554  0.6555  0.5777 -0.5254
   33CHL1   C18 2395   5.954   5.293   7.602 -0.0280 -0.4419  0.5640
   33CHL1  H18A 2396   5.866   5.293   7.670 -0.2953  0.4009  0.2351
   33CHL1  H18B 2397   5.935   5.220   7.520  1.0440 -2.3162  1.9212
   33CHL1  H18C 2398   6.031   5.234   7.656  1.2707 -0.8737 -1.6424
   33CHL1   C12 2399   5.881   5.494   7.477  0.3896  0.2503 -0.3632
   33CHL1  H12A 2400   5.789   5.486   7.540  0.1992 -1.1313 -0.7940
   33CHL1  H12B 2401   5.897   5.604   7.470  2.6544  0.1007  1.3324
   33CHL1   C11 2402   5.871   5.437   7.334 -0.5979  0.0514  0.5637
   33CHL1  H11A 2403   5.818   5.340   7.347 -1.4006  0.7151  2.8704
   33CHL1  H11B 2404   5.798   5.498   7.277 -1.0858  1.6232  2.7300
   33CHL1    C9 2405   5.999   5.420   7.248  0.2482  0.5119  0.1719
   33CHL1    H9 2406   6.033   5.526   7.236 -0.3326  0.7285  0.4171
   33CHL1   C10 2407   5.973   5.354   7.113  0.1857  0.2789 -0.4601
   33CHL1   C19 2408   5.892   5.221   7.128 -0.1197  0.2259  0.1716
   33CHL1  H19A 2409   5.795   5.241   7.178  0.6690  1.2827  1.3736
   33CHL1  H19B 2410   5.872   5.189   7.024 -1.3501  2.3483 -0.3006
   33CHL1  H19C 2411   5.938   5.140   7.189 -1.0028 -0.2391  0.2325
   33CHL1    C1 2412   5.900   5.463   7.020  0.0252  0.0044  0.1642
   33CHL1   H1A 2413   5.798   5.462   7.064  0.3089 -0.9518  0.8539
   33CHL1   H1B 2414   5.949   5.561   7.035  0.2236  0.2479 -1.7610
   33CHL1    C2 2415   5.877   5.429   6.872 -0.3827 -0.5006  0.2784
   33CHL1   H2A 2416   5.841   5.520   6.820 -0.6028  0.8287  2.6221
   33CHL1   H2B 2417   5.806   5.346   6.852 -1.9417  0.8944 -0.1813
   33CHL1   C20 2418   5.969   5.526   7.801  0.2102  0.8571 -0.1557
   33CHL1   H20 2419   5.910   5.434   7.822  1.2335  0.3647  0.7048
   33CHL1   C21 2420   5.878   5.643   7.788 -0.6681 -0.3591 -0.1078
   33CHL1  H21A 2421   5.823   5.638   7.691 -1.8686 -1.6956  0.5897
   33CHL1  H21B 2422   5.930   5.738   7.810 -1.4090 -0.1373  0.7604
   33CHL1  H21C 2423   5.799   5.628   7.865 -0.5163  1.8027  0.5215
   33CHL1   C22 2424   6.052   5.543   7.935  0.2564  0.1091  0.0344
   33CHL1  H22A 2425   6.095   5.444   7.962 -0.0765 -0.5686 -1.7589
   33CHL1  H22B 2426   6.131   5.618   7.918 -0.3084  0.2878 -2.1099
   33CHL1   C23 2427   5.971   5.601   8.055  0.4637 -0.3030 -0.4515
   33CHL1  H23A 2428   5.940   5.707   8.039 -0.1032 -0.2834  0.7026
   33CHL1  H23B 2429   5.887   5.529   8.062 -1.2834  1.6441 -0.5333
   33CHL1   C24 2430   6.031   5.601   8.200 -0.2975 -0.4905  0.3723
   33CHL1  H24A 2431   6.031   5.493   8.226 -1.3373 -0.1937  1.7379
   33CHL1  H24B 2432   6.137   5.634   8.201 -0.9190  1.6634  1.8750
   33CHL1   C25 2433   5.952   5.681   8.304 -0.6352  0.6864 -0.1871
   33CHL1   H25 2434   5.843   5.657   8.306 -0.7042  0.8941 -1.2202
   33CHL1   C26 2435   6.010   5.650   8.439 -0.8456 -0.0222 -0.6491
   33CHL1  H26A 2436   6.119   5.634   8.425 -0.5501  0.3257  1.0816
   33CHL1  H26B 2437   5.990   5.736   8.505 -0.6835  1.2347 -2.1873
   33CHL1  H26C 2438   5.974   5.555   8.484 -1.6621  0.9016  0.7272
   33CHL1   C27 2439   5.959   5.833   8.283  0.2226  0.5163 -0.5918
   33CHL1  H27A 2440   6.061   5.870   8.304  0.3169 -0.8501  1.7435
   33CHL1  H27B 2441   5.921   5.857   8.182 -1.3435 -1.1105 -0.4468
   33CHL1  H27C 2442   5.888   5.884   8.352 -0.3767  1.2297 -1.7120
   34CHL1    C3 2443   6.631   4.009   7.056 -0.5925 -0.2596  0.7086
   34CHL1    H3 2444   6.548   4.083   7.061 -0.3038  0.3067 -1.6295
   34CHL1    O3 2445   6.664   3.996   6.913 -0.1871 -0.4283 -0.2704
   34CHL1   H3' 2446   6.592   3.944   6.878  0.0588 -0.2509 -1.0578
   34CHL1    C4 2447   6.750   4.075   7.129  0.4557  0.2856 -0.2217
   34CHL1   H4A 2448   6.824   3.995   7.105  0.7629 -0.1972  2.0829
   34CHL1   H4B 2449   6.793   4.161   7.073  0.6845  0.3392  0.0315
   34CHL1    C5 2450   6.724   4.094   7.277 -0.1999  0.5802 -0.6106
   34CHL1    C6 2451   6.751   4.203   7.341  0.1232 -0.7008  0.1103
   34CHL1    H6 2452   6.812   4.275   7.285 -1.6182 -0.2110 -1.2378
   34CHL1    C7 2453   6.736   4.236   7.486  0.4134  0.7702  0.0390
   34CHL1   H7A 2454   6.838   4.274   7.513  1.6262 -0.2049 -2.7684
   34CHL1   H7B 2455   6.668   4.323   7.500 -0.6365  0.1021 -0.7887
   34CHL1    C8 2456   6.690   4.108   7.570 -0.3304 -0.5614  0.3482
   34CHL1    H8 2457   6.785   4.054   7.587 -0.6247 -1.2772 -0.2451
   34CHL1   C14 2458   6.627   4.138   7.704 -0.7982  0.7430  0.5931
   34CHL1   H14 2459   6.525   4.170   7.674 -0.3942  0.7530 -0.8546
   34CHL1   C15 2460   6.682   4.249   7.799  0.4788 -0.6240 -0.6049
   34CHL1  H15A 2461   6.791   4.235   7.815  0.2857 -0.1508  1.4965
   34CHL1  H15B 2462   6.675   4.356   7.767  2.7901  0.2744  1.5500
   34CHL1   C16 2463   6.599   4.230   7.928 -0.3621 -0.1823  0.1857
   34CHL1  H16A 2464   6.664   4.253   8.015 -0.7833  0.1610  0.4156
   34CHL1  H16B 2465   6.518   4.304   7.944 -0.0631  0.9805 -2.8240
   34CHL1   C17 2466   6.545   4.086   7.915  0.2577  0.3950 -0.6206
   34CHL1   H17 2467   6.439   4.094   7.885 -0.0246 -3.0031 -0.8859
   34CHL1   C13 2468   6.611   4.017   7.796 -0.2814 -0.0791 -0.1425
   34CHL1   C18 2469   6.755   3.966   7.832  0.4120  0.5301  0.0640
   34CHL1  H18A 2470   6.786   3.922   7.735 -5.5277 -3.7417 -0.5005
   34CHL1  H18B 2471   6.820   4.042   7.880 -0.8087 -0.5515  3.8108
   34CHL1  H18C 2472   6.753   3.884   7.907 -1.9376  1.8714  1.6100
   34CHL1   C12 2473   6.522   3.920   7.718 -0.1651 -0.0443 -0.0064
   34CHL1  H12A 2474   6.511   3.823   7.771  2.7512 -0.9153 -0.8723
   34CHL1  H12B 2475   6.415   3.952   7.722  0.3773  1.7835  1.7631
   34CHL1   C11 2476   6.568   3.890   7.580  0.4695 -0.6193  0.3875
   34CHL1  H11A 2477   6.666   3.837   7.582  0.7158 -0.4337 -2.6174
   34CHL1  H11B 2478   6.487   3.832   7.530 -0.5120  1.3805 -0.4543
   34CHL1    C9 2479   6.597   4.015   7.489  0.6013 -0.0944 -0.7490
   34CHL1    H9 2480   6.499   4.065   7.471  0.1805  0.0824  1.7636
   34CHL1   C10 2481   6.656   3.974   7.343 -0.6696 -0.1115 -0.5401
   34CHL1   C19 2482   6.773   3.869   7.361  0.3016  0.6248 -0.2110
   34CHL1  H19A 2483   6.836   3.861   7.269  0.2443 -0.4010 -0.1720
   34CHL1  H19B 2484   6.845   3.897   7.440  2.2706 -3.2483 -0.3921
   34CHL1  H19C 2485   6.733   3.769   7.388  0.7983  0.6840  0.7764
   34CHL1    C1 2486   6.542   3.910   7.256 -0.0406  0.3910  0.2917
   34CHL1   H1A 2487   6.510   3.815   7.302 -0.2197  0.1382 -0.3438
   34CHL1   H1B 2488   6.458   3.982   7.257 -1.2640 -0.9941  1.0011
   34CHL1    C2 2489   6.581   3.878   7.115 -0.0040 -0.1174  0.3228
   34CHL1   H2A 2490   6.492   3.836   7.064 -1.6603 -0.2998  3.1365
   34CHL1   H2B 2491   6.649   3.791   7.120 -0.8330 -0.7347  1.2318
   34CHL1   C20 2492   6.554   4.009   8.052 -0.0752 -0.1073  0.1209
   34CHL1   H20 2493   6.661   3.985   8.069 -0.7689 -3.0999  0.6924
   34CHL1   C21 2494   6.475   3.875   8.035 -0.1521  0.2352 -0.1420
   34CHL1  H21A 2495   6.549   3.808   7.985  1.3738 -0.1126  2.4281
   34CHL1  H21B 2496   6.383   3.896   7.976 -0.2524  0.6903  0.1680
   34CHL1  H21C 2497   6.447   3.827   8.131 -0.0745  0.3776 -0.0493
   34CHL1   C22 2498   6.484   4.088   8.172 -0.3088  0.0545 -0.2245
   34CHL1  H22A 2499   6.527   4.190   8.181  0.4008 -0.2377 -0.2551
   34CHL1  H22B 2500   6.376   4.104   8.151 -0.3724  0.1798  0.1870
   34CHL1   C23 2501   6.496   4.019   8.310 -0.1938 -0.5522 -0.1462
   34CHL1  H23A 2502   6.475   3.910   8.309  0.2468 -0.6570  0.7291
   34CHL1  H23B 2503   6.601   4.023   8.345 -0.3761 -0.3472  0.3921
   34CHL1   C24 2504   6.402   4.077   8.417 -0.1629 -0.8497 -0.0075
   34CHL1  H24A 2505   6.442   4.173   8.455 -2.6520  1.1563 -2.1085
   34CHL1  H24B 2506   6.305   4.103   8.370 -1.1829  0.5028  2.6947
   34CHL1   C25 2507   6.391   3.984   8.540  0.6416 -0.1727  0.5405
   34CHL1   H25 2508   6.487   3.931   8.555  0.8244 -0.3796 -1.1134
   34CHL1   C26 2509   6.356   4.067   8.668 -0.3008 -0.1079  0.4003
   34CHL1  H26A 2510   6.342   4.007   8.761  0.7593 -1.1512 -0.0915
   34CHL1  H26B 2511   6.446   4.131   8.683 -1.3194  1.6045 -0.5190
   34CHL1  H26C 2512   6.271   4.137   8.655  1.0859  1.1962 -2.3565
   34CHL1   C27 2513   6.289   3.874   8.518  0.2115  0.3208  0.4367
   34CHL1  H27A 2514   6.195   3.909   8.469  0.7763  1.0452 -0.1453
   34CHL1  H27B 2515   6.325   3.794   8.450  0.8502 -0.9666  2.1936
   34CHL1  H27C 2516   6.261   3.827   8.615  0.5010 -1.3856 -0.2704
   35CHL1    C3 2517   2.724   5.769   7.287  0.4473 -0.6294  0.0664
   35CHL1    H3 2518   2.717   5.668   7.333 -0.5462  0.1323  1.6896
   35CHL1    O3 2519   2.656   5.764   7.161  0.3986 -0.7629  0.2279
   35CHL1   H3' 2520   2.721   5.767   7.090  1.0794 -0.1854  0.8545
   35CHL1    C4 2521   2.646   5.864   7.382 -0.4906 -0.3781  0.0916
   35CHL1   H4A 2522   2.653   5.966   7.337 -3.7527  0.4222  1.1077
   35CHL1   H4B 2523   2.536   5.845   7.381 -0.1620 -2.5764  0.6275
   35CHL1    C5 2524   2.701   5.869   7.526  0.1506 -0.5021  0.3791
   35CHL1    C6 2525   2.622   5.836   7.635 -0.7083 -0.7019 -0.6751
   35CHL1    H6 2526   2.512   5.823   7.632 -1.1781  1.6758  1.6575
   35CHL1    C7 2527   2.664   5.845   7.781 -0.0004 -0.0035  0.0452
   35CHL1   H7A 2528   2.609   5.928   7.831  2.1618  1.8735 -0.5195
   35CHL1   H7B 2529   2.663   5.747   7.834  1.9238  0.6534  1.4218
   35CHL1    C8 2530   2.806   5.901   7.794  0.1920  0.3213 -0.2785
   35CHL1    H8 2531   2.799   6.011   7.782  0.3609  0.4457  0.6844
   35CHL1   C14 2532   2.864   5.880   7.934 -0.2316 -0.1069  0.4674
   35CHL1   H14 2533   2.869   5.769   7.934 -0.9180 -0.1715 -1.5841
   35CHL1   C15 2534   2.781   5.912   8.056  0.2587  0.2444  0.0418
   35CHL1  H15A 2535   2.750   6.019   8.054 -0.8338  0.0360  2.3443
   35CHL1  H15B 2536   2.682   5.863   8.065  0.0962  0.8054  1.7897
   35CHL1   C16 2537   2.874   5.898   8.171  0.5284  0.0991 -0.0730
   35CHL1  H16A 2538   2.877   5.984   8.241  2.9233 -0.0898  0.1467
   35CHL1  H16B 2539   2.860   5.800   8.222  0.0977  0.2823  0.1601
   35CHL1   C17 2540   3.023   5.894   8.115 -0.1946  0.2155 -0.3769
   35CHL1   H17 2541   3.053   5.787   8.106  0.3232  0.3939 -0.7945
   35CHL1   C13 2542   3.004   5.943   7.966  0.3844 -0.1568  0.5497
   35CHL1   C18 2543   2.992   6.098   7.965 -0.8334 -0.1163 -0.5193
   35CHL1  H18A 2544   2.971   6.129   7.860  3.9213 -0.0813 -1.6662
   35CHL1  H18B 2545   2.923   6.129   8.046 -2.0737 -0.0049 -1.5820
   35CHL1  H18C 2546   3.084   6.137   8.014 -2.7715  0.6523  2.7972
   35CHL1   C12 2547   3.097   5.889   7.861 -0.0954  0.3439  0.4120
   35CHL1  H12A 2548   3.199   5.931   7.874 -0.2368  0.8426 -0.0788
   35CHL1  H12B 2549   3.108   5.781   7.884 -1.5862  0.2772  0.9673
   35CHL1   C11 2550   3.050   5.908   7.713 -0.3645  0.6695  0.0210
   35CHL1  H11A 2551   3.062   6.017   7.690  1.4104  0.6774  0.7928
   35CHL1  H11B 2552   3.115   5.854   7.641 -2.7531 -0.2712 -1.5496
   35CHL1    C9 2553   2.905   5.862   7.687  0.0147  0.8408  0.1453
   35CHL1    H9 2554   2.912   5.754   7.713 -0.1601  0.7700 -0.1005
   35CHL1   C10 2555   2.856   5.882   7.541  0.0398 -0.4795  0.7919
   35CHL1   C19 2556   2.888   6.025   7.493  0.2417 -0.3272 -0.8418
   35CHL1  H19A 2557   2.847   6.092   7.570  1.7144 -0.6248  0.2511
   35CHL1  H19B 2558   2.999   6.032   7.497  0.2767 -1.2711  1.1658
   35CHL1  H19C 2559   2.853   6.044   7.389  0.1555  0.4187 -0.6744
   35CHL1    C1 2560   2.922   5.793   7.432  0.2613 -0.3092  0.1964
   35CHL1   H1A 2561   3.031   5.813   7.440  0.4318 -0.7114 -0.9770
   35CHL1   H1B 2562   2.927   5.689   7.470  0.4089  0.3399  2.0693
   35CHL1    C2 2563   2.872   5.797   7.284  0.4255  0.4865  0.1307
   35CHL1   H2A 2564   2.920   5.725   7.215 -3.6161 -2.3216 -0.0931
   35CHL1   H2B 2565   2.890   5.900   7.245 -1.9252  0.3822 -1.4188
   35CHL1   C20 2566   3.128   5.953   8.208 -0.0578 -0.0578  0.0680
   35CHL1   H20 2567   3.087   6.049   8.244 -1.5622 -1.0826  1.2430
   35CHL1   C21 2568   3.266   5.966   8.141 -0.6555  0.5006  0.4116
   35CHL1  H21A 2569   3.280   6.025   8.048  0.8980 -0.5058 -0.0393
   35CHL1  H21B 2570   3.299   5.863   8.115 -1.7455  0.4802 -1.0565
   35CHL1  H21C 2571   3.343   5.997   8.214  0.1180 -0.6401  0.1129
   35CHL1   C22 2572   3.142   5.865   8.346 -0.3727 -0.2835  0.4491
   35CHL1  H22A 2573   3.045   5.830   8.387 -1.5680  1.0318 -1.1095
   35CHL1  H22B 2574   3.179   5.767   8.312 -0.7992 -0.4070  0.3252
   35CHL1   C23 2575   3.232   5.921   8.454 -0.6877 -0.0239  0.0167
   35CHL1  H23A 2576   3.334   5.930   8.412  0.2848 -0.2985  2.1577
   35CHL1  H23B 2577   3.197   6.026   8.468 -1.1603 -0.0823 -0.6614
   35CHL1   C24 2578   3.218   5.856   8.590 -0.4538 -0.3868  0.0157
   35CHL1  H24A 2579   3.113   5.855   8.625 -0.1707  1.6916  1.0661
   35CHL1  H24B 2580   3.253   5.751   8.572 -1.5464 -0.9100  0.8452
   35CHL1   C25 2581   3.317   5.923   8.694  0.3144  0.6732 -0.0208
   35CHL1   H25 2582   3.416   5.948   8.650  1.2763 -2.0777  0.3927
   35CHL1   C26 2583   3.257   6.056   8.751 -0.2278  1.1891  0.1890
   35CHL1  H26A 2584   3.216   6.103   8.660 -3.9728  0.7679  1.4941
   35CHL1  H26B 2585   3.178   6.016   8.818  1.7067 -0.6742  1.5062
   35CHL1  H26C 2586   3.334   6.121   8.797  1.2785 -1.2293  1.3417
   35CHL1   C27 2587   3.341   5.820   8.801 -0.1431 -0.0900 -0.5780
   35CHL1  H27A 2588   3.247   5.805   8.858  0.9196 -0.2669  1.2442
   35CHL1  H27B 2589   3.413   5.855   8.879 -0.6159  1.3658 -0.7813
   35CHL1  H27C 2590   3.374   5.726   8.752 -1.3679 -1.6637  1.4200
   36CHL1    C3 2591   2.190   5.197   7.256  0.7553 -0.2113 -0.4760
   36CHL1    H3 2592   2.278   5.257   7.288 -0.8521  2.3466 -0.5895
   36CHL1    O3 2593   2.193   5.189   7.116 -0.6247 -0.3844  0.7831
   36CHL1   H3' 2594   2.252   5.115   7.099  1.4468  1.5653 -1.1310
   36CHL1    C4 2595   2.204   5.058   7.324  0.3626  0.6583  0.6750
   36CHL1   H4A 2596   2.122   4.993   7.287  0.8705 -0.6009  1.6466
   36CHL1   H4B 2597   2.299   5.013   7.287  0.3301  0.2150  1.1252
   36CHL1    C5 2598   2.194   5.065   7.475 -0.1006 -0.0491  0.3208
   36CHL1    C6 2599   2.293   5.025   7.558 -0.4130  0.0705  0.5554
   36CHL1    H6 2600   2.385   4.987   7.511 -0.7589 -2.4670  1.7619
   36CHL1    C7 2601   2.286   5.036   7.708 -0.6182 -0.1813 -0.0158
   36CHL1   H7A 2602   2.342   4.955   7.759 -0.0986  1.2057  1.6999
   36CHL1   H7B 2603   2.342   5.130   7.729  2.2677 -1.5036 -1.2777
   36CHL1    C8 2604   2.136   5.051   7.765  0.2408  0.0193  0.2845
   36CHL1    H8 2605   2.090   4.953   7.741  1.7787 -0.5765 -0.3949
   36CHL1   C14 2606   2.133   5.093   7.912  0.1896  0.5883  0.7645
   36CHL1   H14 2607   2.187   5.190   7.912  1.0756  0.1742 -1.6618
   36CHL1   C15 2608   2.208   4.993   8.001 -0.0530  0.2778 -0.1621
   36CHL1  H15A 2609   2.171   4.890   7.980  1.5997 -0.4244  0.1898
   36CHL1  H15B 2610   2.317   5.014   8.000 -0.3699  2.1314  0.4640
   36CHL1   C16 2611   2.146   5.026   8.141 -0.9503  0.1999  0.6104
   36CHL1  H16A 2612   2.109   4.927   8.176  1.5362 -0.5303  1.3657
   36CHL1  H16B 2613   2.217   5.067   8.215 -1.1568 -0.0682  0.9589
   36CHL1   C17 2614   2.031   5.130   8.116 -0.5979 -0.2790  0.4082
   36CHL1   H17 2615   2.078   5.231   8.125  1.1140 -1.0136  0.1390
   36CHL1   C13 2616   1.994   5.106   7.963  0.0218 -0.3064  0.3538
   36CHL1   C18 2617   1.909   4.975   7.962  0.2651  0.1993 -0.2817
   36CHL1  H18A 2618   1.863   4.961   7.862  1.3741 -2.3900 -0.4952
   36CHL1  H18B 2619   1.958   4.885   8.004 -1.0254  0.7544  2.6513
   36CHL1  H18C 2620   1.827   4.995   8.034 -1.4301 -0.0362 -2.0674
   36CHL1   C12 2621   1.927   5.218   7.885 -0.1120  0.4764 -0.7923
   36CHL1  H12A 2622   1.822   5.230   7.921 -0.3292 -1.1827 -0.7646
   36CHL1  H12B 2623   1.972   5.318   7.903 -0.5435  0.4419  0.6294
   36CHL1   C11 2624   1.924   5.194   7.737  0.0393  0.0726  0.5737
   36CHL1  H11A 2625   1.852   5.114   7.708  1.0436 -0.8227  0.4829
   36CHL1  H11B 2626   1.882   5.290   7.699 -2.6107 -0.7340  1.2599
   36CHL1    C9 2627   2.067   5.153   7.678 -0.2795 -0.0310 -0.2246
   36CHL1    H9 2628   2.128   5.246   7.681 -1.1667  0.6725 -2.1756
   36CHL1   C10 2629   2.061   5.130   7.527  0.0691  0.4153 -0.6784
   36CHL1   C19 2630   1.949   5.034   7.490 -0.3889  0.4916 -0.2559
   36CHL1  H19A 2631   1.851   5.081   7.514  0.3986  2.1025 -0.0647
   36CHL1  H19B 2632   1.947   5.003   7.384 -2.9772  0.9211 -0.3961
   36CHL1  H19C 2633   1.955   4.940   7.548 -0.9589  0.9310  0.5392
   36CHL1    C1 2634   2.040   5.272   7.454  0.5299  0.4603 -0.0122
   36CHL1   H1A 2635   1.934   5.303   7.470  0.3003  0.1065 -0.7990
   36CHL1   H1B 2636   2.120   5.340   7.492  1.4842 -0.1538 -0.8748
   36CHL1    C2 2637   2.058   5.262   7.301  0.3207  0.2708  0.2612
   36CHL1   H2A 2638   2.055   5.365   7.259  0.4866  0.6100  1.0662
   36CHL1   H2B 2639   1.969   5.205   7.268  1.8268 -1.1194 -1.6480
   36CHL1   C20 2640   1.920   5.130   8.226  0.6881 -0.2017  0.2916
   36CHL1   H20 2641   1.850   5.045   8.209  0.3459  0.1226  0.0731
   36CHL1   C21 2642   1.818   5.244   8.209  0.9000 -0.2617  0.1135
   36CHL1  H21A 2643   1.742   5.228   8.289  0.6883 -0.2098 -0.0768
   36CHL1  H21B 2644   1.761   5.233   8.114  0.3839 -1.6760  0.5647
   36CHL1  H21C 2645   1.859   5.347   8.215 -1.0512  0.8029 -2.7178
   36CHL1   C22 2646   1.962   5.120   8.376  0.5009 -0.1869 -0.0411
   36CHL1  H22A 2647   2.064   5.081   8.392  0.0218 -2.3467 -1.8695
   36CHL1  H22B 2648   1.956   5.220   8.424 -0.7447  0.3132 -1.1748
   36CHL1   C23 2649   1.867   5.015   8.450  0.0664  0.4301  0.4227
   36CHL1  H23A 2650   1.878   5.033   8.559 -4.0695  0.5747  0.9445
   36CHL1  H23B 2651   1.768   5.046   8.412  0.5605  0.4307 -0.9116
   36CHL1   C24 2652   1.908   4.877   8.407  0.2910  0.2032 -0.0893
   36CHL1  H24A 2653   1.911   4.859   8.298  0.3369  1.6270 -0.3475
   36CHL1  H24B 2654   2.010   4.862   8.448  0.2783 -2.1559 -0.7987
   36CHL1   C25 2655   1.825   4.771   8.481 -0.0901  0.2647 -0.2553
   36CHL1   H25 2656   1.718   4.800   8.483 -0.7599 -2.0380  0.1273
   36CHL1   C26 2657   1.834   4.629   8.435  0.9140 -0.4676  0.0687
   36CHL1  H26A 2658   1.764   4.555   8.481  1.2592  0.1824  1.7267
   36CHL1  H26B 2659   1.834   4.620   8.325  1.2662 -2.4016  0.1965
   36CHL1  H26C 2660   1.936   4.600   8.468  0.8696 -1.8911 -0.9746
   36CHL1   C27 2661   1.866   4.768   8.635 -0.0448  0.1464  0.6392
   36CHL1  H27A 2662   1.975   4.746   8.626  0.2201  1.3125  0.7476
   36CHL1  H27B 2663   1.841   4.866   8.681 -0.6618  0.3463 -0.1022
   36CHL1  H27C 2664   1.813   4.684   8.683  0.4999  0.6684  2.2264
   37CHL1    C3 2665   0.647   0.989   6.980 -0.3200 -0.9694 -0.4991
   37CHL1    H3 2666   0.554   1.025   7.030  0.5418 -0.4477  0.7842
   37CHL1    O3 2667   0.655   1.003   6.838 -0.0974  0.0293  0.3820
   37CHL1   H3' 2668   0.746   1.008   6.810 -0.1428  1.6010  0.4000
   37CHL1    C4 2669   0.769   1.076   7.032  0.3270  0.4395  0.5445
   37CHL1   H4A 2670   0.860   1.033   6.986 -0.6016  1.6538 -2.6506
   37CHL1   H4B 2671   0.762   1.172   6.977 -0.2530  2.6354  4.1097
   37CHL1    C5 2672   0.778   1.090   7.181  0.7033  0.8894  0.8877
   37CHL1    C6 2673   0.773   1.204   7.239 -0.2009 -0.0592  0.2413
   37CHL1    H6 2674   0.774   1.297   7.180  3.3550 -0.0851  0.0398
   37CHL1    C7 2675   0.778   1.221   7.389  0.4825 -0.3620 -0.8228
   37CHL1   H7A 2676   0.848   1.302   7.421 -0.5944  0.3921 -0.3239
   37CHL1   H7B 2677   0.674   1.248   7.416  0.3194 -3.0065  1.6955
   37CHL1    C8 2678   0.814   1.097   7.463 -0.0793  0.0609  0.0395
   37CHL1    H8 2679   0.923   1.078   7.465 -0.4669 -2.4442  0.4701
   37CHL1   C14 2680   0.780   1.118   7.610 -1.0214  0.2268 -0.0307
   37CHL1   H14 2681   0.669   1.125   7.619 -0.9422  2.7448 -0.4530
   37CHL1   C15 2682   0.832   1.248   7.671  0.3074 -0.5240 -0.4660
   37CHL1  H15A 2683   0.939   1.252   7.642  0.6172 -0.2401  0.6602
   37CHL1  H15B 2684   0.771   1.334   7.635  0.5471  1.0247  2.5304
   37CHL1   C16 2685   0.810   1.219   7.820  0.3649  0.0248 -0.2217
   37CHL1  H16A 2686   0.906   1.241   7.871 -1.0088  0.6219  2.2728
   37CHL1  H16B 2687   0.729   1.282   7.864 -2.3090 -2.7024 -0.8946
   37CHL1   C17 2688   0.771   1.068   7.836 -0.2334 -0.0908  0.0620
   37CHL1   H17 2689   0.660   1.065   7.844 -0.3163  0.8843 -0.5840
   37CHL1   C13 2690   0.815   1.003   7.702  0.9074  0.6091 -0.1863
   37CHL1   C18 2691   0.962   0.957   7.710 -0.0942  0.2080 -0.2599
   37CHL1  H18A 2692   1.033   1.030   7.754  1.1987 -1.4272  0.4760
   37CHL1  H18B 2693   0.966   0.868   7.777 -1.1782  0.1183 -0.2911
   37CHL1  H18C 2694   1.013   0.940   7.613  4.4532  0.0226  1.8840
   37CHL1   C12 2695   0.728   0.889   7.648 -0.4400 -0.1719  0.3173
   37CHL1  H12A 2696   0.747   0.797   7.707  0.9860  0.6000  1.1145
   37CHL1  H12B 2697   0.620   0.912   7.658 -1.3509 -3.6847 -0.2595
   37CHL1   C11 2698   0.751   0.855   7.499  0.8007  0.3090 -0.0544
   37CHL1  H11A 2699   0.848   0.800   7.492  0.6565 -0.0967  0.9008
   37CHL1  H11B 2700   0.676   0.779   7.468  0.8927 -1.2265  3.0363
   37CHL1    C9 2701   0.741   0.974   7.401 -1.0000  0.2110 -0.6202
   37CHL1    H9 2702   0.632   0.995   7.405 -0.6146  2.5285 -1.0801
   37CHL1   C10 2703   0.776   0.952   7.249  0.4263 -0.1155 -0.0608
   37CHL1   C19 2704   0.915   0.895   7.244 -0.4408  0.1865  0.3073
   37CHL1  H19A 2705   0.991   0.968   7.281  0.0780  1.8372 -3.5756
   37CHL1  H19B 2706   0.932   0.802   7.302 -2.5908  0.5671  1.6858
   37CHL1  H19C 2707   0.942   0.871   7.139 -2.8271  1.3887 -0.6524
   37CHL1    C1 2708   0.678   0.852   7.186  0.6072  0.1461 -0.8753
   37CHL1   H1A 2709   0.711   0.750   7.215 -1.5751 -1.5208 -3.6951
   37CHL1   H1B 2710   0.575   0.877   7.221  1.5407  0.9168  1.4622
   37CHL1    C2 2711   0.672   0.848   7.034 -0.2966  0.2057 -0.2106
   37CHL1   H2A 2712   0.597   0.777   6.994 -0.8019 -0.8462  2.4195
   37CHL1   H2B 2713   0.774   0.819   6.999  0.2353  1.9730 -0.2201
   37CHL1   C20 2714   0.822   1.013   7.965 -0.6297  0.3960 -0.3792
   37CHL1   H20 2715   0.932   1.006   7.949 -0.6600 -0.5979 -0.1912
   37CHL1   C21 2716   0.772   0.867   7.992  0.3558 -0.5446  0.5473
   37CHL1  H21A 2717   0.793   0.827   8.094 -0.6837 -0.4465  0.8082
   37CHL1  H21B 2718   0.820   0.802   7.915  4.0422 -0.4199  2.4879
   37CHL1  H21C 2719   0.663   0.873   7.973  0.8695  1.3831 -2.3037
   37CHL1   C22 2720   0.798   1.109   8.085  0.1579  0.6276 -0.0871
   37CHL1  H22A 2721   0.834   1.213   8.074  2.5510  0.0643  1.5327
   37CHL1  H22B 2722   0.690   1.116   8.110 -0.3703 -1.3323 -1.5037
   37CHL1   C23 2723   0.873   1.061   8.213  0.0195  0.0217 -0.4523
   37CHL1  H23A 2724   0.825   0.971   8.257 -1.4982  0.6001 -0.8698
   37CHL1  H23B 2725   0.976   1.040   8.176 -1.0965 -0.8097 -3.3706
   37CHL1   C24 2726   0.882   1.170   8.322  0.1347  0.1007  0.0933
   37CHL1  H24A 2727   0.875   1.268   8.270 -0.6161 -1.0925 -2.2135
   37CHL1  H24B 2728   0.809   1.159   8.405  0.2257 -0.2930  0.1246
   37CHL1   C25 2729   1.016   1.176   8.396 -0.6524 -0.0107 -0.2843
   37CHL1   H25 2730   0.996   1.256   8.470 -1.4212 -2.7739  2.7103
   37CHL1   C26 2731   1.044   1.051   8.484 -0.4696 -0.4976 -0.0610
   37CHL1  H26A 2732   1.150   1.040   8.515 -0.3218 -2.8534 -1.1642
   37CHL1  H26B 2733   0.980   1.058   8.575  0.4695 -0.1801  0.5939
   37CHL1  H26C 2734   1.009   0.961   8.429  1.1664 -1.0567 -0.2451
   37CHL1   C27 2735   1.147   1.214   8.316  0.0868  0.3015 -0.8204
   37CHL1  H27A 2736   1.225   1.233   8.393 -1.3196 -0.3075  0.8224
   37CHL1  H27B 2737   1.167   1.133   8.243 -3.4130 -1.3269 -0.1873
   37CHL1  H27C 2738   1.130   1.308   8.260  0.5873 -0.3715 -2.1465
   38CHL1    C3 2739   3.723   2.130   6.620 -0.4992  0.4425  0.3817
   38CHL1    H3 2740   3.655   2.043   6.609 -0.0233  0.1159  0.0187
   38CHL1    O3 2741   3.768   2.187   6.492  0.3634 -0.0018  0.2764
   38CHL1   H3' 2742   3.764   2.281   6.512 -0.8901  0.0349 -0.0645
   38CHL1    C4 2743   3.637   2.227   6.702  0.1842  0.3542 -0.3275
   38CHL1   H4A 2744   3.693   2.323   6.712 -1.8530  1.6528 -0.7626
   38CHL1   H4B 2745   3.549   2.255   6.640 -1.3337  0.2373  1.6631
   38CHL1    C5 2746   3.606   2.158   6.833  0.5903 -0.3240  0.1539
   38CHL1    C6 2747   3.478   2.127   6.875 -0.6163  0.1629  0.4768
   38CHL1    H6 2748   3.398   2.164   6.810  2.5739  1.4296 -3.0885
   38CHL1    C7 2749   3.441   2.052   7.004  0.0011 -0.1813 -0.2532
   38CHL1   H7A 2750   3.356   2.104   7.053  2.2060 -1.3680  5.6859
   38CHL1   H7B 2751   3.405   1.947   6.995  0.2075 -0.4548  1.5786
   38CHL1    C8 2752   3.564   2.063   7.094  0.4756 -0.6775  0.1664
   38CHL1    H8 2753   3.558   2.170   7.123 -1.1176 -1.1558  1.7429
   38CHL1   C14 2754   3.528   1.989   7.215 -0.7502 -0.1469  0.1954
   38CHL1   H14 2755   3.500   1.883   7.194 -0.4305  0.0227 -1.1767
   38CHL1   C15 2756   3.408   2.037   7.297  0.7053 -0.1047 -0.1386
   38CHL1  H15A 2757   3.398   2.147   7.282 -1.7777 -0.7029 -4.3668
   38CHL1  H15B 2758   3.321   1.983   7.253 -0.4625  1.0008  0.7504
   38CHL1   C16 2759   3.436   1.978   7.437  0.7269 -0.8170  0.2783
   38CHL1  H16A 2760   3.433   2.063   7.508  1.2212 -1.6494  1.3177
   38CHL1  H16B 2761   3.358   1.905   7.468 -0.5435  0.2508 -0.2949
   38CHL1   C17 2762   3.579   1.920   7.432  1.0811 -0.4534 -0.4101
   38CHL1   H17 2763   3.565   1.815   7.399 -1.7368  0.1185 -1.3186
   38CHL1   C13 2764   3.646   1.984   7.312  1.0398 -0.2357 -0.5083
   38CHL1   C18 2765   3.700   2.123   7.344  0.5632  0.0527  0.1975
   38CHL1  H18A 2766   3.765   2.116   7.434  1.1136 -1.5809 -0.2821
   38CHL1  H18B 2767   3.755   2.176   7.263  1.0307 -0.8040 -0.0678
   38CHL1  H18C 2768   3.627   2.198   7.380 -0.1543  0.3682 -1.7944
   38CHL1   C12 2769   3.770   1.912   7.257 -0.0174 -0.0247 -0.2593
   38CHL1  H12A 2770   3.858   1.909   7.324 -1.3319 -1.3783  1.5101
   38CHL1  H12B 2771   3.734   1.809   7.240  0.4703 -0.0362 -1.3236
   38CHL1   C11 2772   3.804   1.973   7.126  0.0546  0.1055 -0.4863
   38CHL1  H11A 2773   3.876   2.056   7.142  0.1181 -0.0737  0.1869
   38CHL1  H11B 2774   3.864   1.902   7.065 -0.5640  1.0554 -2.2808
   38CHL1    C9 2775   3.697   2.016   7.031  0.5047 -0.3536 -0.3359
   38CHL1    H9 2776   3.673   1.917   6.986 -2.1390 -0.3785  0.9968
   38CHL1   C10 2777   3.732   2.112   6.910  0.3526  0.3200  0.2900
   38CHL1   C19 2778   3.808   2.234   6.968  0.1746 -0.0363  0.1501
   38CHL1  H19A 2779   3.909   2.198   6.996 -0.8180 -2.0668  1.3356
   38CHL1  H19B 2780   3.834   2.317   6.899  0.8088  0.8557  1.4209
   38CHL1  H19C 2781   3.750   2.281   7.050  0.5828  1.7656 -0.5463
   38CHL1    C1 2782   3.828   2.027   6.820 -0.0302 -0.4343 -0.4381
   38CHL1   H1A 2783   3.920   2.012   6.880 -0.5902  0.3774  0.6647
   38CHL1   H1B 2784   3.775   1.930   6.807 -0.3095 -0.1889 -1.1780
   38CHL1    C2 2785   3.849   2.087   6.687 -0.1918  0.4357 -0.0206
   38CHL1   H2A 2786   3.909   2.016   6.627 -1.1648 -0.9369  0.5595
   38CHL1   H2B 2787   3.916   2.173   6.708 -0.0729 -0.3181  3.3278
   38CHL1   C20 2788   3.650   1.919   7.570  0.3399 -0.0446  0.7556
   38CHL1   H20 2789   3.759   1.917   7.550  0.2556  1.7290 -0.0872
   38CHL1   C21 2790   3.624   1.780   7.634  0.1920 -0.6762  0.2649
   38CHL1  H21A 2791   3.688   1.783   7.725  1.3184 -0.0598 -0.5450
   38CHL1  H21B 2792   3.659   1.697   7.569 -1.1994 -1.7339  0.7873
   38CHL1  H21C 2793   3.518   1.761   7.665  0.7032  0.1710  2.8278
   38CHL1   C22 2794   3.626   2.038   7.667  0.1282 -0.6052 -0.6638
   38CHL1  H22A 2795   3.649   2.135   7.620 -2.5134 -0.0678 -0.9913
   38CHL1  H22B 2796   3.520   2.034   7.700 -0.6567 -0.8526 -2.9812
   38CHL1   C23 2797   3.709   2.028   7.795  0.5975 -0.5764 -0.3624
   38CHL1  H23A 2798   3.666   1.958   7.871  0.3438  0.0564  0.0811
   38CHL1  H23B 2799   3.817   2.010   7.772  0.4911  0.1228 -1.4781
   38CHL1   C24 2800   3.703   2.164   7.870 -0.2953 -0.5744 -0.5897
   38CHL1  H24A 2801   3.776   2.232   7.822 -0.5841 -1.1897 -1.9556
   38CHL1  H24B 2802   3.607   2.219   7.873 -0.0591 -0.1712  1.4337
   38CHL1   C25 2803   3.732   2.163   8.026 -0.5883 -0.2642 -0.0789
   38CHL1   H25 2804   3.663   2.094   8.079 -1.8939  0.3488 -0.9326
   38CHL1   C26 2805   3.868   2.103   8.052 -0.4427  0.3787  0.1713
   38CHL1  H26A 2806   3.915   2.130   8.149  1.5294  2.4954 -1.2689
   38CHL1  H26B 2807   3.864   1.992   8.055 -0.5762  0.3707  3.0497
   38CHL1  H26C 2808   3.943   2.135   7.977 -0.1060 -1.2379 -0.2075
   38CHL1   C27 2809   3.720   2.300   8.094  0.1848  0.2334  0.1891
   38CHL1  H27A 2810   3.614   2.332   8.079  0.0465 -0.4263 -0.2438
   38CHL1  H27B 2811   3.741   2.310   8.203  2.4736  0.5725 -0.2386
   38CHL1  H27C 2812   3.788   2.369   8.040  1.1608  0.4927  1.6832
   39CHL1    C3 2813   3.796   0.147   6.957 -0.5994 -0.1978 -0.3430
   39CHL1    H3 2814   3.794   0.259   6.957  1.5631 -0.0524 -2.9380
   39CHL1    O3 2815   3.765   0.118   6.822 -0.0770  0.6968  0.1914
   39CHL1   H3' 2816   3.728   0.030   6.828  1.2949  0.2258  3.1495
   39CHL1    C4 2817   3.941   0.113   6.991 -0.3516  0.0329  0.8926
   39CHL1   H4A 2818   3.954   0.003   6.980 -1.0831  0.0754 -0.5538
   39CHL1   H4B 2819   4.007   0.159   6.914  2.8293 -1.1922  2.6908
   39CHL1    C5 2820   3.985   0.143   7.133 -0.2247 -0.3743  0.2503
   39CHL1    C6 2821   4.101   0.207   7.160  0.2691  0.0247  0.3133
   39CHL1    H6 2822   4.162   0.240   7.074  0.3270  0.3355  0.4709
   39CHL1    C7 2823   4.138   0.247   7.304  0.0678  1.2733  0.8888
   39CHL1   H7A 2824   4.244   0.246   7.339 -0.6306  0.8372  3.1647
   39CHL1   H7B 2825   4.108   0.350   7.332 -3.6568  0.5372  0.1894
   39CHL1    C8 2826   4.070   0.167   7.413 -0.9327  0.7412 -0.0526
   39CHL1    H8 2827   4.115   0.066   7.418 -0.6587  0.8808  0.2902
   39CHL1   C14 2828   4.097   0.233   7.546  0.1132  0.3760  0.2631
   39CHL1   H14 2829   4.040   0.328   7.536 -0.7869 -0.3336 -2.3332
   39CHL1   C15 2830   4.247   0.256   7.590  0.0891  0.3763 -0.3942
   39CHL1  H15A 2831   4.296   0.157   7.575 -0.3809  0.1999 -0.8297
   39CHL1  H15B 2832   4.286   0.336   7.524 -0.5269  0.1563 -1.0504
   39CHL1   C16 2833   4.237   0.295   7.733  0.4023 -0.3110 -0.1294
   39CHL1  H16A 2834   4.312   0.238   7.791 -2.4365 -0.6329  3.5816
   39CHL1  H16B 2835   4.262   0.403   7.739 -1.9209  0.3234 -0.8209
   39CHL1   C17 2836   4.088   0.254   7.778 -0.3322 -0.7410  0.4153
   39CHL1   H17 2837   4.032   0.349   7.769 -1.2576 -1.4113 -1.5388
   39CHL1   C13 2838   4.035   0.166   7.666  0.2754  0.9691 -0.7340
   39CHL1   C18 2839   4.093   0.026   7.677  0.9298  0.3015 -0.3692
   39CHL1  H18A 2840   4.195   0.015   7.722  0.0033  0.3892  1.8834
   39CHL1  H18B 2841   4.026  -0.029   7.747  2.9313 -1.5070  0.2576
   39CHL1  H18C 2842   4.095  -0.038   7.586  2.0825 -1.3175  0.7348
   39CHL1   C12 2843   3.880   0.156   7.647  0.5365  0.9571 -0.1177
   39CHL1  H12A 2844   3.829   0.112   7.735  1.3269  0.2566 -0.0028
   39CHL1  H12B 2845   3.837   0.259   7.646 -0.1132  0.6901 -0.6493
   39CHL1   C11 2846   3.843   0.094   7.506 -0.2996 -0.3397 -0.2495
   39CHL1  H11A 2847   3.877  -0.012   7.517 -0.6566 -0.4024  0.3373
   39CHL1  H11B 2848   3.735   0.107   7.487 -0.5791 -1.6570  0.2784
   39CHL1    C9 2849   3.924   0.150   7.385  0.5592 -0.1517 -0.2372
   39CHL1    H9 2850   3.891   0.255   7.371  0.8149 -0.2491 -1.7584
   39CHL1   C10 2851   3.883   0.090   7.244 -0.1949 -0.0511  0.4532
   39CHL1   C19 2852   3.905  -0.060   7.242  0.5352  0.1735 -0.0691
   39CHL1  H19A 2853   4.011  -0.091   7.257 -0.0916 -2.5271 -0.7249
   39CHL1  H19B 2854   3.852  -0.106   7.328 -0.0433  0.3296 -0.3448
   39CHL1  H19C 2855   3.878  -0.119   7.152  2.4695 -1.8251  0.5498
   39CHL1    C1 2856   3.734   0.130   7.207  0.9219  0.8350 -0.6702
   39CHL1   H1A 2857   3.662   0.073   7.269  1.6396 -0.3715 -0.9147
   39CHL1   H1B 2858   3.718   0.239   7.220  1.4324  1.2161 -2.8486
   39CHL1    C2 2859   3.704   0.092   7.060 -0.6877 -0.1274 -0.8857
   39CHL1   H2A 2860   3.600   0.125   7.041 -0.9126  0.0392  0.5434
   39CHL1   H2B 2861   3.697  -0.019   7.063  0.1775 -0.2448 -2.3240
   39CHL1   C20 2862   4.092   0.214   7.917 -0.0689  0.2785  0.5108
   39CHL1   H20 2863   4.171   0.137   7.929  1.4274  1.4301 -1.2753
   39CHL1   C21 2864   3.949   0.168   7.972  0.1344  0.4932 -0.5281
   39CHL1  H21A 2865   3.957   0.154   8.082  2.5979  0.4776 -0.6576
   39CHL1  H21B 2866   3.929   0.066   7.934 -1.4486  0.9014 -0.8536
   39CHL1  H21C 2867   3.870   0.245   7.960 -0.7193  0.3456  3.0358
   39CHL1   C22 2868   4.131   0.328   8.010 -0.5037 -0.1377 -0.3214
   39CHL1  H22A 2869   4.203   0.403   7.971  0.6821 -0.8505  0.4622
   39CHL1  H22B 2870   4.036   0.374   8.047  0.2282 -0.1067  1.6071
   39CHL1   C23 2871   4.220   0.275   8.126 -0.1325 -0.2382 -0.3650
   39CHL1  H23A 2872   4.169   0.193   8.181  1.1270 -2.5680 -2.4630
   39CHL1  H23B 2873   4.311   0.227   8.084  0.2947  0.1437  0.1129
   39CHL1   C24 2874   4.271   0.388   8.225  0.4704 -0.0461  0.2538
   39CHL1  H24A 2875   4.344   0.455   8.174  0.9753 -0.5324  0.3325
   39CHL1  H24B 2876   4.182   0.447   8.257 -0.0998 -1.7134  1.8848
   39CHL1   C25 2877   4.341   0.336   8.355 -0.2882 -0.4379  0.3110
   39CHL1   H25 2878   4.286   0.247   8.390 -0.8589  0.2537  1.2223
   39CHL1   C26 2879   4.480   0.274   8.321  0.0186 -0.4233  0.5785
   39CHL1  H26A 2880   4.562   0.289   8.395  2.6304 -0.3173 -2.1623
   39CHL1  H26B 2881   4.463   0.165   8.317 -1.8878 -0.1416 -0.3762
   39CHL1  H26C 2882   4.516   0.321   8.227  0.1736 -2.1871 -0.2737
   39CHL1   C27 2883   4.354   0.452   8.452  0.8222 -0.7831 -0.2084
   39CHL1  H27A 2884   4.259   0.510   8.461  1.1946 -0.3822  1.3373
   39CHL1  H27B 2885   4.382   0.422   8.555 -0.8040 -0.3364  0.3942
   39CHL1  H27C 2886   4.433   0.523   8.419 -2.2197  4.6387  2.5846
   40CHL1    C3 2887   6.407   6.262   6.861 -0.4369 -0.3989 -0.0823
   40CHL1    H3 2888   6.299   6.264   6.885 -1.0712  1.4580 -2.5844
   40CHL1    O3 2889   6.397   6.274   6.722 -0.0425 -0.8003 -0.1413
   40CHL1   H3' 2890   6.467   6.338   6.703 -1.0510  0.8570  1.3758
   40CHL1    C4 2891   6.473   6.386   6.915 -0.3295  0.0498 -0.4828
   40CHL1   H4A 2892   6.580   6.399   6.888 -0.1199  1.1163  0.7513
   40CHL1   H4B 2893   6.413   6.470   6.874  1.0640  2.6130  2.3138
   40CHL1    C5 2894   6.464   6.392   7.069 -0.2441  0.2222  0.2474
   40CHL1    C6 2895   6.414   6.495   7.135  0.3789  0.2074  0.4599
   40CHL1    H6 2896   6.380   6.587   7.086  0.3192 -0.5636 -0.9810
   40CHL1    C7 2897   6.418   6.515   7.284  0.2748  0.3395 -0.2168
   40CHL1   H7A 2898   6.466   6.611   7.312  2.5960 -1.0983  0.9947
   40CHL1   H7B 2899   6.319   6.493   7.329 -0.7626 -0.0424 -2.5244
   40CHL1    C8 2900   6.517   6.413   7.354 -0.6073 -0.2310 -0.5622
   40CHL1    H8 2901   6.623   6.442   7.340 -0.0602 -2.1705 -0.6882
   40CHL1   C14 2902   6.480   6.408   7.505  0.6366  0.3102  0.2329
   40CHL1   H14 2903   6.377   6.368   7.515  0.8623  0.1771  2.9792
   40CHL1   C15 2904   6.460   6.543   7.577  0.5051 -0.0453 -1.1575
   40CHL1  H15A 2905   6.539   6.619   7.557  0.2195  0.5200 -0.2416
   40CHL1  H15B 2906   6.360   6.579   7.543 -0.1812 -0.4303  0.3472
   40CHL1   C16 2907   6.460   6.507   7.725  0.2272  0.3907 -0.4763
   40CHL1  H16A 2908   6.539   6.575   7.764 -0.3239  0.4040  0.6469
   40CHL1  H16B 2909   6.362   6.516   7.776 -0.2932 -0.2941 -1.3263
   40CHL1   C17 2910   6.490   6.351   7.725 -0.0429 -0.2809 -0.2099
   40CHL1   H17 2911   6.389   6.304   7.719  0.4336 -1.5766  1.1436
   40CHL1   C13 2912   6.558   6.315   7.589  0.4004  0.3623  0.1691
   40CHL1   C18 2913   6.703   6.365   7.593 -0.0903  0.4422  0.0379
   40CHL1  H18A 2914   6.758   6.337   7.684 -0.0264 -1.4743 -0.5459
   40CHL1  H18B 2915   6.763   6.306   7.520 -2.7193 -3.1291  0.5109
   40CHL1  H18C 2916   6.713   6.475   7.583 -1.6385  0.6869  0.8564
   40CHL1   C12 2917   6.541   6.170   7.534  0.0002  0.2472 -0.3752
   40CHL1  H12A 2918   6.605   6.096   7.587  0.7354 -0.6357 -2.3950
   40CHL1  H12B 2919   6.434   6.143   7.549 -0.2124  1.0849 -0.3634
   40CHL1   C11 2920   6.579   6.160   7.382 -0.1898 -0.1364  0.3217
   40CHL1  H11A 2921   6.688   6.177   7.365  0.1225 -1.9771  0.2973
   40CHL1  H11B 2922   6.556   6.057   7.349 -0.8378 -0.2559  1.1265
   40CHL1    C9 2923   6.501   6.274   7.295 -0.4451  0.4872  0.2769
   40CHL1    H9 2924   6.393   6.251   7.305 -1.0005  0.5594 -3.8905
   40CHL1   C10 2925   6.522   6.270   7.136  0.1958 -0.1178  0.9696
   40CHL1   C19 2926   6.671   6.272   7.109 -0.5726  0.1567  0.0208
   40CHL1  H19A 2927   6.691   6.274   6.999 -1.9564  1.5364 -0.2396
   40CHL1  H19B 2928   6.713   6.361   7.160  1.9119 -2.0955  2.2433
   40CHL1  H19C 2929   6.720   6.181   7.151  0.8043  0.2693 -1.2333
   40CHL1    C1 2930   6.453   6.147   7.074  0.1120 -0.0556  0.8715
   40CHL1   H1A 2931   6.501   6.061   7.126  1.4022  0.8562  1.2509
   40CHL1   H1B 2932   6.346   6.144   7.105  0.0216  0.9524  0.6660
   40CHL1    C2 2933   6.465   6.134   6.923 -0.0325  0.1342  0.9118
   40CHL1   H2A 2934   6.399   6.049   6.896  3.3329 -2.2620 -0.3558
   40CHL1   H2B 2935   6.567   6.118   6.884 -0.4341  0.7074 -0.4101
   40CHL1   C20 2936   6.545   6.299   7.859 -0.1304 -0.2777 -0.4394
   40CHL1   H20 2937   6.651   6.332   7.862  0.0602 -0.7659 -1.5657
   40CHL1   C21 2938   6.541   6.148   7.869  0.2469 -0.3689 -1.4542
   40CHL1  H21A 2939   6.439   6.109   7.889 -0.0492  2.0982  3.0238
   40CHL1  H21B 2940   6.605   6.118   7.954  0.2482 -0.9955 -1.6664
   40CHL1  H21C 2941   6.578   6.106   7.773 -0.7071  0.1135 -2.0500
   40CHL1   C22 2942   6.483   6.361   7.983  0.2977  0.2918 -0.8785
   40CHL1  H22A 2943   6.454   6.467   7.968  1.3865  0.6481 -0.5474
   40CHL1  H22B 2944   6.390   6.310   8.015 -0.0854  0.8805 -1.0344
   40CHL1   C23 2945   6.576   6.357   8.102 -0.4687 -0.8019  1.2591
   40CHL1  H23A 2946   6.612   6.255   8.127  1.1618 -0.4420  0.5314
   40CHL1  H23B 2947   6.670   6.412   8.079  0.6368 -3.5294 -1.3700
   40CHL1   C24 2948   6.514   6.424   8.232  0.1705 -1.3272 -0.1011
   40CHL1  H24A 2949   6.486   6.529   8.212  2.4907 -0.9861 -1.9885
   40CHL1  H24B 2950   6.427   6.362   8.261  0.9249 -2.0014  0.7866
   40CHL1   C25 2951   6.607   6.434   8.351 -0.3604  0.6492 -0.3226
   40CHL1   H25 2952   6.630   6.327   8.368 -1.5428  0.3775 -0.3598
   40CHL1   C26 2953   6.744   6.502   8.326 -0.3020 -1.1523 -0.0110
   40CHL1  H26A 2954   6.724   6.599   8.275  2.9775 -1.0176 -1.3157
   40CHL1  H26B 2955   6.789   6.522   8.426  1.0468 -0.6736 -0.6880
   40CHL1  H26C 2956   6.814   6.431   8.276 -0.1095 -1.2821  0.4349
   40CHL1   C27 2957   6.535   6.501   8.469 -0.0873  1.0232  0.1993
   40CHL1  H27A 2958   6.491   6.602   8.456  0.3561  1.4529  1.7753
   40CHL1  H27B 2959   6.454   6.428   8.491 -0.5191  0.9612 -1.4690
   40CHL1  H27C 2960   6.611   6.513   8.549 -1.3320  1.1357  1.4093
   41CHL1    C3 2961   0.209   0.473   7.021 -0.7747 -0.9073  1.2020
   41CHL1    H3 2962   0.188   0.364   7.029  1.4155 -1.3844  1.1063
   41CHL1    O3 2963   0.181   0.504   6.887  0.0945  0.2089  0.3257
   41CHL1   H3' 2964   0.168   0.599   6.885  0.3920  0.2683  0.9732
   41CHL1    C4 2965   0.138   0.570   7.112  0.0280 -0.5113  0.3409
   41CHL1   H4A 2966   0.154   0.673   7.072  0.5921 -1.5437 -2.2452
   41CHL1   H4B 2967   0.031   0.542   7.102  0.2658 -0.8631 -1.3784
   41CHL1    C5 2968   0.181   0.561   7.259 -0.9242  0.1114 -0.3702
   41CHL1    C6 2969   0.080   0.540   7.344 -0.0230  1.1246  0.0042
   41CHL1    H6 2970  -0.021   0.524   7.303  0.4297  0.7271 -1.0027
   41CHL1    C7 2971   0.094   0.524   7.497 -0.4000 -0.6705 -0.3173
   41CHL1   H7A 2972   0.022   0.595   7.544 -2.4515 -2.0223 -1.2916
   41CHL1   H7B 2973   0.068   0.425   7.538 -0.1841  0.0162  1.6102
   41CHL1    C8 2974   0.237   0.554   7.548  0.0219  0.1710  0.0339
   41CHL1    H8 2975   0.244   0.664   7.561 -0.8120  0.0410  1.8293
   41CHL1   C14 2976   0.258   0.498   7.687 -0.0382  0.5201  0.0727
   41CHL1   H14 2977   0.243   0.391   7.664 -1.6065  1.0378 -1.4691
   41CHL1   C15 2978   0.154   0.510   7.801 -0.2627  0.5047  0.2899
   41CHL1  H15A 2979   0.121   0.615   7.817  0.7956  1.1330 -1.4346
   41CHL1  H15B 2980   0.058   0.459   7.783 -0.2605  0.7595 -0.4601
   41CHL1   C16 2981   0.235   0.463   7.923 -0.1718  0.4439 -0.7027
   41CHL1  H16A 2982   0.238   0.551   7.991  0.5767  0.0867 -0.2538
   41CHL1  H16B 2983   0.191   0.379   7.982  3.4039 -1.1580 -0.0469
   41CHL1   C17 2984   0.380   0.428   7.876 -0.0898 -0.1997 -0.0976
   41CHL1   H17 2985   0.370   0.319   7.855  0.4173 -0.3004  0.1542
   41CHL1   C13 2986   0.401   0.508   7.750 -0.0665  0.4469 -0.0814
   41CHL1   C18 2987   0.422   0.655   7.771  0.6092 -0.1912 -0.0235
   41CHL1  H18A 2988   0.364   0.683   7.862  1.3739  0.1430  0.3681
   41CHL1  H18B 2989   0.523   0.696   7.794 -0.0091  2.1381 -1.1089
   41CHL1  H18C 2990   0.385   0.725   7.693 -1.5996 -1.4542 -0.1824
   41CHL1   C12 2991   0.497   0.457   7.642  0.4806 -0.3288  0.2667
   41CHL1  H12A 2992   0.604   0.466   7.670  0.8633 -1.8411 -0.5658
   41CHL1  H12B 2993   0.478   0.350   7.619  0.7202  0.2347 -3.1174
   41CHL1   C11 2994   0.489   0.519   7.500  0.1915  0.0908 -0.4357
   41CHL1  H11A 2995   0.517   0.626   7.506 -0.5917  0.3383 -1.0847
   41CHL1  H11B 2996   0.566   0.473   7.434  0.0707  0.3913 -0.7892
   41CHL1    C9 2997   0.342   0.508   7.449 -1.1788  0.0142  0.2478
   41CHL1    H9 2998   0.320   0.399   7.445  0.4400 -0.3770  1.1392
   41CHL1   C10 2999   0.330   0.560   7.297 -0.4435 -0.4969  0.4778
   41CHL1   C19 3000   0.385   0.697   7.287  0.3784 -0.1731 -0.6506
   41CHL1  H19A 3001   0.337   0.772   7.354 -0.0014  0.0761 -1.1916
   41CHL1  H19B 3002   0.495   0.697   7.304  0.1946  0.2899  0.7020
   41CHL1  H19C 3003   0.364   0.735   7.185  1.7557  0.2483 -0.7942
   41CHL1    C1 3004   0.403   0.471   7.191 -0.0514  0.3254  0.0928
   41CHL1   H1A 3005   0.511   0.486   7.212 -0.3474  1.1264  1.0972
   41CHL1   H1B 3006   0.378   0.364   7.205 -0.2326  0.0890 -1.7748
   41CHL1    C2 3007   0.360   0.501   7.042 -0.0050 -0.0287  0.3185
   41CHL1   H2A 3008   0.409   0.420   6.984 -0.8212 -1.0885  1.0774
   41CHL1   H2B 3009   0.399   0.599   7.007  1.7326 -0.9128 -0.3335
   41CHL1   C20 3010   0.497   0.430   7.987 -0.2832  0.4269 -0.0499
   41CHL1   H20 3011   0.499   0.530   8.034  0.0657  0.0201  0.8327
   41CHL1   C21 3012   0.637   0.408   7.927 -0.4781  0.2874  0.5393
   41CHL1  H21A 3013   0.634   0.306   7.881 -1.4063  0.5734 -0.0462
   41CHL1  H21B 3014   0.719   0.411   8.003  0.9207 -2.7167 -0.6753
   41CHL1  H21C 3015   0.662   0.495   7.863  1.2470  0.1975  1.0206
   41CHL1   C22 3016   0.479   0.335   8.102  0.2807  0.0843 -0.6972
   41CHL1  H22A 3017   0.414   0.250   8.075 -0.5524  0.0548  1.2025
   41CHL1  H22B 3018   0.575   0.294   8.140 -1.2065 -1.1808  1.9774
   41CHL1   C23 3019   0.403   0.404   8.223 -0.3867  0.0548  0.0980
   41CHL1  H23A 3020   0.435   0.510   8.239  2.0105 -0.8932  2.3190
   41CHL1  H23B 3021   0.295   0.413   8.197 -0.2168  1.5728 -0.1969
   41CHL1   C24 3022   0.421   0.330   8.364 -0.2503 -0.4819  0.8781
   41CHL1  H24A 3023   0.405   0.222   8.339 -1.3223  0.1417 -1.3983
   41CHL1  H24B 3024   0.530   0.332   8.381  0.0842 -2.0198 -0.7011
   41CHL1   C25 3025   0.332   0.381   8.481 -0.2050  0.4900  0.3476
   41CHL1   H25 3026   0.349   0.310   8.565 -0.0346  0.4142  0.2488
   41CHL1   C26 3027   0.363   0.514   8.540  0.2435  0.1150  0.6236
   41CHL1  H26A 3028   0.470   0.515   8.569  0.1105  0.9860  1.1175
   41CHL1  H26B 3029   0.351   0.598   8.468 -2.7852 -0.2688  0.5282
   41CHL1  H26C 3030   0.300   0.528   8.630 -0.7221  1.2082 -0.1748
   41CHL1   C27 3031   0.184   0.371   8.435 -0.1618  1.0251  0.1222
   41CHL1  H27A 3032   0.157   0.266   8.409 -0.1378  1.1938 -0.5887
   41CHL1  H27B 3033   0.122   0.400   8.523 -2.2788 -0.6499 -0.7505
   41CHL1  H27C 3034   0.168   0.435   8.346  1.6805 -1.6504 -2.3129
   42CHL1    C3 3035   1.262   2.150   6.999  0.2130 -0.5285 -0.1774
   42CHL1    H3 3036   1.265   2.041   6.975  0.5937 -0.5666  0.0454
   42CHL1    O3 3037   1.320   2.218   6.889  0.1680  0.7065  0.0474
   42CHL1   H3' 3038   1.277   2.304   6.886 -3.8992 -0.8614  3.0952
   42CHL1    C4 3039   1.106   2.192   7.013  0.0795 -0.2649  0.1334
   42CHL1   H4A 3040   1.088   2.300   6.997 -3.0465 -0.5803  0.8346
   42CHL1   H4B 3041   1.047   2.139   6.935 -0.9341  0.2248  0.5420
   42CHL1    C5 3042   1.042   2.168   7.148  0.7121 -0.2521 -0.9621
   42CHL1    C6 3043   0.920   2.119   7.156 -0.9798 -0.4761 -0.4769
   42CHL1    H6 3044   0.874   2.087   7.061  1.1677 -0.9516 -1.4161
   42CHL1    C7 3045   0.830   2.100   7.281 -0.5761 -0.3532 -0.6047
   42CHL1   H7A 3046   0.733   2.152   7.263 -0.1477  0.3982 -0.7964
   42CHL1   H7B 3047   0.806   1.993   7.295 -0.3535 -0.1927  1.3844
   42CHL1    C8 3048   0.897   2.169   7.404  0.5039  0.8514 -0.2418
   42CHL1    H8 3049   0.883   2.279   7.390 -1.8076  0.6159 -0.2005
   42CHL1   C14 3050   0.839   2.111   7.532  0.0183 -0.6186  0.0662
   42CHL1   H14 3051   0.863   2.003   7.538  1.1552 -0.4291 -0.6643
   42CHL1   C15 3052   0.685   2.117   7.544  0.3972 -0.0973  0.4864
   42CHL1  H15A 3053   0.648   2.220   7.524 -0.9059  0.0552  3.2367
   42CHL1  H15B 3054   0.636   2.044   7.476 -0.9013  1.3295 -0.1916
   42CHL1   C16 3055   0.661   2.079   7.698 -0.2850 -0.8404  0.1221
   42CHL1  H16A 3056   0.603   2.162   7.744  2.5507 -0.5535  3.6380
   42CHL1  H16B 3057   0.612   1.982   7.719  0.2365 -0.8627  1.3116
   42CHL1   C17 3058   0.806   2.087   7.762  0.4564  0.1326 -0.6759
   42CHL1   H17 3059   0.829   1.978   7.762 -2.5487 -0.6634  2.5313
   42CHL1   C13 3060   0.894   2.165   7.668  0.0032  0.3076  0.3650
   42CHL1   C18 3061   0.879   2.327   7.682  0.1571 -0.0946  0.7029
   42CHL1  H18A 3062   0.772   2.355   7.687 -0.2166 -1.0202 -1.2350
   42CHL1  H18B 3063   0.921   2.365   7.778  0.0511 -0.2249  0.8027
   42CHL1  H18C 3064   0.922   2.383   7.597  0.4212  0.9530  1.4968
   42CHL1   C12 3065   1.047   2.135   7.669  1.1698  0.5132  0.6019
   42CHL1  H12A 3066   1.105   2.197   7.740  1.4366  1.1763 -0.1768
   42CHL1  H12B 3067   1.058   2.025   7.683 -0.0699 -0.0147 -1.9336
   42CHL1   C11 3068   1.114   2.186   7.537 -0.1426 -0.3925 -0.6761
   42CHL1  H11A 3069   1.108   2.296   7.551  0.4722 -0.6504  2.2666
   42CHL1  H11B 3070   1.223   2.164   7.547 -0.2032  0.1334  1.8674
   42CHL1    C9 3071   1.050   2.153   7.406  0.5484 -0.5119 -0.1844
   42CHL1    H9 3072   1.050   2.041   7.405 -1.5841 -0.5422 -0.3215
   42CHL1   C10 3073   1.125   2.203   7.274 -0.4785  0.2881 -0.3821
   42CHL1   C19 3074   1.147   2.357   7.281 -0.2233  1.0877  0.7193
   42CHL1  H19A 3075   1.050   2.409   7.298 -0.6156  0.5019  0.2850
   42CHL1  H19B 3076   1.214   2.384   7.366  0.2314 -0.6252  0.9326
   42CHL1  H19C 3077   1.181   2.404   7.186 -1.2970 -0.1883 -0.3375
   42CHL1    C1 3078   1.265   2.137   7.263  0.0765  0.7510 -0.0531
   42CHL1   H1A 3079   1.321   2.175   7.351 -1.2058 -0.5941  1.4081
   42CHL1   H1B 3080   1.253   2.026   7.271  0.0945  0.6776 -0.9149
   42CHL1    C2 3081   1.338   2.172   7.134 -0.9134  0.3162 -0.3812
   42CHL1   H2A 3082   1.429   2.108   7.126 -0.0228  1.5124 -0.0498
   42CHL1   H2B 3083   1.376   2.276   7.130  1.3923 -0.4316  0.4252
   42CHL1   C20 3084   0.788   2.130   7.911 -0.1803 -0.8556 -0.2145
   42CHL1   H20 3085   0.763   2.238   7.918  1.5590 -0.4677  0.5917
   42CHL1   C21 3086   0.925   2.118   7.980  0.1426  0.1528 -0.7874
   42CHL1  H21A 3087   1.010   2.158   7.921  0.9007 -2.6113 -1.6952
   42CHL1  H21B 3088   0.946   2.016   8.019 -0.1244  0.8902  1.4273
   42CHL1  H21C 3089   0.930   2.172   8.077  0.6112  0.8543 -1.1958
   42CHL1   C22 3090   0.686   2.053   7.994 -0.2745  0.2099  0.2951
   42CHL1  H22A 3091   0.584   2.080   7.958 -0.0329  0.5865 -0.1215
   42CHL1  H22B 3092   0.703   1.950   7.956 -0.4886  0.7028 -1.2116
   42CHL1   C23 3093   0.687   2.062   8.148 -0.3950  0.0829 -0.1805
   42CHL1  H23A 3094   0.613   1.995   8.196  0.2731  0.8103  1.9990
   42CHL1  H23B 3095   0.789   2.039   8.187 -0.5117 -1.0818 -0.5030
   42CHL1   C24 3096   0.641   2.197   8.206  0.2310  0.6120 -0.5531
   42CHL1  H24A 3097   0.725   2.266   8.184  1.2296 -0.4933 -0.3418
   42CHL1  H24B 3098   0.543   2.226   8.163  0.1453  1.2326  0.0536
   42CHL1   C25 3099   0.637   2.207   8.363  0.0921 -0.6857  0.6727
   42CHL1   H25 3100   0.558   2.138   8.400 -0.6141  0.6627  1.7558
   42CHL1   C26 3101   0.766   2.182   8.446  0.2906 -0.5124  0.4986
   42CHL1  H26A 3102   0.810   2.084   8.418 -0.7137 -0.9171  0.2722
   42CHL1  H26B 3103   0.841   2.258   8.416  0.8338 -2.1377 -2.6616
   42CHL1  H26C 3104   0.734   2.185   8.552 -2.6545  0.7586 -0.3363
   42CHL1   C27 3105   0.584   2.340   8.411  0.9402  0.0447  0.1143
   42CHL1  H27A 3106   0.577   2.348   8.521 -1.8215 -1.1149  0.1002
   42CHL1  H27B 3107   0.486   2.355   8.361  1.9587  1.8141 -1.4472
   42CHL1  H27C 3108   0.661   2.411   8.375  0.2451 -0.6569 -3.0889
   43CHL1    C3 3109   1.740   1.264   6.832 -0.8538 -0.1478 -0.3602
   43CHL1    H3 3110   1.769   1.369   6.808  1.9579  0.3960  4.2270
   43CHL1    O3 3111   1.733   1.202   6.703  0.1733  0.2277  0.2955
   43CHL1   H3' 3112   1.686   1.119   6.713 -0.6430  0.7687  1.0637
   43CHL1    C4 3113   1.862   1.206   6.914  0.5644  0.2738 -0.4790
   43CHL1   H4A 3114   1.845   1.096   6.920  1.8084  0.1175  0.7525
   43CHL1   H4B 3115   1.954   1.219   6.852  2.1996  0.3512  1.8505
   43CHL1    C5 3116   1.874   1.257   7.059  0.2942  0.1957  0.1577
   43CHL1    C6 3117   1.994   1.299   7.110  0.5030  0.5493 -0.7699
   43CHL1    H6 3118   2.077   1.281   7.040 -0.6184  2.8957 -2.8602
   43CHL1    C7 3119   2.018   1.369   7.239  0.0773 -0.8568 -0.1611
   43CHL1   H7A 3120   2.118   1.345   7.282  0.0502 -0.3733  0.1815
   43CHL1   H7B 3121   2.017   1.479   7.224  1.2944 -1.0122 -1.5869
   43CHL1    C8 3122   1.897   1.348   7.337  0.4757  0.8600  0.4871
   43CHL1    H8 3123   1.902   1.244   7.377 -1.3268  0.2206 -0.8354
   43CHL1   C14 3124   1.902   1.448   7.449 -0.2710  0.2355 -0.3499
   43CHL1   H14 3125   1.880   1.546   7.400  2.5693  1.0784 -0.1382
   43CHL1   C15 3126   2.031   1.458   7.521 -0.6695 -0.6469  0.5604
   43CHL1  H15A 3127   2.080   1.361   7.544  1.0787 -0.2272 -1.1345
   43CHL1  H15B 3128   2.109   1.516   7.468 -0.2723  0.4146  2.1991
   43CHL1   C16 3129   1.995   1.543   7.644  0.2435  0.2865 -0.6904
   43CHL1  H16A 3130   2.048   1.502   7.733 -3.5202 -3.1880  0.2472
   43CHL1  H16B 3131   2.029   1.648   7.628 -0.1782  0.6654  0.7396
   43CHL1   C17 3132   1.840   1.555   7.644 -0.4195  1.0201 -0.5133
   43CHL1   H17 3133   1.809   1.651   7.599 -1.0793  0.1297 -2.0373
   43CHL1   C13 3134   1.794   1.447   7.559 -0.4204 -0.2615  0.0970
   43CHL1   C18 3135   1.796   1.305   7.628 -0.0394 -0.1193  0.0887
   43CHL1  H18A 3136   1.773   1.223   7.557 -0.8448 -0.2306  0.4610
   43CHL1  H18B 3137   1.899   1.301   7.668  0.9933 -0.0664 -2.3906
   43CHL1  H18C 3138   1.719   1.297   7.708 -1.0181 -0.0684 -0.8292
   43CHL1   C12 3139   1.659   1.465   7.490 -0.8820  0.0189 -0.2898
   43CHL1  H12A 3140   1.572   1.439   7.554 -1.2099  1.1027 -0.2788
   43CHL1  H12B 3141   1.653   1.568   7.449  1.7228 -0.0818 -1.0900
   43CHL1   C11 3142   1.645   1.371   7.369  0.0824 -0.5260 -0.4634
   43CHL1  H11A 3143   1.631   1.270   7.415  1.6305 -1.0386 -1.0549
   43CHL1  H11B 3144   1.546   1.397   7.325 -0.1620 -0.3268  0.1815
   43CHL1    C9 3145   1.763   1.370   7.266  0.7229 -1.0551 -0.6319
   43CHL1    H9 3146   1.762   1.474   7.226 -0.1833  0.0720  2.1105
   43CHL1   C10 3147   1.741   1.287   7.135  0.1921 -0.0573 -0.4245
   43CHL1   C19 3148   1.706   1.142   7.176 -0.6685  0.9955  0.0676
   43CHL1  H19A 3149   1.619   1.133   7.245 -1.8077  1.4161 -1.2604
   43CHL1  H19B 3150   1.678   1.078   7.089 -0.5512  3.6044 -2.0116
   43CHL1  H19C 3151   1.789   1.089   7.227 -0.7007  0.8885  0.0111
   43CHL1    C1 3152   1.621   1.331   7.052 -0.1427 -0.3723  0.2805
   43CHL1   H1A 3153   1.528   1.316   7.111 -0.0096  0.9070  0.8646
   43CHL1   H1B 3154   1.627   1.438   7.021  2.2849 -0.4638  0.2007
   43CHL1    C2 3155   1.605   1.263   6.911 -0.3800 -0.0451 -0.6980
   43CHL1   H2A 3156   1.528   1.310   6.847 -1.4503 -0.4541  0.2497
   43CHL1   H2B 3157   1.569   1.160   6.933 -1.6586  0.5938  0.3867
   43CHL1   C20 3158   1.781   1.566   7.787 -0.0722  0.6397  0.2119
   43CHL1   H20 3159   1.836   1.494   7.851  1.0042 -0.2378 -1.6084
   43CHL1   C21 3160   1.631   1.539   7.796  0.0459  0.1521 -0.1769
   43CHL1  H21A 3161   1.567   1.622   7.760  0.4536  1.0337  1.0742
   43CHL1  H21B 3162   1.610   1.524   7.904 -1.4883 -3.2211 -0.8050
   43CHL1  H21C 3163   1.598   1.443   7.752 -1.4581  0.0379  1.1079
   43CHL1   C22 3164   1.818   1.703   7.839 -0.5830 -0.0929  0.2585
   43CHL1  H22A 3165   1.928   1.713   7.831 -0.3084 -0.9756  2.2511
   43CHL1  H22B 3166   1.762   1.770   7.772  0.7351 -0.9855 -1.8298
   43CHL1   C23 3167   1.781   1.730   7.983 -0.2092  0.0374 -0.7063
   43CHL1  H23A 3168   1.825   1.829   8.006  0.4942 -0.6889  1.2667
   43CHL1  H23B 3169   1.670   1.734   7.979 -0.2649  0.5228  0.6755
   43CHL1   C24 3170   1.812   1.627   8.090 -0.1101 -0.2469 -0.5212
   43CHL1  H24A 3171   1.771   1.656   8.189  0.6325  0.0916 -0.3033
   43CHL1  H24B 3172   1.762   1.531   8.067 -0.3561 -0.3091  0.2253
   43CHL1   C25 3173   1.961   1.580   8.109 -0.0692 -0.1001  0.0055
   43CHL1   H25 3174   2.005   1.563   8.008 -0.2275  0.3244 -0.1344
   43CHL1   C26 3175   2.048   1.681   8.182 -0.5786 -0.9025 -0.1375
   43CHL1  H26A 3176   2.051   1.782   8.137 -0.4449 -2.0095 -2.8341
   43CHL1  H26B 3177   2.047   1.696   8.292  1.0231  0.2222 -0.2586
   43CHL1  H26C 3178   2.152   1.642   8.177  1.0082  2.2025  3.8146
   43CHL1   C27 3179   1.951   1.448   8.189  0.6328 -0.0193 -0.5356
   43CHL1  H27A 3180   1.916   1.471   8.293 -0.8652  3.2754 -1.6104
   43CHL1  H27B 3181   1.878   1.379   8.142 -0.9122  0.9088  0.3776
   43CHL1  H27C 3182   2.056   1.414   8.190  0.4977 -0.5309 -1.7997
   44CHL1    C3 3183   1.190   6.223   6.680  0.9870  0.0522 -0.1742
   44CHL1    H3 3184   1.093   6.275   6.694  0.1013 -1.6289  0.3001
   44CHL1    O3 3185   1.202   6.197   6.542  0.0567 -0.6625 -0.1572
   44CHL1   H3' 3186   1.290   6.159   6.537 -0.1779 -1.4080  0.9682
   44CHL1    C4 3187   1.306   6.315   6.731 -0.7357  0.1683  0.3716
   44CHL1   H4A 3188   1.404   6.265   6.717  0.1509  1.3482  2.0219
   44CHL1   H4B 3189   1.296   6.404   6.666  0.1154  0.0184  0.0155
   44CHL1    C5 3190   1.283   6.332   6.881 -0.0619 -0.3274  0.5044
   44CHL1    C6 3191   1.272   6.451   6.932  0.9131  0.4631  0.2298
   44CHL1    H6 3192   1.280   6.540   6.868 -2.3701  0.1148 -0.8764
   44CHL1    C7 3193   1.267   6.481   7.081  0.7427 -0.2839 -0.0437
   44CHL1   H7A 3194   1.314   6.576   7.116  0.7336  0.0358 -0.8859
   44CHL1   H7B 3195   1.158   6.491   7.104  0.7063  1.5212 -0.8304
   44CHL1    C8 3196   1.323   6.359   7.163  0.0471 -0.2116  0.3301
   44CHL1    H8 3197   1.434   6.353   7.158  0.1609  0.1878  2.1068
   44CHL1   C14 3198   1.285   6.373   7.308  0.2868 -0.2100  0.1928
   44CHL1   H14 3199   1.175   6.376   7.323 -0.0024 -0.0693 -1.7116
   44CHL1   C15 3200   1.348   6.498   7.370  0.5285  0.7913  0.1879
   44CHL1  H15A 3201   1.453   6.496   7.332 -0.1432 -2.1931 -1.7954
   44CHL1  H15B 3202   1.297   6.590   7.336  0.6408  0.2214 -1.6033
   44CHL1   C16 3203   1.337   6.465   7.520  0.0635 -0.0896 -0.2198
   44CHL1  H16A 3204   1.439   6.479   7.563 -1.1000  0.9932  2.3746
   44CHL1  H16B 3205   1.268   6.529   7.578 -0.0709  1.0588 -1.5868
   44CHL1   C17 3206   1.297   6.320   7.542  0.1427 -0.0335 -0.4607
   44CHL1   H17 3207   1.189   6.314   7.566  0.3359  0.9915  0.7968
   44CHL1   C13 3208   1.329   6.264   7.404 -0.4009  0.2772 -0.4788
   44CHL1   C18 3209   1.478   6.233   7.394  0.1060  0.4624 -0.3263
   44CHL1  H18A 3210   1.518   6.204   7.295 -1.3150 -2.5147 -0.1222
   44CHL1  H18B 3211   1.539   6.320   7.429  1.4424 -0.8152  0.6696
   44CHL1  H18C 3212   1.503   6.154   7.468 -0.1112  2.7933  2.4125
   44CHL1   C12 3213   1.252   6.140   7.357 -0.0986  0.3158 -0.3875
   44CHL1  H12A 3214   1.289   6.052   7.414 -0.7379  0.5238  0.3646
   44CHL1  H12B 3215   1.143   6.153   7.372  0.2731  0.8466  2.7038
   44CHL1   C11 3216   1.288   6.115   7.208 -0.6992 -0.1172 -0.4570
   44CHL1  H11A 3217   1.397   6.095   7.197 -0.1559  2.6412 -0.8319
   44CHL1  H11B 3218   1.235   6.023   7.174  0.1236  0.2859 -3.0412
   44CHL1    C9 3219   1.255   6.233   7.111 -0.1191  0.1668 -1.0405
   44CHL1    H9 3220   1.145   6.240   7.126  0.0534  0.7239  0.0677
   44CHL1   C10 3221   1.281   6.200   6.964 -0.3789  0.2223  0.0464
   44CHL1   C19 3222   1.417   6.132   6.944  0.3325  0.3213 -0.0958
   44CHL1  H19A 3223   1.439   6.119   6.836  0.6536  1.2087 -0.1458
   44CHL1  H19B 3224   1.493   6.208   6.974 -0.6107  1.1204  0.3184
   44CHL1  H19C 3225   1.423   6.035   6.997 -2.9255 -0.4062 -0.8767
   44CHL1    C1 3226   1.172   6.101   6.904  0.4023 -0.4291 -0.1293
   44CHL1   H1A 3227   1.193   6.001   6.947 -0.0217 -0.4702 -0.0147
   44CHL1   H1B 3228   1.077   6.143   6.942 -0.4218 -1.7729 -0.6252
   44CHL1    C2 3229   1.183   6.087   6.758 -0.5478  0.1041  0.6823
   44CHL1   H2A 3230   1.109   6.018   6.710  0.0258 -1.1974  1.6104
   44CHL1   H2B 3231   1.279   6.034   6.737 -0.1768  1.1748 -0.4189
   44CHL1   C20 3232   1.376   6.261   7.665  0.4264  0.5876  0.2154
   44CHL1   H20 3233   1.486   6.258   7.656  0.6382  0.3761  2.3562
   44CHL1   C21 3234   1.335   6.120   7.702 -0.2856 -0.1377  0.1682
   44CHL1  H21A 3235   1.224   6.118   7.711 -0.7141  1.4834 -3.2833
   44CHL1  H21B 3236   1.371   6.084   7.801  0.8819  0.3461 -0.0563
   44CHL1  H21C 3237   1.375   6.051   7.624  2.4451  3.5950 -2.0583
   44CHL1   C22 3238   1.350   6.351   7.793  0.3993  0.1413 -0.1752
   44CHL1  H22A 3239   1.325   6.456   7.767 -0.7836  0.2479  1.3063
   44CHL1  H22B 3240   1.265   6.303   7.846 -0.2801  0.9570 -0.5105
   44CHL1   C23 3241   1.480   6.350   7.883 -0.1825 -0.2574  0.7731
   44CHL1  H23A 3242   1.524   6.249   7.891 -0.8756 -0.4484  2.9718
   44CHL1  H23B 3243   1.547   6.418   7.825 -0.0514  0.8377  2.1535
   44CHL1   C24 3244   1.456   6.400   8.025 -0.4989 -0.3632  0.2964
   44CHL1  H24A 3245   1.549   6.419   8.083  0.5328 -0.4001 -1.2869
   44CHL1  H24B 3246   1.407   6.499   8.011  0.4557  0.1854  0.7250
   44CHL1   C25 3247   1.371   6.314   8.119  0.0870 -0.2074  0.0828
   44CHL1   H25 3248   1.268   6.324   8.079  0.4577  2.4759 -0.4229
   44CHL1   C26 3249   1.401   6.153   8.127 -0.4826 -0.2835 -0.0070
   44CHL1  H26A 3250   1.409   6.111   8.025 -1.6754 -0.7157  0.0590
   44CHL1  H26B 3251   1.506   6.144   8.163 -0.1802 -0.0198 -0.8028
   44CHL1  H26C 3252   1.328   6.097   8.190  2.0614 -0.0634  3.4544
   44CHL1   C27 3253   1.380   6.380   8.263 -0.4674 -0.1477 -0.4110
   44CHL1  H27A 3254   1.283   6.341   8.301 -0.1118 -1.8602 -1.2005
   44CHL1  H27B 3255   1.470   6.340   8.314 -1.0336 -1.3830 -0.3628
   44CHL1  H27C 3256   1.374   6.491   8.263  0.6686 -0.0672  0.7192
   45CHL1    C3 3257   2.456   4.115   6.770  0.0595 -0.2088  0.0370
   45CHL1    H3 3258   2.552   4.064   6.793  0.0110  0.5704  2.1805
   45CHL1    O3 3259   2.436   4.128   6.631  0.3963  0.0259 -0.2679
   45CHL1   H3' 3260   2.360   4.184   6.612  1.0331  0.4901 -1.5195
   45CHL1    C4 3261   2.341   4.050   6.842 -0.1956 -0.3609 -0.1477
   45CHL1   H4A 3262   2.256   4.113   6.809 -0.0182  0.4390  0.9071
   45CHL1   H4B 3263   2.324   3.946   6.806  0.7716  0.1256 -2.1752
   45CHL1    C5 3264   2.357   4.052   6.988  0.4124 -0.6679 -0.0871
   45CHL1    C6 3265   2.360   3.944   7.063  0.4456 -0.3168 -0.1611
   45CHL1    H6 3266   2.331   3.847   7.022 -0.0010 -0.4272  0.3914
   45CHL1    C7 3267   2.367   3.938   7.212 -0.1720 -0.2417 -0.1191
   45CHL1   H7A 3268   2.281   3.880   7.251  0.0868 -1.9573 -1.9573
   45CHL1   H7B 3269   2.458   3.888   7.252 -0.0120  1.2191  1.4884
   45CHL1    C8 3270   2.351   4.076   7.282 -0.6993 -0.2780 -0.4281
   45CHL1    H8 3271   2.242   4.093   7.284 -0.8892 -1.4087 -0.8499
   45CHL1   C14 3272   2.409   4.084   7.421 -0.0874 -0.2827 -0.9612
   45CHL1   H14 3273   2.519   4.076   7.412  0.0934  0.2086  0.5524
   45CHL1   C15 3274   2.353   3.980   7.517 -0.0791 -0.2250 -0.4662
   45CHL1  H15A 3275   2.242   3.973   7.510 -0.5305  4.2460 -0.8190
   45CHL1  H15B 3276   2.409   3.887   7.492  0.5728  0.0417 -0.0052
   45CHL1   C16 3277   2.394   4.029   7.658  0.0808 -0.4508  0.4165
   45CHL1  H16A 3278   2.304   4.032   7.722  0.4831 -2.0090  1.0975
   45CHL1  H16B 3279   2.477   3.963   7.690 -0.0676  0.0009  1.7655
   45CHL1   C17 3280   2.438   4.173   7.626  0.1077 -0.4316  0.6476
   45CHL1   H17 3281   2.547   4.176   7.606 -0.0773 -3.8182 -1.5198
   45CHL1   C13 3282   2.378   4.216   7.483 -0.3009  0.0356  0.4102
   45CHL1   C18 3283   2.228   4.250   7.492  0.1041 -0.2438 -0.0298
   45CHL1  H18A 3284   2.223   4.352   7.536  2.0717  0.4465 -1.2583
   45CHL1  H18B 3285   2.166   4.260   7.401 -0.4219  1.0664  0.4486
   45CHL1  H18C 3286   2.169   4.176   7.550 -1.1193 -0.0315 -0.9749
   45CHL1   C12 3287   2.462   4.324   7.412  0.0622 -0.0601 -0.4511
   45CHL1  H12A 3288   2.451   4.427   7.453  1.1936 -0.5678  1.2224
   45CHL1  H12B 3289   2.566   4.287   7.420 -0.1765 -0.3717  1.6742
   45CHL1   C11 3290   2.431   4.329   7.258  0.6190  0.7152 -0.1043
   45CHL1  H11A 3291   2.336   4.385   7.247 -0.1684 -0.1909  1.7014
   45CHL1  H11B 3292   2.500   4.399   7.206  0.6940 -0.2961 -1.4120
   45CHL1    C9 3293   2.418   4.190   7.196 -0.1601  1.3850 -0.0803
   45CHL1    H9 3294   2.525   4.158   7.189 -1.0402 -1.8545 -0.6148
   45CHL1   C10 3295   2.373   4.195   7.052  0.2115  0.3839  0.2076
   45CHL1   C19 3296   2.233   4.250   7.039 -0.4006 -0.2459 -0.3230
   45CHL1  H19A 3297   2.182   4.202   7.125 -0.1515 -2.0998 -1.1538
   45CHL1  H19B 3298   2.222   4.360   7.050 -1.6237 -0.2541 -1.2867
   45CHL1  H19C 3299   2.179   4.229   6.944 -0.7038 -0.4546 -0.1030
   45CHL1    C1 3300   2.481   4.273   6.973 -0.0977  0.0180  0.7307
   45CHL1   H1A 3301   2.456   4.379   6.996 -1.8814 -0.3533  0.6650
   45CHL1   H1B 3302   2.584   4.245   7.003  1.4227  2.4409 -1.7202
   45CHL1    C2 3303   2.453   4.265   6.820 -0.0477  0.9191 -0.4020
   45CHL1   H2A 3304   2.527   4.331   6.771  0.5551  1.2104  0.8560
   45CHL1   H2B 3305   2.352   4.308   6.802  0.0399  1.6954  0.8120
   45CHL1   C20 3306   2.411   4.265   7.745 -0.1979 -0.0487  0.4139
   45CHL1   H20 3307   2.301   4.281   7.753  0.2703  3.0493  2.4256
   45CHL1   C21 3308   2.464   4.409   7.718 -0.0553 -0.0456  0.3555
   45CHL1  H21A 3309   2.401   4.454   7.639 -0.1254  1.0050  0.9894
   45CHL1  H21B 3310   2.571   4.413   7.689 -0.1439  0.6174  0.1186
   45CHL1  H21C 3311   2.433   4.471   7.805 -0.3312 -1.9640  1.6932
   45CHL1   C22 3312   2.468   4.210   7.879  0.9991  0.7899  0.5195
   45CHL1  H22A 3313   2.435   4.275   7.962 -1.2558 -1.3784  1.4476
   45CHL1  H22B 3314   2.421   4.110   7.895  0.5738  0.2005 -3.3834
   45CHL1   C23 3315   2.622   4.181   7.887 -0.3518  0.5097 -0.2514
   45CHL1  H23A 3316   2.635   4.098   7.814 -1.0493 -1.2264  1.5131
   45CHL1  H23B 3317   2.677   4.271   7.853 -0.7323  0.0176 -2.3065
   45CHL1   C24 3318   2.651   4.123   8.028 -0.4256 -0.1479 -0.2261
   45CHL1  H24A 3319   2.590   4.170   8.107  0.8284  3.4512 -1.2142
   45CHL1  H24B 3320   2.625   4.015   8.019 -0.1150 -0.0599 -3.3759
   45CHL1   C25 3321   2.797   4.125   8.062 -0.0975 -0.0492 -0.0611
   45CHL1   H25 3322   2.837   4.225   8.034  1.0960 -0.9008 -1.5703
   45CHL1   C26 3323   2.814   4.111   8.219  0.3116  0.0867 -0.1561
   45CHL1  H26A 3324   2.742   4.185   8.260 -2.0118 -0.6535 -2.6223
   45CHL1  H26B 3325   2.789   4.005   8.241  1.4761 -0.7670 -2.5753
   45CHL1  H26C 3326   2.916   4.131   8.257  0.5388 -0.2820 -0.5730
   45CHL1   C27 3327   2.878   4.017   7.983  0.1914 -0.0666  0.4180
   45CHL1  H27A 3328   2.822   3.921   7.974 -1.3566  0.9609 -2.2233
   45CHL1  H27B 3329   2.904   4.046   7.879  0.1948 -0.6549  0.2525
   45CHL1  H27C 3330   2.979   4.017   8.029  0.0168  1.4015  0.8579
   46CHL1    C3 3331   1.882   5.742   6.952 -0.4974  0.5119  0.2244
   46CHL1    H3 3332   1.792   5.677   6.945 -0.6655  0.8163 -0.6484
   46CHL1    O3 3333   1.941   5.778   6.829 -0.0447 -0.2238  0.4074
   46CHL1   H3' 3334   1.960   5.696   6.783  2.3851  0.8059 -0.5706
   46CHL1    C4 3335   1.853   5.867   7.028 -0.0386 -0.5505  0.2204
   46CHL1   H4A 3336   1.938   5.937   7.016 -1.4228  0.7391 -3.2314
   46CHL1   H4B 3337   1.775   5.912   6.963 -0.1611 -2.2805 -0.9054
   46CHL1    C5 3338   1.809   5.844   7.174 -0.4626 -0.0561  0.4224
   46CHL1    C6 3339   1.693   5.893   7.219 -0.1945 -0.1939 -0.2203
   46CHL1    H6 3340   1.620   5.942   7.152  0.9291 -1.7081 -2.6955
   46CHL1    C7 3341   1.647   5.882   7.361  0.7280 -0.5875  0.4578
   46CHL1   H7A 3342   1.624   5.985   7.396 -1.3488 -1.1632  0.9180
   46CHL1   H7B 3343   1.555   5.823   7.376 -0.6410  1.7183  1.8557
   46CHL1    C8 3344   1.757   5.829   7.456 -0.3191 -0.1536 -0.4984
   46CHL1    H8 3345   1.818   5.920   7.476  1.1202 -1.4858  1.3833
   46CHL1   C14 3346   1.701   5.780   7.588 -0.7756  0.6010 -0.3974
   46CHL1   H14 3347   1.643   5.686   7.572 -0.3001  0.2499 -0.0945
   46CHL1   C15 3348   1.599   5.862   7.665  0.2619  0.0932 -0.2448
   46CHL1  H15A 3349   1.634   5.966   7.682  0.2575  0.0793 -0.1470
   46CHL1  H15B 3350   1.499   5.854   7.617 -0.0071 -0.7207  0.4272
   46CHL1   C16 3351   1.597   5.791   7.801  0.1374  0.7193 -0.1953
   46CHL1  H16A 3352   1.621   5.870   7.876 -1.2705  0.1117  0.9533
   46CHL1  H16B 3353   1.502   5.740   7.829  0.7251 -2.9820 -4.0187
   46CHL1   C17 3354   1.719   5.697   7.814  0.4072 -0.0318 -0.0651
   46CHL1   H17 3355   1.673   5.597   7.796 -2.2962  0.4216  3.3926
   46CHL1   C13 3356   1.808   5.728   7.686 -0.4013 -0.9098 -0.2528
   46CHL1   C18 3357   1.896   5.847   7.731 -0.4859  0.8358  0.1340
   46CHL1  H18A 3358   1.988   5.814   7.783  1.1570  3.0774 -1.1748
   46CHL1  H18B 3359   1.936   5.900   7.642  3.5093 -1.6345  0.2350
   46CHL1  H18C 3360   1.831   5.919   7.786 -1.1056 -1.0688  2.0514
   46CHL1   C12 3361   1.887   5.613   7.626  0.3671 -0.6527  0.1533
   46CHL1  H12A 3362   1.973   5.588   7.692  2.6332 -0.2273 -2.4544
   46CHL1  H12B 3363   1.827   5.523   7.602  0.3151 -0.7405  0.6062
   46CHL1   C11 3364   1.944   5.667   7.496 -0.3829  0.0817 -0.6419
   46CHL1  H11A 3365   2.011   5.752   7.522 -0.3202 -0.3123  0.5258
   46CHL1  H11B 3366   2.005   5.581   7.461 -1.0064 -0.6621  0.0789
   46CHL1    C9 3367   1.842   5.720   7.392 -0.1056 -0.0539  0.0604
   46CHL1    H9 3368   1.778   5.630   7.376  1.0856 -0.8420 -0.4330
   46CHL1   C10 3369   1.905   5.763   7.262 -0.0489 -0.5465 -0.6269
   46CHL1   C19 3370   2.024   5.863   7.285  0.1313 -0.2017  0.5097
   46CHL1  H19A 3371   2.102   5.830   7.357  2.0421  3.1305  0.2031
   46CHL1  H19B 3372   2.081   5.872   7.190 -0.4854  2.0145  0.2962
   46CHL1  H19C 3373   1.984   5.954   7.334 -2.4052 -0.2885 -1.2208
   46CHL1    C1 3374   1.951   5.639   7.177  0.4476 -0.4175  0.1565
   46CHL1   H1A 3375   2.026   5.583   7.236  0.4029  1.2723  1.9204
   46CHL1   H1B 3376   1.860   5.576   7.178  0.2114 -0.0870 -0.1433
   46CHL1    C2 3377   1.987   5.662   7.033  0.0193  0.1587  0.3492
   46CHL1   H2A 3378   1.994   5.561   6.986 -0.9172  0.1145  0.2848
   46CHL1   H2B 3379   2.088   5.707   7.022  1.2160 -2.5074 -0.6241
   46CHL1   C20 3380   1.783   5.695   7.953 -0.2386  0.2562 -0.3146
   46CHL1   H20 3381   1.851   5.782   7.962  0.0087  0.2489 -1.8123
   46CHL1   C21 3382   1.876   5.575   7.966 -0.2852  0.5544 -0.2797
   46CHL1  H21A 3383   1.834   5.476   7.935  1.3155 -0.6391  1.2041
   46CHL1  H21B 3384   1.900   5.569   8.074 -2.7736 -1.1393  0.2841
   46CHL1  H21C 3385   1.976   5.603   7.928  0.1422  2.1745  1.8386
   46CHL1   C22 3386   1.683   5.701   8.077 -0.2273  0.3619 -0.9643
   46CHL1  H22A 3387   1.607   5.781   8.060 -0.9080 -0.0235  0.1237
   46CHL1  H22B 3388   1.647   5.596   8.082  1.8732 -0.3812 -0.2325
   46CHL1   C23 3389   1.752   5.733   8.213  0.2185 -1.0126  0.1993
   46CHL1  H23A 3390   1.682   5.718   8.298  0.0419 -1.1869  0.0227
   46CHL1  H23B 3391   1.838   5.669   8.241 -0.9361 -1.0543  4.4952
   46CHL1   C24 3392   1.793   5.885   8.227  0.0779  0.3220 -0.3297
   46CHL1  H24A 3393   1.890   5.895   8.172  0.4480 -2.8713 -0.4473
   46CHL1  H24B 3394   1.714   5.948   8.182  0.3545  0.6090 -0.4153
   46CHL1   C25 3395   1.830   5.935   8.369 -0.4371  0.1120 -0.0217
   46CHL1   H25 3396   1.849   6.040   8.337  0.3165 -0.5537 -1.9219
   46CHL1   C26 3397   1.720   5.936   8.479  0.0021 -0.1083  0.3002
   46CHL1  H26A 3398   1.755   5.942   8.584 -0.4855 -1.4775  0.5599
   46CHL1  H26B 3399   1.661   6.029   8.462 -0.0159 -0.4378 -1.8133
   46CHL1  H26C 3400   1.653   5.849   8.465 -0.8408  0.8238 -2.0466
   46CHL1   C27 3401   1.962   5.872   8.413 -0.1129 -0.0365 -0.2428
   46CHL1  H27A 3402   1.972   5.765   8.386  2.8806 -0.3111  1.5379
   46CHL1  H27B 3403   2.050   5.927   8.374 -1.3100  2.5856  0.4970
   46CHL1  H27C 3404   1.968   5.884   8.523 -3.7698  0.6958  0.0277
   47CHL1    C3 3405   0.758   5.993   6.766 -0.2817  0.0261 -0.2653
   47CHL1    H3 3406   0.798   6.096   6.776 -2.6186  0.8860  0.7802
   47CHL1    O3 3407   0.748   5.962   6.629 -0.1841 -0.0852  0.5040
   47CHL1   H3' 3408   0.656   5.972   6.603  0.1292  0.4405 -0.4464
   47CHL1    C4 3409   0.845   5.883   6.837  0.1689 -0.3211  1.0070
   47CHL1   H4A 3410   0.813   5.785   6.795 -0.2342  0.6652 -1.1102
   47CHL1   H4B 3411   0.950   5.899   6.805  0.7902  1.4835  3.5794
   47CHL1    C5 3412   0.832   5.889   6.994 -1.0997  0.4206  0.6811
   47CHL1    C6 3413   0.953   5.883   7.058 -0.8089  0.6533 -0.3534
   47CHL1    H6 3414   1.042   5.870   6.995 -0.7671 -1.6593  0.0780
   47CHL1    C7 3415   0.962   5.900   7.210 -0.5304  0.5575 -0.1316
   47CHL1   H7A 3416   1.037   5.834   7.259 -0.2417  0.3626 -0.8145
   47CHL1   H7B 3417   0.984   6.006   7.236  0.9507  0.1319  0.4711
   47CHL1    C8 3418   0.820   5.872   7.281  0.2127 -0.2280  1.0929
   47CHL1    H8 3419   0.805   5.762   7.282 -0.8591 -0.1162 -0.0566
   47CHL1   C14 3420   0.826   5.924   7.421  0.6573 -0.5483 -0.5796
   47CHL1   H14 3421   0.845   6.033   7.412  2.1914 -0.8858 -1.7470
   47CHL1   C15 3422   0.938   5.878   7.511  0.9061  0.2017 -0.4628
   47CHL1  H15A 3423   0.971   5.775   7.485  1.3309  0.5753 -1.4529
   47CHL1  H15B 3424   1.030   5.939   7.498  0.6288  1.2021  1.7396
   47CHL1   C16 3425   0.887   5.890   7.655  0.2471  0.3779 -0.0053
   47CHL1  H16A 3426   0.887   5.792   7.708  0.3331  0.9101  1.0103
   47CHL1  H16B 3427   0.956   5.958   7.711 -1.0936 -0.8500  3.3916
   47CHL1   C17 3428   0.739   5.937   7.648 -0.0426 -0.8827  0.9169
   47CHL1   H17 3429   0.755   6.047   7.640  0.1282 -0.9520  0.2369
   47CHL1   C13 3430   0.694   5.895   7.500  0.7822  0.2266  0.0121
   47CHL1   C18 3431   0.657   5.741   7.497  0.0100 -0.4284 -0.2774
   47CHL1  H18A 3432   0.742   5.680   7.534  1.2308  1.2402 -0.2443
   47CHL1  H18B 3433   0.571   5.723   7.566 -0.0234  0.8457  0.0282
   47CHL1  H18C 3434   0.626   5.694   7.401 -1.3557 -0.7994  0.3136
   47CHL1   C12 3435   0.578   5.972   7.427 -0.0857 -0.4665  0.7467
   47CHL1  H12A 3436   0.486   5.936   7.478 -0.2028  0.6972  1.4107
   47CHL1  H12B 3437   0.598   6.081   7.435  1.4736 -0.3877 -2.6762
   47CHL1   C11 3438   0.571   5.936   7.274  0.5167 -0.1164  0.1996
   47CHL1  H11A 3439   0.528   5.834   7.278  1.2408 -0.4013  1.5796
   47CHL1  H11B 3440   0.499   6.008   7.230  2.0720 -0.4823 -3.3033
   47CHL1    C9 3441   0.710   5.941   7.198  0.2776  0.0737 -0.0926
   47CHL1    H9 3442   0.743   6.047   7.202 -2.1080  0.8573  3.2431
   47CHL1   C10 3443   0.695   5.900   7.054 -0.1723 -0.3978  0.0859
   47CHL1   C19 3444   0.623   5.760   7.041  0.4976 -0.4680  0.1574
   47CHL1  H19A 3445   0.513   5.771   7.041  0.5547  0.4958 -1.4646
   47CHL1  H19B 3446   0.646   5.700   6.950 -1.4375 -1.0355  0.0049
   47CHL1  H19C 3447   0.659   5.697   7.125 -0.8049 -1.6113 -0.1115
   47CHL1    C1 3448   0.607   6.003   6.973 -0.0245  0.5145  0.5263
   47CHL1   H1A 3449   0.500   5.996   7.001 -0.3007  0.4921 -0.4918
   47CHL1   H1B 3450   0.631   6.104   7.012 -2.0040  0.6382  1.5618
   47CHL1    C2 3451   0.613   5.985   6.815 -0.4634  0.1025 -0.1687
   47CHL1   H2A 3452   0.550   6.055   6.756 -1.1825 -2.3309 -2.5139
   47CHL1   H2B 3453   0.564   5.889   6.785 -2.2273  0.9887 -0.2917
   47CHL1   C20 3454   0.653   5.900   7.770  0.8414  0.1477  0.0427
   47CHL1   H20 3455   0.637   5.790   7.773 -0.8025  0.1921 -3.0943
   47CHL1   C21 3456   0.516   5.973   7.765  0.0376  0.1418  0.2401
   47CHL1  H21A 3457   0.466   5.944   7.860  0.0401  1.9031  0.8083
   47CHL1  H21B 3458   0.443   5.950   7.684  0.6169 -0.9731  0.0082
   47CHL1  H21C 3459   0.535   6.082   7.762  1.6637 -0.1209 -0.8706
   47CHL1   C22 3460   0.719   5.934   7.900  0.1164  0.0406  0.1871
   47CHL1  H22A 3461   0.823   5.897   7.897  0.0094 -0.4073  1.5039
   47CHL1  H22B 3462   0.725   6.045   7.907 -1.0836  0.1190  0.2849
   47CHL1   C23 3463   0.648   5.874   8.023 -0.6025 -0.2214 -0.1539
   47CHL1  H23A 3464   0.561   5.941   8.040 -1.3969 -1.1091 -0.5698
   47CHL1  H23B 3465   0.610   5.771   8.004  0.1770 -0.7311  0.9606
   47CHL1   C24 3466   0.709   5.903   8.160  0.0557  0.4732 -0.3395
   47CHL1  H24A 3467   0.798   5.838   8.175 -0.6683 -0.5756 -0.4478
   47CHL1  H24B 3468   0.739   6.009   8.169 -2.1189  1.1601 -0.6374
   47CHL1   C25 3469   0.619   5.862   8.283 -0.0092  0.0850 -0.2595
   47CHL1   H25 3470   0.514   5.895   8.270 -0.3501 -0.9904 -0.2786
   47CHL1   C26 3471   0.604   5.705   8.284 -0.6238 -0.6396  0.8595
   47CHL1  H26A 3472   0.702   5.654   8.285 -1.1030 -1.7926 -1.7969
   47CHL1  H26B 3473   0.550   5.677   8.378 -1.2722 -1.4436  0.2658
   47CHL1  H26C 3474   0.548   5.670   8.195  1.6119  0.2371 -0.9869
   47CHL1   C27 3475   0.668   5.922   8.415 -0.2474 -0.0319  0.5393
   47CHL1  H27A 3476   0.772   5.901   8.447  1.3450  3.4874 -1.6224
   47CHL1  H27B 3477   0.674   6.031   8.393 -1.2072  0.5946  3.1045
   47CHL1  H27C 3478   0.610   5.904   8.508  0.4907 -1.0257  0.8153
   48CHL1    C3 3479   5.493   1.082   6.274  0.1305  1.3377 -0.4285
   48CHL1    H3 3480   5.581   1.021   6.246 -0.3098 -0.0439  1.0084
   48CHL1    O3 3481   5.413   1.107   6.161  0.0264 -0.2199  0.4723
   48CHL1   H3' 3482   5.338   1.162   6.186  0.8166  1.6383 -0.9923
   48CHL1    C4 3483   5.406   0.997   6.370  0.1141 -0.7501  0.4223
   48CHL1   H4A 3484   5.304   1.038   6.380  0.5505  0.1560  1.4188
   48CHL1   H4B 3485   5.395   0.901   6.316  0.5831 -0.4609 -0.1969
   48CHL1    C5 3486   5.466   0.964   6.508  0.3593  0.1655 -0.3658
   48CHL1    C6 3487   5.474   0.835   6.562  0.2020 -0.6150  1.0632
   48CHL1    H6 3488   5.437   0.744   6.513  0.3358  0.6694 -1.5895
   48CHL1    C7 3489   5.544   0.820   6.690 -1.2207  0.5784 -0.4915
   48CHL1   H7A 3490   5.488   0.756   6.761 -0.0307  1.5922  1.4411
   48CHL1   H7B 3491   5.643   0.775   6.666 -0.5408  1.0557  1.2793
   48CHL1    C8 3492   5.577   0.942   6.768  0.2470 -0.1257  0.2395
   48CHL1    H8 3493   5.479   0.965   6.814 -1.2271 -1.7510 -1.8579
   48CHL1   C14 3494   5.686   0.913   6.866  0.0461  0.0792  0.0626
   48CHL1   H14 3495   5.782   0.884   6.816  0.0264 -0.4142  0.3060
   48CHL1   C15 3496   5.662   0.792   6.956 -0.0231  0.3906  0.4811
   48CHL1  H15A 3497   5.557   0.788   6.993  0.1891  0.1376  1.0722
   48CHL1  H15B 3498   5.684   0.707   6.889 -1.3340  0.6742 -0.3446
   48CHL1   C16 3499   5.757   0.816   7.076  0.1678 -0.2016  0.0937
   48CHL1  H16A 3500   5.699   0.816   7.170  1.1866 -0.4279  0.7379
   48CHL1  H16B 3501   5.839   0.741   7.083  0.2410 -0.2449 -0.9848
   48CHL1   C17 3502   5.826   0.955   7.057  0.5455 -0.2554 -0.2594
   48CHL1   H17 3503   5.919   0.933   7.002  1.0159 -0.0016  0.4240
   48CHL1   C13 3504   5.732   1.025   6.962 -0.9531 -0.5744  0.5129
   48CHL1   C18 3505   5.619   1.077   7.045  0.6455 -0.6392 -0.3985
   48CHL1  H18A 3506   5.581   0.996   7.112 -0.3167  0.3308  0.2684
   48CHL1  H18B 3507   5.642   1.164   7.111 -0.2736 -2.1697  2.0987
   48CHL1  H18C 3508   5.521   1.102   6.999  0.8660  1.0444 -0.0160
   48CHL1   C12 3509   5.789   1.141   6.871 -0.2588  0.7324 -0.2086
   48CHL1  H12A 3510   5.807   1.233   6.931  0.8189 -0.0351  0.6927
   48CHL1  H12B 3511   5.885   1.119   6.820 -0.8549  1.9139 -1.9439
   48CHL1   C11 3512   5.682   1.182   6.772 -0.0132 -0.5169  0.5127
   48CHL1  H11A 3513   5.608   1.231   6.839  0.2847 -0.7295  1.0063
   48CHL1  H11B 3514   5.730   1.253   6.701  0.2856 -2.2080 -1.0453
   48CHL1    C9 3515   5.631   1.059   6.684  0.1772 -0.2290 -0.4869
   48CHL1    H9 3516   5.723   1.021   6.634 -0.1109 -1.3866 -0.1709
   48CHL1   C10 3517   5.532   1.088   6.569 -0.2144 -0.3863  0.1535
   48CHL1   C19 3518   5.419   1.179   6.627 -1.0035  0.0680 -0.4555
   48CHL1  H19A 3519   5.370   1.127   6.712 -1.3681 -1.3366 -1.4861
   48CHL1  H19B 3520   5.467   1.272   6.665 -1.6092 -0.3692  1.4965
   48CHL1  H19C 3521   5.345   1.202   6.547  0.3145 -1.3293 -2.1466
   48CHL1    C1 3522   5.616   1.171   6.465  0.4909 -0.3012 -0.5704
   48CHL1   H1A 3523   5.659   1.261   6.514  2.9052 -0.1899 -2.7120
   48CHL1   H1B 3524   5.706   1.112   6.435  2.1449  0.5985  2.2268
   48CHL1    C2 3525   5.537   1.204   6.342  0.3475 -0.2599  0.0619
   48CHL1   H2A 3526   5.600   1.252   6.263 -0.8109  3.2735  1.0993
   48CHL1   H2B 3527   5.450   1.270   6.363 -0.0321 -0.4345 -0.8759
   48CHL1   C20 3528   5.867   1.028   7.190 -0.4990  0.0840  0.7615
   48CHL1   H20 3529   5.769   1.064   7.227 -2.5043 -2.8105 -1.2479
   48CHL1   C21 3530   5.959   1.134   7.152 -0.0507  0.2334 -0.0457
   48CHL1  H21A 3531   6.005   1.181   7.242 -0.8809  0.3498  0.3272
   48CHL1  H21B 3532   5.915   1.217   7.092  0.8730  0.1847 -0.8284
   48CHL1  H21C 3533   6.048   1.086   7.105 -1.0510 -0.5873 -1.1512
   48CHL1   C22 3534   5.928   0.935   7.290 -0.5357 -0.3998  0.5965
   48CHL1  H22A 3535   5.853   0.856   7.310 -2.0112  0.8931  0.3444
   48CHL1  H22B 3536   6.026   0.898   7.252 -0.0389  0.4021  1.0552
   48CHL1   C23 3537   5.955   0.993   7.437  0.3296  1.4446  0.2063
   48CHL1  H23A 3538   6.025   0.919   7.481 -1.3978  1.1428  2.6177
   48CHL1  H23B 3539   6.017   1.082   7.413 -0.8386  1.6852 -2.2324
   48CHL1   C24 3540   5.829   1.037   7.505  0.0037 -0.0021  0.2713
   48CHL1  H24A 3541   5.775   1.112   7.443 -0.9077 -0.0561  0.9787
   48CHL1  H24B 3542   5.750   0.959   7.510  0.7185 -0.8726 -1.3654
   48CHL1   C25 3543   5.848   1.090   7.643  0.4953 -0.6642  0.6656
   48CHL1   H25 3544   5.939   1.051   7.692  1.0270 -0.4338 -0.1184
   48CHL1   C26 3545   5.869   1.238   7.640 -0.2821 -0.8415 -0.6780
   48CHL1  H26A 3546   5.943   1.271   7.565 -1.6954 -0.1754 -1.8270
   48CHL1  H26B 3547   5.776   1.285   7.601 -0.4284 -2.6249 -2.6501
   48CHL1  H26C 3548   5.890   1.279   7.741 -0.2572 -0.0471 -0.9984
   48CHL1   C27 3549   5.736   1.048   7.732  0.1701  0.0732 -0.5691
   48CHL1  H27A 3550   5.637   1.063   7.684 -0.2225  1.3382  0.5668
   48CHL1  H27B 3551   5.740   0.941   7.759 -3.0280 -0.1302 -0.5979
   48CHL1  H27C 3552   5.746   1.103   7.829  1.3184 -2.9088  1.1398
   49CHL1    C3 3553   3.860   2.646   6.773 -0.5540 -0.2962  0.5837
   49CHL1    H3 3554   3.889   2.539   6.765 -2.6753 -0.7479 -2.5881
   49CHL1    O3 3555   3.823   2.685   6.640 -0.3872 -0.3061  0.4601
   49CHL1   H3' 3556   3.775   2.767   6.653 -1.4064 -1.0430  1.5142
   49CHL1    C4 3557   3.746   2.668   6.873 -0.3434 -0.4400  0.0542
   49CHL1   H4A 3558   3.724   2.777   6.873  1.3989 -0.0433 -1.7984
   49CHL1   H4B 3559   3.655   2.621   6.830 -1.7211  1.1831  1.0403
   49CHL1    C5 3560   3.774   2.641   7.017  0.0335  0.0676 -0.0534
   49CHL1    C6 3561   3.710   2.553   7.082 -0.2069 -0.1337 -0.3545
   49CHL1    H6 3562   3.625   2.504   7.034 -1.8889 -0.5339  2.7705
   49CHL1    C7 3563   3.739   2.520   7.226  0.0136 -0.0885  0.2349
   49CHL1   H7A 3564   3.649   2.499   7.288 -0.2370  1.8347  0.6011
   49CHL1   H7B 3565   3.793   2.424   7.236 -0.5579 -0.4166  0.2049
   49CHL1    C8 3566   3.829   2.622   7.299  0.1655 -0.1988 -0.1171
   49CHL1    H8 3567   3.761   2.708   7.314  1.0706  0.4543  0.2597
   49CHL1   C14 3568   3.884   2.574   7.442  0.2818  0.2849  0.0908
   49CHL1   H14 3569   3.962   2.502   7.412  0.0553 -0.3436  0.9655
   49CHL1   C15 3570   3.784   2.512   7.531  0.2165  0.6950 -0.1493
   49CHL1  H15A 3571   3.686   2.564   7.541 -0.1851 -0.2876  1.3084
   49CHL1  H15B 3572   3.766   2.408   7.496 -1.5367  0.6445  0.7634
   49CHL1   C16 3573   3.858   2.516   7.667  0.1311  0.1150  0.0225
   49CHL1  H16A 3574   3.791   2.566   7.741 -1.0118 -1.9480  0.4759
   49CHL1  H16B 3575   3.889   2.415   7.702 -0.4106 -0.8544 -2.1222
   49CHL1   C17 3576   3.985   2.601   7.644 -0.5768 -0.4357 -0.0629
   49CHL1   H17 3577   4.061   2.529   7.606 -1.5445 -1.9479  0.7766
   49CHL1   C13 3578   3.961   2.682   7.515 -0.0314 -0.9715 -0.3680
   49CHL1   C18 3579   3.873   2.806   7.544 -0.0330  0.5312 -0.1116
   49CHL1  H18A 3580   3.936   2.870   7.610 -2.2052  2.9041 -0.1987
   49CHL1  H18B 3581   3.846   2.864   7.454 -0.5337 -1.2706 -1.1843
   49CHL1  H18C 3582   3.790   2.774   7.610 -0.8762  0.8155 -1.0069
   49CHL1   C12 3583   4.080   2.730   7.433 -0.4358  0.6822 -0.0881
   49CHL1  H12A 3584   4.138   2.812   7.480 -0.7071  1.4844 -1.1163
   49CHL1  H12B 3585   4.144   2.639   7.434  0.1584  1.0899  1.4164
   49CHL1   C11 3586   4.040   2.773   7.290 -0.9927  0.3269  0.9439
   49CHL1  H11A 3587   3.999   2.874   7.309  0.1468  1.0856 -0.5088
   49CHL1  H11B 3588   4.130   2.792   7.229 -0.0598  0.5084  2.3256
   49CHL1    C9 3589   3.950   2.679   7.209 -0.8294  0.7292  0.2009
   49CHL1    H9 3590   4.017   2.591   7.196  0.8273  1.5881  2.3464
   49CHL1   C10 3591   3.898   2.717   7.066  0.7270 -0.2793 -0.8216
   49CHL1   C19 3592   3.860   2.866   7.083 -0.3835 -0.1171  0.1991
   49CHL1  H19A 3593   3.823   2.887   7.185  0.4593 -1.3437  0.7753
   49CHL1  H19B 3594   3.954   2.925   7.087 -1.4215  1.5505  1.3577
   49CHL1  H19C 3595   3.795   2.899   6.998  0.6025 -3.3581 -2.0101
   49CHL1    C1 3596   4.008   2.692   6.964 -0.3374  0.3281 -0.2100
   49CHL1   H1A 3597   4.087   2.762   6.999 -0.0782  0.3576 -0.8336
   49CHL1   H1B 3598   4.051   2.589   6.958 -2.6219 -0.7630  0.8955
   49CHL1    C2 3599   3.973   2.728   6.822 -0.3585  0.5284 -0.4654
   49CHL1   H2A 3600   4.059   2.711   6.754 -1.1582  2.2654 -2.0085
   49CHL1   H2B 3601   3.948   2.836   6.811  1.2698  1.0976  0.9978
   49CHL1   C20 3602   4.049   2.663   7.772 -0.6716 -0.1926 -1.2640
   49CHL1   H20 3603   3.982   2.741   7.814  1.7934  0.3661  1.9858
   49CHL1   C21 3604   4.181   2.733   7.734 -0.8939 -0.3570 -0.1709
   49CHL1  H21A 3605   4.152   2.831   7.690 -1.6415 -1.3872 -2.0755
   49CHL1  H21B 3606   4.246   2.669   7.671  1.2892  0.8747  0.7268
   49CHL1  H21C 3607   4.239   2.765   7.823  0.5868  0.7201 -1.4777
   49CHL1   C22 3608   4.066   2.556   7.882 -0.3129  0.7439  0.7906
   49CHL1  H22A 3609   3.984   2.482   7.888 -1.0284  1.4981  0.5209
   49CHL1  H22B 3610   4.152   2.496   7.845  0.0764  0.3502  2.2782
   49CHL1   C23 3611   4.092   2.609   8.022 -0.1011  0.1966  0.0173
   49CHL1  H23A 3612   4.086   2.515   8.082  1.1569  2.2804  3.7114
   49CHL1  H23B 3613   4.190   2.661   8.028 -0.3497  0.4984  3.8551
   49CHL1   C24 3614   3.979   2.699   8.081 -0.1305  0.3725  0.7749
   49CHL1  H24A 3615   3.985   2.794   8.025 -0.3089 -0.3372 -0.4959
   49CHL1  H24B 3616   3.877   2.661   8.061  0.0406  0.3506 -0.0939
   49CHL1   C25 3617   3.994   2.718   8.230 -0.0127 -0.2761  0.0540
   49CHL1   H25 3618   4.093   2.765   8.245 -0.5582  0.4888  1.4903
   49CHL1   C26 3619   3.891   2.825   8.278 -0.9699 -0.0746 -0.2619
   49CHL1  H26A 3620   3.796   2.768   8.276  1.0820 -3.8360  0.1610
   49CHL1  H26B 3621   3.910   2.869   8.379 -1.7633  0.4483 -0.3315
   49CHL1  H26C 3622   3.888   2.911   8.208 -1.9987  0.8443  0.8683
   49CHL1   C27 3623   3.967   2.581   8.296 -0.0382 -0.4568 -1.2379
   49CHL1  H27A 3624   4.037   2.497   8.278  0.5955 -0.2307  0.1286
   49CHL1  H27B 3625   3.988   2.607   8.401 -0.5271 -2.0500 -0.7085
   49CHL1  H27C 3626   3.859   2.552   8.298 -0.0544 -0.3584 -0.5901
   50CHL1    C3 3627   3.747   4.170   6.692 -0.4831 -0.7026  0.1485
   50CHL1    H3 3628   3.671   4.246   6.717  1.4592  1.5666 -0.4996
   50CHL1    O3 3629   3.791   4.191   6.554 -0.3394  0.0884 -0.2058
   50CHL1   H3' 3630   3.852   4.264   6.544  0.9715 -1.1971 -2.5278
   50CHL1    C4 3631   3.876   4.178   6.765 -0.6461  0.4685 -0.6113
   50CHL1   H4A 3632   3.954   4.118   6.714 -0.0607  0.0750  0.7012
   50CHL1   H4B 3633   3.910   4.283   6.753 -0.5158  0.4087 -0.7752
   50CHL1    C5 3634   3.841   4.145   6.918  0.0388  0.1714  0.5554
   50CHL1    C6 3635   3.846   4.240   7.016 -0.7287 -0.1285 -0.3066
   50CHL1    H6 3636   3.886   4.341   7.004  0.4725 -0.3972  1.0449
   50CHL1    C7 3637   3.828   4.204   7.160  0.3338  0.1436  0.2837
   50CHL1   H7A 3638   3.916   4.243   7.215 -0.4870  1.4077  0.7634
   50CHL1   H7B 3639   3.732   4.250   7.191 -0.4240 -0.7695 -0.6164
   50CHL1    C8 3640   3.826   4.046   7.185 -0.0772 -0.4101 -0.6595
   50CHL1    H8 3641   3.932   4.020   7.165  0.6457  1.9276 -0.2494
   50CHL1   C14 3642   3.772   4.012   7.323 -0.7587 -0.9992 -0.4394
   50CHL1   H14 3643   3.665   4.035   7.307 -0.3846 -0.5780 -2.6715
   50CHL1   C15 3644   3.852   4.092   7.435 -0.1933 -0.1368 -0.5051
   50CHL1  H15A 3645   3.962   4.102   7.420  0.2363 -0.8049  1.8113
   50CHL1  H15B 3646   3.808   4.193   7.450 -0.7829 -0.5477  0.6967
   50CHL1   C16 3647   3.823   3.999   7.555  0.0253  0.3701  0.9726
   50CHL1  H16A 3648   3.927   3.978   7.587  1.1043  1.9210 -1.2113
   50CHL1  H16B 3649   3.758   4.049   7.629  1.0925  0.9685  1.5168
   50CHL1   C17 3650   3.755   3.865   7.508  0.1349  0.4002 -0.3425
   50CHL1   H17 3651   3.645   3.873   7.512  0.1757  1.1873 -0.6646
   50CHL1   C13 3652   3.783   3.860   7.356  0.9409  0.1836  0.1497
   50CHL1   C18 3653   3.925   3.799   7.334  0.2013  0.0592 -0.2873
   50CHL1  H18A 3654   3.943   3.809   7.225 -1.9815  2.0902 -0.5282
   50CHL1  H18B 3655   4.000   3.849   7.399  0.7271 -3.0724  1.7782
   50CHL1  H18C 3656   3.923   3.690   7.357 -0.4971 -0.3346 -2.0181
   50CHL1   C12 3657   3.677   3.797   7.257 -1.5586  0.0914  0.2097
   50CHL1  H12A 3658   3.674   3.688   7.278  1.6303 -0.3416 -0.9790
   50CHL1  H12B 3659   3.576   3.840   7.277 -1.2159  2.0440 -1.7368
   50CHL1   C11 3660   3.712   3.821   7.111  0.5536 -0.3920 -0.2398
   50CHL1  H11A 3661   3.806   3.767   7.086  1.1141 -0.8310  2.4672
   50CHL1  H11B 3662   3.624   3.791   7.049 -0.1505  0.5445  0.2754
   50CHL1    C9 3663   3.740   3.973   7.082  0.1255 -0.3640  1.0888
   50CHL1    H9 3664   3.640   4.021   7.090  0.3504  0.2001  0.6526
   50CHL1   C10 3665   3.793   4.001   6.937 -0.6140 -0.3192  0.0684
   50CHL1   C19 3666   3.914   3.913   6.894  0.0989  0.2277  0.5587
   50CHL1  H19A 3667   3.933   3.931   6.786  0.5988 -2.7323  0.0643
   50CHL1  H19B 3668   4.005   3.941   6.951  1.0029 -1.6421  0.1314
   50CHL1  H19C 3669   3.895   3.804   6.905 -1.5757  0.5408  0.9259
   50CHL1    C1 3670   3.673   3.966   6.839 -0.5929  0.3292 -0.5259
   50CHL1   H1A 3671   3.656   3.856   6.841 -0.1877  0.2009  3.7418
   50CHL1   H1B 3672   3.578   4.007   6.881 -1.9725 -0.5734 -2.5717
   50CHL1    C2 3673   3.695   4.024   6.701  0.3158 -0.0706  0.0923
   50CHL1   H2A 3674   3.599   4.015   6.646  1.6547 -2.6985 -2.0384
   50CHL1   H2B 3675   3.763   3.957   6.644 -1.0145 -0.9977 -0.4557
   50CHL1   C20 3676   3.795   3.746   7.598  0.3805  0.2639 -0.1898
   50CHL1   H20 3677   3.896   3.711   7.569  0.3316 -3.7549  3.4490
   50CHL1   C21 3678   3.691   3.632   7.573 -0.0753 -0.0663  0.4762
   50CHL1  H21A 3679   3.586   3.665   7.593  0.0827  0.7419  0.0465
   50CHL1  H21B 3680   3.719   3.543   7.633  2.5194 -0.5695 -1.3369
   50CHL1  H21C 3681   3.691   3.604   7.466 -0.2627  0.8262  0.2278
   50CHL1   C22 3682   3.810   3.783   7.747  0.3026 -0.5397  0.5489
   50CHL1  H22A 3683   3.905   3.840   7.750 -0.9609  1.6150  0.9318
   50CHL1  H22B 3684   3.724   3.845   7.779 -0.2318 -1.1165  0.2527
   50CHL1   C23 3685   3.828   3.673   7.857 -0.1985  0.0679  0.4770
   50CHL1  H23A 3686   3.741   3.604   7.857  0.4266 -0.8153  2.7889
   50CHL1  H23B 3687   3.918   3.617   7.822  0.0905  0.8612 -0.0811
   50CHL1   C24 3688   3.857   3.730   7.988 -0.5717  0.4185  0.0496
   50CHL1  H24A 3689   3.956   3.779   7.977 -0.5193  1.2171  3.2063
   50CHL1  H24B 3690   3.781   3.810   8.005 -0.7501  0.4827 -0.9744
   50CHL1   C25 3691   3.858   3.641   8.114 -0.9648 -0.3833 -0.9481
   50CHL1   H25 3692   3.945   3.577   8.087  0.5842  0.5073  1.6790
   50CHL1   C26 3693   3.908   3.719   8.234 -0.0625 -0.4505  0.4847
   50CHL1  H26A 3694   3.830   3.787   8.272  0.9083 -1.1521  4.1415
   50CHL1  H26B 3695   3.931   3.646   8.314 -0.1507 -2.4282 -1.2027
   50CHL1  H26C 3696   4.004   3.770   8.209 -1.0376  1.1610 -0.0866
   50CHL1   C27 3697   3.725   3.561   8.143 -0.2223 -0.3916  0.1896
   50CHL1  H27A 3698   3.639   3.632   8.144  0.5541  0.5665  0.5927
   50CHL1  H27B 3699   3.714   3.492   8.056 -0.3727  0.1458 -0.2234
   50CHL1  H27C 3700   3.739   3.503   8.237  0.7636  0.1153  0.3638
   51CHL1    C3 3701   4.388   1.652   6.856 -1.2010 -0.1803 -0.7504
   51CHL1    H3 3702   4.455   1.566   6.876 -1.6590 -0.6647 -1.2551
   51CHL1    O3 3703   4.397   1.674   6.719  0.5111  0.6333  0.2445
   51CHL1   H3' 3704   4.379   1.769   6.725  2.1695  1.0297 -0.5517
   51CHL1    C4 3705   4.241   1.635   6.882  0.1145  0.6302  0.5553
   51CHL1   H4A 3706   4.178   1.719   6.845 -0.1965 -0.7076 -2.2550
   51CHL1   H4B 3707   4.193   1.550   6.829 -1.7312  1.4952  0.7711
   51CHL1    C5 3708   4.206   1.618   7.030 -0.1180  0.2867 -0.1799
   51CHL1    C6 3709   4.141   1.517   7.074 -0.0636  0.5088 -0.6384
   51CHL1    H6 3710   4.104   1.439   7.007 -2.2133 -0.5010  1.5867
   51CHL1    C7 3711   4.101   1.496   7.216  0.2992 -0.2407  0.2712
   51CHL1   H7A 3712   3.993   1.472   7.220  0.2015  0.1167 -0.1705
   51CHL1   H7B 3713   4.148   1.405   7.262 -2.3985 -1.8090  0.1347
   51CHL1    C8 3714   4.130   1.617   7.308  0.4318 -0.0980 -0.4179
   51CHL1    H8 3715   4.046   1.689   7.300  0.4769  0.2330  1.5659
   51CHL1   C14 3716   4.130   1.575   7.452  0.5083 -0.8546 -0.3842
   51CHL1   H14 3717   4.223   1.518   7.476 -0.0541 -2.0081 -0.8797
   51CHL1   C15 3718   4.020   1.479   7.505 -0.1180 -0.5687 -0.2816
   51CHL1  H15A 3719   3.915   1.507   7.482 -0.4946 -1.7920 -0.1218
   51CHL1  H15B 3720   4.026   1.377   7.460 -0.6866 -1.4858  1.6076
   51CHL1   C16 3721   4.035   1.485   7.657  0.0584  0.1797  0.1541
   51CHL1  H16A 3722   3.931   1.497   7.694 -0.2403 -0.5438 -0.4355
   51CHL1  H16B 3723   4.093   1.407   7.710  0.5664  0.3080 -0.1983
   51CHL1   C17 3724   4.132   1.605   7.679 -0.0491 -0.0272  0.1672
   51CHL1   H17 3725   4.228   1.549   7.689 -0.7589 -0.9057  3.4001
   51CHL1   C13 3726   4.137   1.691   7.554 -0.0819 -0.2756  0.3373
   51CHL1   C18 3727   4.010   1.775   7.545  0.8623 -0.4944  0.2621
   51CHL1  H18A 3728   4.006   1.815   7.441 -1.8874 -0.8978  0.1335
   51CHL1  H18B 3729   3.919   1.715   7.566  3.3111 -3.3790  4.0414
   51CHL1  H18C 3730   4.003   1.863   7.613 -2.7132  0.0366 -0.6241
   51CHL1   C12 3731   4.261   1.780   7.519  0.2064  0.2776  0.8011
   51CHL1  H12A 3732   4.256   1.869   7.584 -0.3086  1.0021 -0.2061
   51CHL1  H12B 3733   4.353   1.719   7.536  1.6586  1.5893 -1.7396
   51CHL1   C11 3734   4.282   1.819   7.368 -0.1424  0.1024 -0.5478
   51CHL1  H11A 3735   4.213   1.905   7.352 -0.0082  0.3794  0.3159
   51CHL1  H11B 3736   4.384   1.851   7.338  1.6528 -3.5507  0.9921
   51CHL1    C9 3737   4.254   1.700   7.273 -0.3822  0.7512 -0.5970
   51CHL1    H9 3738   4.338   1.633   7.301 -1.2217 -0.2901 -0.5038
   51CHL1   C10 3739   4.269   1.731   7.125 -0.1947 -0.0745 -0.4025
   51CHL1   C19 3740   4.175   1.851   7.088 -0.2497  0.1481 -0.2127
   51CHL1  H19A 3741   4.205   1.944   7.140 -1.7386  0.3356  0.3629
   51CHL1  H19B 3742   4.165   1.872   6.979 -0.5780 -1.7772 -0.5894
   51CHL1  H19C 3743   4.077   1.822   7.133  0.8210 -1.3724  1.2413
   51CHL1    C1 3744   4.415   1.763   7.086  0.0565  0.1429 -0.2100
   51CHL1   H1A 3745   4.455   1.852   7.139  1.7834  0.4441 -1.8830
   51CHL1   H1B 3746   4.470   1.677   7.131 -0.9680  0.5184  1.8383
   51CHL1    C2 3747   4.435   1.775   6.929 -0.9755  0.0828 -0.3752
   51CHL1   H2A 3748   4.543   1.790   6.912 -0.7500 -0.3493  0.6243
   51CHL1   H2B 3749   4.393   1.875   6.903  1.3139  1.4178  0.7849
   51CHL1   C20 3750   4.111   1.674   7.815 -0.4858  0.2429 -0.6379
   51CHL1   H20 3751   4.058   1.772   7.815 -2.0039 -0.4641  2.3016
   51CHL1   C21 3752   4.258   1.687   7.879  0.3856  0.4963  0.2592
   51CHL1  H21A 3753   4.292   1.588   7.916 -3.0728 -1.3861 -1.1235
   51CHL1  H21B 3754   4.264   1.739   7.977  2.2468  1.4050 -0.2899
   51CHL1  H21C 3755   4.330   1.732   7.808  0.5038  0.3597  0.2939
   51CHL1   C22 3756   4.022   1.589   7.913 -0.3381  0.0446  0.3930
   51CHL1  H22A 3757   3.920   1.563   7.877  1.2483 -4.0920 -1.9028
   51CHL1  H22B 3758   4.072   1.494   7.943  1.1125  0.3060 -1.0595
   51CHL1   C23 3759   3.975   1.667   8.039 -0.1640  0.3287  0.2389
   51CHL1  H23A 3760   4.073   1.695   8.081  1.0472 -2.4596 -0.4748
   51CHL1  H23B 3761   3.926   1.758   7.997 -0.0556  1.6363  2.8070
   51CHL1   C24 3762   3.882   1.589   8.128 -0.8261 -0.3808 -0.1635
   51CHL1  H24A 3763   3.789   1.551   8.081  0.0283 -1.0833 -1.3189
   51CHL1  H24B 3764   3.933   1.494   8.153 -0.5072 -0.5785 -1.5085
   51CHL1   C25 3765   3.856   1.659   8.266  0.3826 -0.2715 -0.9062
   51CHL1   H25 3766   3.952   1.708   8.292  0.8573 -0.0134 -2.9428
   51CHL1   C26 3767   3.748   1.769   8.265  0.4690 -0.2213 -0.0250
   51CHL1  H26A 3768   3.740   1.824   8.168 -2.3901  1.0788  0.8157
   51CHL1  H26B 3769   3.649   1.726   8.291 -0.3818  2.5018  1.6337
   51CHL1  H26C 3770   3.766   1.840   8.348 -1.5451 -0.1100  0.3803
   51CHL1   C27 3771   3.843   1.552   8.380 -0.0260  0.4366  0.8099
   51CHL1  H27A 3772   3.760   1.481   8.356 -0.5391  0.7970  1.4612
   51CHL1  H27B 3773   3.940   1.498   8.391 -0.3564 -0.1807  0.7756
   51CHL1  H27C 3774   3.823   1.611   8.472 -0.2286 -0.2388  1.2098
   52CHL1    C3 3775   5.847   3.337   6.980 -0.7963  0.2635 -0.0540
   52CHL1    H3 3776   5.955   3.361   6.967 -0.4878 -1.7645 -1.7439
   52CHL1    O3 3777   5.787   3.383   6.863  0.5486  0.4351 -0.0394
   52CHL1   H3' 3778   5.801   3.309   6.803 -1.6792 -1.8869  2.0267
   52CHL1    C4 3779   5.829   3.185   6.989  0.3397  0.8718  0.0166
   52CHL1   H4A 3780   5.720   3.168   6.979  0.4943  0.2909 -0.7734
   52CHL1   H4B 3781   5.865   3.135   6.896  0.6441 -0.8621  1.0188
   52CHL1    C5 3782   5.892   3.132   7.116 -0.4379 -0.9692 -0.3995
   52CHL1    C6 3783   5.967   3.025   7.120  0.3691  0.4346  0.6546
   52CHL1    H6 3784   5.997   2.975   7.026  0.0998  0.8127  0.3618
   52CHL1    C7 3785   6.036   2.964   7.240  0.0636  0.1300  0.1824
   52CHL1   H7A 3786   6.009   2.856   7.239 -4.3859  1.0089 -2.1329
   52CHL1   H7B 3787   6.144   2.977   7.219 -0.1989  0.5415 -0.9642
   52CHL1    C8 3788   5.997   3.018   7.374 -0.3439 -0.6583 -0.5381
   52CHL1    H8 3789   5.903   2.961   7.392 -0.1577 -0.9110 -0.3781
   52CHL1   C14 3790   6.103   2.992   7.487  0.3248  0.1442  0.1342
   52CHL1   H14 3791   6.190   3.059   7.473 -0.6264  1.3531 -0.1577
   52CHL1   C15 3792   6.169   2.854   7.511  0.5495 -0.3999 -0.9632
   52CHL1  H15A 3793   6.088   2.779   7.509  0.9317 -0.9440  1.2981
   52CHL1  H15B 3794   6.244   2.827   7.433  2.6623  1.3571  0.3301
   52CHL1   C16 3795   6.223   2.868   7.651  0.3019 -0.9416 -1.1717
   52CHL1  H16A 3796   6.192   2.779   7.710 -0.6573 -0.3774 -0.8029
   52CHL1  H16B 3797   6.334   2.873   7.650  0.2726  0.9877  0.1000
   52CHL1   C17 3798   6.169   2.998   7.713 -0.3205  0.2635  0.4326
   52CHL1   H17 3799   6.255   3.066   7.698 -0.7499  1.2004  2.0171
   52CHL1   C13 3800   6.051   3.044   7.622 -0.2130  0.0525 -0.1617
   52CHL1   C18 3801   5.929   2.960   7.672 -0.3313  0.5951  0.5590
   52CHL1  H18A 3802   5.867   3.003   7.754 -0.4070  1.0399  0.2683
   52CHL1  H18B 3803   5.858   2.933   7.591  2.1808 -0.8784 -1.3032
   52CHL1  H18C 3804   5.957   2.861   7.713  0.4647  0.1894 -0.8931
   52CHL1   C12 3805   6.020   3.195   7.625  0.6512 -0.5196  0.0310
   52CHL1  H12A 3806   5.964   3.227   7.716 -0.6948 -0.7859 -0.6764
   52CHL1  H12B 3807   6.115   3.252   7.630 -0.2433  0.9673  0.4833
   52CHL1   C11 3808   5.930   3.231   7.504 -0.6694  0.1743  0.1996
   52CHL1  H11A 3809   5.829   3.198   7.537 -1.4988  2.9899  0.7925
   52CHL1  H11B 3810   5.932   3.341   7.490 -0.3555  0.1026 -0.3176
   52CHL1    C9 3811   5.961   3.166   7.370 -0.3506  0.0139  0.4733
   52CHL1    H9 3812   6.060   3.208   7.342 -0.1821 -0.2411  0.6819
   52CHL1   C10 3813   5.867   3.211   7.245 -0.1755  0.6636 -0.7057
   52CHL1   C19 3814   5.715   3.170   7.285  0.1498 -0.0162  0.8775
   52CHL1  H19A 3815   5.646   3.171   7.198  0.3619 -3.2256  0.5457
   52CHL1  H19B 3816   5.710   3.065   7.323  3.3492  0.4492  3.0160
   52CHL1  H19C 3817   5.695   3.243   7.367 -0.2223  1.6863 -0.6720
   52CHL1    C1 3818   5.881   3.367   7.225  0.4853  0.4133  0.1569
   52CHL1   H1A 3819   5.862   3.437   7.309  0.1050  3.3744 -2.2309
   52CHL1   H1B 3820   5.991   3.373   7.208  0.6883 -2.4935 -0.0390
   52CHL1    C2 3821   5.809   3.415   7.100 -0.6732 -0.5742 -0.9609
   52CHL1   H2A 3822   5.836   3.522   7.081 -1.5202 -0.6329 -2.6832
   52CHL1   H2B 3823   5.701   3.406   7.120 -0.5954 -1.5340 -0.9421
   52CHL1   C20 3824   6.159   2.991   7.865  0.0548 -0.3568  0.6442
   52CHL1   H20 3825   6.069   2.928   7.882  0.3753 -1.5120 -1.5178
   52CHL1   C21 3826   6.152   3.133   7.921  0.3927  0.3094 -0.2377
   52CHL1  H21A 3827   6.155   3.132   8.032  1.9133 -2.8131 -0.2040
   52CHL1  H21B 3828   6.055   3.175   7.888 -0.8227 -0.7433  1.8481
   52CHL1  H21C 3829   6.243   3.186   7.885 -0.5937  1.9820 -0.3764
   52CHL1   C22 3830   6.280   2.919   7.932  0.6004 -0.0758 -0.6301
   52CHL1  H22A 3831   6.267   2.815   7.894 -0.3865  0.0548 -0.6835
   52CHL1  H22B 3832   6.370   2.949   7.874  0.4032 -2.7018 -2.5041
   52CHL1   C23 3833   6.289   2.923   8.084  0.7813  0.2998  0.3229
   52CHL1  H23A 3834   6.328   3.024   8.110  1.3513  0.6060 -1.5040
   52CHL1  H23B 3835   6.188   2.913   8.128  0.7778 -0.2762  0.1905
   52CHL1   C24 3836   6.393   2.828   8.144  0.3794  0.3343 -0.0958
   52CHL1  H24A 3837   6.358   2.724   8.128  0.1091  0.4979 -0.6154
   52CHL1  H24B 3838   6.487   2.841   8.085  0.0394 -0.7200 -0.9107
   52CHL1   C25 3839   6.429   2.849   8.287  0.1588 -1.3317 -0.5573
   52CHL1   H25 3840   6.446   2.955   8.318 -1.2418 -1.2703  0.0515
   52CHL1   C26 3841   6.313   2.792   8.372 -0.4646  0.3697  0.0355
   52CHL1  H26A 3842   6.210   2.832   8.367 -1.4190 -2.0202 -1.0902
   52CHL1  H26B 3843   6.303   2.683   8.350 -0.6477  0.1808  0.9808
   52CHL1  H26C 3844   6.333   2.781   8.481 -1.1040 -0.2029  0.1022
   52CHL1   C27 3845   6.552   2.775   8.321 -0.0669  0.8661  0.0083
   52CHL1  H27A 3846   6.529   2.668   8.306  0.3044  0.8750 -0.6202
   52CHL1  H27B 3847   6.643   2.801   8.263  0.3167 -0.8150 -0.1863
   52CHL1  H27C 3848   6.586   2.788   8.427  2.7974 -1.3539 -0.5146
   53CHL1    C3 3849   2.382   0.580   7.028 -0.5064  0.1355  1.2273
   53CHL1    H3 3850   2.274   0.565   7.047 -0.6905 -1.6902 -0.8194
   53CHL1    O3 3851   2.398   0.610   6.892  0.6389  0.6167  0.0384
   53CHL1   H3' 3852   2.491   0.632   6.884  0.9085 -0.4763 -0.0755
   53CHL1    C4 3853   2.435   0.695   7.105  0.9042 -0.1577 -0.5316
   53CHL1   H4A 3854   2.540   0.714   7.073  0.8750  0.9899  0.0261
   53CHL1   H4B 3855   2.371   0.781   7.076 -0.1073 -0.7322 -0.0564
   53CHL1    C5 3856   2.436   0.673   7.254 -0.3961  0.4536 -0.5723
   53CHL1    C6 3857   2.378   0.761   7.343 -0.0740 -0.0846  0.4475
   53CHL1    H6 3858   2.330   0.852   7.306  0.0347  0.1464  0.8711
   53CHL1    C7 3859   2.358   0.723   7.491 -0.2616 -0.2484 -0.2806
   53CHL1   H7A 3860   2.384   0.814   7.549  0.1093 -0.5574  0.0434
   53CHL1   H7B 3861   2.254   0.687   7.501 -0.2896 -0.0671  0.1133
   53CHL1    C8 3862   2.451   0.610   7.537  0.1027  0.3937 -0.4833
   53CHL1    H8 3863   2.552   0.655   7.549 -1.0798  3.3207 -0.6079
   53CHL1   C14 3864   2.415   0.563   7.679 -0.2673 -0.8012 -0.3761
   53CHL1   H14 3865   2.311   0.527   7.660 -0.3661  0.3659 -2.3292
   53CHL1   C15 3866   2.397   0.666   7.793  0.5832  0.0392  0.1774
   53CHL1  H15A 3867   2.472   0.746   7.775  0.9127 -0.2100  0.4500
   53CHL1  H15B 3868   2.293   0.705   7.785  0.6652  0.5159  1.2280
   53CHL1   C16 3869   2.415   0.591   7.927 -0.1640  0.5115  0.9234
   53CHL1  H16A 3870   2.505   0.630   7.978 -0.9628  1.1662  1.8724
   53CHL1  H16B 3871   2.334   0.605   8.002  0.3165  1.7571  1.2266
   53CHL1   C17 3872   2.435   0.440   7.888  0.2782  0.1429  0.0217
   53CHL1   H17 3873   2.333   0.395   7.884 -0.3086  1.0033  2.9255
   53CHL1   C13 3874   2.489   0.444   7.739  0.4638 -0.1746  0.2482
   53CHL1   C18 3875   2.644   0.477   7.757  0.3564  0.4752 -0.7503
   53CHL1  H18A 3876   2.674   0.562   7.823 -0.2259  0.9004 -1.0300
   53CHL1  H18B 3877   2.696   0.391   7.805  1.5484  1.5680 -0.0333
   53CHL1  H18C 3878   2.678   0.506   7.656 -1.3937  1.1563 -1.1872
   53CHL1   C12 3879   2.465   0.325   7.641  0.4581 -0.0410  0.5808
   53CHL1  H12A 3880   2.525   0.242   7.682  0.5195  0.0514  0.6809
   53CHL1  H12B 3881   2.357   0.297   7.644  0.6361 -1.2036 -2.0131
   53CHL1   C11 3882   2.503   0.357   7.494 -0.1300 -0.2699  0.3894
   53CHL1  H11A 3883   2.614   0.352   7.498 -0.0920  0.4893  0.3504
   53CHL1  H11B 3884   2.460   0.272   7.437 -0.0952 -0.3731  0.5143
   53CHL1    C9 3885   2.446   0.492   7.439 -0.1097  0.0654  0.4454
   53CHL1    H9 3886   2.336   0.476   7.440  0.0609 -1.2241  0.3247
   53CHL1   C10 3887   2.486   0.526   7.296  0.5302  0.1307 -0.5017
   53CHL1   C19 3888   2.635   0.535   7.280  0.1022  0.2754  0.4012
   53CHL1  H19A 3889   2.672   0.554   7.177  0.7197 -1.2650  0.3042
   53CHL1  H19B 3890   2.682   0.604   7.354  1.3199 -0.9677  0.8283
   53CHL1  H19C 3891   2.671   0.430   7.283  0.4131  0.3706  0.1838
   53CHL1    C1 3892   2.436   0.417   7.205 -0.1592  0.2336  0.1037
   53CHL1   H1A 3893   2.481   0.318   7.225 -2.5646 -0.4875  2.6153
   53CHL1   H1B 3894   2.327   0.403   7.222 -0.5293  1.5137 -1.0545
   53CHL1    C2 3895   2.459   0.450   7.061 -0.3986  0.0101  0.3863
   53CHL1   H2A 3896   2.409   0.366   7.007 -0.4678  0.6156 -0.5114
   53CHL1   H2B 3897   2.564   0.462   7.026 -0.6218  0.9566  0.0281
   53CHL1   C20 3898   2.503   0.353   7.994  0.0477 -0.5389 -0.1444
   53CHL1   H20 3899   2.608   0.388   8.007 -0.3611  0.8281 -0.3020
   53CHL1   C21 3900   2.513   0.203   7.947  0.5131 -0.1941  0.1040
   53CHL1  H21A 3901   2.602   0.193   7.881  0.8953  3.2622 -0.1269
   53CHL1  H21B 3902   2.422   0.172   7.892 -0.3991 -3.2100  3.0070
   53CHL1  H21C 3903   2.531   0.139   8.036  0.3718 -1.2134 -0.5951
   53CHL1   C22 3904   2.444   0.365   8.135  0.0996 -0.4564 -0.2855
   53CHL1  H22A 3905   2.424   0.470   8.166 -1.5399 -0.5431 -0.9921
   53CHL1  H22B 3906   2.358   0.297   8.147 -0.5864  0.5081  0.4119
   53CHL1   C23 3907   2.549   0.325   8.239  0.0965  0.0375  0.3554
   53CHL1  H23A 3908   2.560   0.216   8.222 -2.9526 -0.4361  0.8419
   53CHL1  H23B 3909   2.650   0.371   8.232  0.8163 -1.6135 -0.8600
   53CHL1   C24 3910   2.499   0.332   8.385 -0.1581  0.1969  0.7727
   53CHL1  H24A 3911   2.487   0.441   8.403 -2.0064  0.6115 -2.2725
   53CHL1  H24B 3912   2.407   0.277   8.415 -0.0173  0.5524  1.8720
   53CHL1   C25 3913   2.614   0.286   8.483  0.5249  0.4226 -0.5503
   53CHL1   H25 3914   2.711   0.332   8.456  2.2145 -0.7435  2.9533
   53CHL1   C26 3915   2.590   0.349   8.620 -0.2201 -0.7732  0.7194
   53CHL1  H26A 3916   2.657   0.313   8.701 -0.4484 -1.2784  0.6850
   53CHL1  H26B 3917   2.618   0.456   8.607  3.2247 -1.4280  1.7185
   53CHL1  H26C 3918   2.487   0.320   8.649  0.0130 -4.1657 -1.3482
   53CHL1   C27 3919   2.639   0.134   8.490  0.3095 -0.1905 -0.2758
   53CHL1  H27A 3920   2.715   0.116   8.569 -0.9561  0.0265  1.0418
   53CHL1  H27B 3921   2.549   0.074   8.516 -0.2103  0.1870 -1.1727
   53CHL1  H27C 3922   2.679   0.099   8.392  0.0051 -1.3463 -0.0042
   54CHL1    C3 3923   2.336   2.581   6.916 -0.3436 -0.1039  0.4209
   54CHL1    H3 3924   2.229   2.599   6.942 -0.1010  1.0890  0.6796
   54CHL1    O3 3925   2.368   2.630   6.785 -0.2389 -0.0124  0.0652
   54CHL1   H3' 3926   2.464   2.629   6.789 -0.2523 -0.2741  0.2977
   54CHL1    C4 3927   2.434   2.635   7.018  0.4336  0.2563  0.1109
   54CHL1   H4A 3928   2.536   2.601   6.990 -0.9336 -2.0487 -2.5354
   54CHL1   H4B 3929   2.424   2.745   7.001 -3.0738 -0.2470 -2.1397
   54CHL1    C5 3930   2.386   2.584   7.153  0.3475  0.7393 -0.4616
   54CHL1    C6 3931   2.348   2.679   7.243 -0.6266 -0.2216  0.3722
   54CHL1    H6 3932   2.361   2.787   7.225  1.0533 -0.4129  0.2974
   54CHL1    C7 3933   2.310   2.651   7.383  0.0922 -0.0432 -0.2603
   54CHL1   H7A 3934   2.366   2.713   7.456 -0.8395 -0.9840  1.3220
   54CHL1   H7B 3935   2.201   2.664   7.400 -0.0559  0.0022 -1.1881
   54CHL1    C8 3936   2.334   2.501   7.423  0.0287  0.1070  0.3680
   54CHL1    H8 3937   2.442   2.487   7.443 -0.0932 -0.6770  0.4830
   54CHL1   C14 3938   2.259   2.460   7.554 -0.2661 -0.1604 -0.6315
   54CHL1   H14 3939   2.156   2.491   7.526  0.6090  2.1192 -1.5952
   54CHL1   C15 3940   2.299   2.542   7.675 -0.6440 -0.3508  0.4067
   54CHL1  H15A 3941   2.409   2.555   7.670 -0.8384  1.2328 -2.3178
   54CHL1  H15B 3942   2.267   2.648   7.683  1.6063  0.3635  0.6942
   54CHL1   C16 3943   2.233   2.465   7.786  0.3069 -0.1802  0.0759
   54CHL1  H16A 3944   2.311   2.429   7.856  0.2703  0.8923  0.6876
   54CHL1  H16B 3945   2.164   2.528   7.846  0.2298 -1.4511  1.3666
   54CHL1   C17 3946   2.176   2.335   7.725  0.2260  0.2079  0.7434
   54CHL1   H17 3947   2.075   2.355   7.683 -0.4350 -0.9033  1.7317
   54CHL1   C13 3948   2.260   2.318   7.604 -0.1343 -0.9489  0.4309
   54CHL1   C18 3949   2.397   2.273   7.649 -0.5924 -0.2771  0.1797
   54CHL1  H18A 3950   2.401   2.164   7.671 -2.0781 -0.3637  0.1612
   54CHL1  H18B 3951   2.456   2.295   7.558 -2.1240  0.8027 -0.6043
   54CHL1  H18C 3952   2.444   2.326   7.734 -1.2173  0.6864 -0.0597
   54CHL1   C12 3953   2.208   2.239   7.482 -0.8224 -0.2506 -0.4438
   54CHL1  H12A 3954   2.224   2.131   7.501 -2.8588 -0.6610 -0.7786
   54CHL1  H12B 3955   2.102   2.264   7.458 -0.6005 -0.2906 -1.5205
   54CHL1   C11 3956   2.284   2.260   7.349 -0.0125 -0.3420  0.3314
   54CHL1  H11A 3957   2.377   2.199   7.355 -1.1642 -2.2711 -0.5388
   54CHL1  H11B 3958   2.226   2.214   7.267  1.9793  0.1439 -1.4224
   54CHL1    C9 3959   2.292   2.410   7.306  0.2217 -0.0660  0.2897
   54CHL1    H9 3960   2.185   2.433   7.286  0.3209  1.3835  1.2806
   54CHL1   C10 3961   2.372   2.435   7.170 -0.2040 -0.2323  0.0099
   54CHL1   C19 3962   2.505   2.374   7.185 -0.5128  0.4882  0.0971
   54CHL1  H19A 3963   2.558   2.419   7.271  3.2383 -2.2672 -0.5212
   54CHL1  H19B 3964   2.508   2.264   7.201 -1.8267 -0.3300 -3.9358
   54CHL1  H19C 3965   2.556   2.391   7.087 -0.7547  0.5019 -0.0286
   54CHL1    C1 3966   2.302   2.380   7.043 -0.2478  0.1489 -0.5926
   54CHL1   H1A 3967   2.321   2.271   7.038 -0.3216  0.1705 -1.7038
   54CHL1   H1B 3968   2.193   2.402   7.039 -0.7715 -2.1719 -0.6552
   54CHL1    C2 3969   2.364   2.436   6.914  0.0545 -0.4784  0.4435
   54CHL1   H2A 3970   2.309   2.388   6.830 -1.3219 -0.3321  1.2280
   54CHL1   H2B 3971   2.469   2.408   6.893  0.1791 -2.0360  2.7518
   54CHL1   C20 3972   2.152   2.216   7.818  1.1577  0.0906  0.0423
   54CHL1   H20 3973   2.251   2.191   7.862 -0.5846 -1.9166  3.2122
   54CHL1   C21 3974   2.092   2.090   7.744 -0.1671 -0.0595  0.2556
   54CHL1  H21A 3975   2.066   2.009   7.815 -1.4176 -0.5758 -0.7561
   54CHL1  H21B 3976   2.164   2.039   7.676 -1.2837  0.1532 -1.1248
   54CHL1  H21C 3977   2.000   2.116   7.688 -0.7512 -1.6510  0.4024
   54CHL1   C22 3978   2.050   2.253   7.927  0.7445 -0.0131 -0.0216
   54CHL1  H22A 3979   2.089   2.349   7.969  0.6274  0.6997 -1.4573
   54CHL1  H22B 3980   1.949   2.279   7.888 -0.1935  1.4935  3.0965
   54CHL1   C23 3981   2.027   2.164   8.054 -0.0914  0.1442 -0.3651
   54CHL1  H23A 3982   1.983   2.067   8.020 -0.7282 -0.0258  0.8874
   54CHL1  H23B 3983   2.133   2.149   8.083  0.4640  1.1340 -1.8081
   54CHL1   C24 3984   1.950   2.229   8.168  0.6630 -0.7718 -0.5051
   54CHL1  H24A 3985   1.953   2.159   8.255  2.8028 -0.8238 -0.5812
   54CHL1  H24B 3986   2.001   2.321   8.204 -1.1969  0.7032 -1.4114
   54CHL1   C25 3987   1.802   2.265   8.145  0.1245  0.2261 -0.1232
   54CHL1   H25 3988   1.790   2.343   8.067  1.7531 -0.5891 -1.2583
   54CHL1   C26 3989   1.699   2.158   8.120 -0.7640  0.3087  0.5947
   54CHL1  H26A 3990   1.729   2.109   8.025 -0.1131  1.0534  0.4090
   54CHL1  H26B 3991   1.694   2.084   8.203 -1.2606  1.4972  1.6736
   54CHL1  H26C 3992   1.596   2.199   8.115 -1.1253 -0.6275  0.2193
   54CHL1   C27 3993   1.759   2.334   8.276  0.7413 -0.3660 -0.3706
   54CHL1  H27A 3994   1.767   2.285   8.375  0.7736  0.5945  0.1195
   54CHL1  H27B 3995   1.806   2.434   8.291 -0.5812  0.5168 -1.7597
   54CHL1  H27C 3996   1.651   2.361   8.267  0.8379  0.0453 -0.3073
   55CHL1    C3 3997   3.345   4.212   6.833  0.1017 -0.6197  0.2082
   55CHL1    H3 3998   3.413   4.124   6.833  2.0403  0.8114 -0.9783
   55CHL1    O3 3999   3.332   4.249   6.698 -0.4355 -0.1912 -0.0197
   55CHL1   H3' 4000   3.375   4.335   6.691  2.1646 -1.5161 -2.5293
   55CHL1    C4 4001   3.215   4.172   6.903 -0.3437 -0.0316  0.0836
   55CHL1   H4A 4002   3.128   4.240   6.891  0.1477  0.3973 -1.2736
   55CHL1   H4B 4003   3.182   4.090   6.835  2.6871 -0.4074 -1.0900
   55CHL1    C5 4004   3.244   4.133   7.044 -0.3367 -0.7105 -0.2432
   55CHL1    C6 4005   3.215   4.012   7.090  0.2356 -0.2421 -0.5523
   55CHL1    H6 4006   3.155   3.937   7.037 -0.0736 -1.6222  1.6631
   55CHL1    C7 4007   3.251   3.964   7.232  0.2260 -0.3023 -0.5813
   55CHL1   H7A 4008   3.175   3.887   7.257  0.2303 -0.8181 -2.0807
   55CHL1   H7B 4009   3.349   3.912   7.219  1.3038  1.6548 -0.7996
   55CHL1    C8 4010   3.277   4.077   7.328  0.8289  0.8033 -0.7792
   55CHL1    H8 4011   3.182   4.126   7.358  2.4413  2.0117  2.9933
   55CHL1   C14 4012   3.327   4.022   7.460  0.1681  0.0813  0.3871
   55CHL1   H14 4013   3.418   3.960   7.443 -0.7247 -2.0191  2.7052
   55CHL1   C15 4014   3.233   3.931   7.544 -0.8291 -0.5407 -0.7986
   55CHL1  H15A 4015   3.140   3.990   7.563 -0.4494 -0.8500  2.6565
   55CHL1  H15B 4016   3.198   3.840   7.490 -3.0815 -0.0296 -0.3283
   55CHL1   C16 4017   3.308   3.913   7.679  0.3225 -0.0935 -1.3264
   55CHL1  H16A 4018   3.226   3.922   7.754 -0.0633 -1.1975 -1.5985
   55CHL1  H16B 4019   3.359   3.815   7.687 -3.9933 -2.5140 -0.7047
   55CHL1   C17 4020   3.410   4.030   7.685 -0.7773 -0.9120  0.4109
   55CHL1   H17 4021   3.508   3.991   7.651  0.9942  3.6723 -0.3429
   55CHL1   C13 4022   3.377   4.123   7.569 -0.6309  0.2472  0.3276
   55CHL1   C18 4023   3.266   4.217   7.616 -0.6854  0.2493  0.4679
   55CHL1  H18A 4024   3.195   4.162   7.681  1.3014 -2.0057  0.8343
   55CHL1  H18B 4025   3.314   4.305   7.664 -0.2332 -0.4073  1.2282
   55CHL1  H18C 4026   3.205   4.259   7.533 -1.0349  0.5277  0.8588
   55CHL1   C12 4027   3.491   4.204   7.499  0.0187 -0.1501  0.5107
   55CHL1  H12A 4028   3.530   4.280   7.569 -0.2112 -0.5401  1.0707
   55CHL1  H12B 4029   3.572   4.136   7.464  0.4223  0.8477 -0.5832
   55CHL1   C11 4030   3.440   4.279   7.368  0.4190 -0.0321  0.4098
   55CHL1  H11A 4031   3.364   4.355   7.397  2.2562  2.5355 -1.1610
   55CHL1  H11B 4032   3.530   4.327   7.325 -1.1764  1.3086 -1.6421
   55CHL1    C9 4033   3.372   4.175   7.262 -0.5420  0.1106 -0.3127
   55CHL1    H9 4034   3.458   4.112   7.231 -0.5419  0.6292 -1.3997
   55CHL1   C10 4035   3.320   4.236   7.131  0.6514 -0.1351 -1.0589
   55CHL1   C19 4036   3.210   4.339   7.160 -0.2795 -0.8854 -0.3733
   55CHL1  H19A 4037   3.139   4.286   7.227  0.4259 -2.8292 -1.1124
   55CHL1  H19B 4038   3.241   4.425   7.223 -1.9608  1.1884 -2.1954
   55CHL1  H19C 4039   3.155   4.373   7.070 -0.7067 -0.0702  0.1781
   55CHL1    C1 4040   3.435   4.297   7.054 -0.5092 -1.1014 -0.2737
   55CHL1   H1A 4041   3.469   4.388   7.108 -0.6774 -1.7385  0.9281
   55CHL1   H1B 4042   3.518   4.224   7.062  1.3832  1.1642  2.6455
   55CHL1    C2 4043   3.414   4.329   6.908  0.3109  0.3854  0.5972
   55CHL1   H2A 4044   3.507   4.357   6.855  0.9528 -2.0753  0.2676
   55CHL1   H2B 4045   3.342   4.413   6.900 -1.0421 -0.8296 -0.5152
   55CHL1   C20 4046   3.436   4.082   7.829  0.3799 -0.2983 -0.5843
   55CHL1   H20 4047   3.335   4.113   7.864  0.2174 -2.0451  0.6001
   55CHL1   C21 4048   3.526   4.208   7.841  0.4012  0.4185  0.3456
   55CHL1  H21A 4049   3.480   4.293   7.785  1.5927  0.3889 -0.7312
   55CHL1  H21B 4050   3.632   4.187   7.815  0.3031  0.4098 -0.0645
   55CHL1  H21C 4051   3.520   4.234   7.949 -0.7250 -1.3948  0.7648
   55CHL1   C22 4052   3.485   3.972   7.926  0.4832 -1.0041  0.5878
   55CHL1  H22A 4053   3.413   3.888   7.915 -1.6205  0.8215 -0.4312
   55CHL1  H22B 4054   3.585   3.934   7.895  0.4695  0.2476 -1.1299
   55CHL1   C23 4055   3.471   4.013   8.076 -0.2739  0.3665  0.4782
   55CHL1  H23A 4056   3.530   4.106   8.092 -1.6294  1.5360 -0.9846
   55CHL1  H23B 4057   3.363   4.036   8.092 -0.2663  1.1419 -0.4507
   55CHL1   C24 4058   3.529   3.905   8.165 -0.2083  0.0527 -0.4629
   55CHL1  H24A 4059   3.500   3.810   8.115  0.5761 -0.9302  0.8908
   55CHL1  H24B 4060   3.639   3.915   8.163  0.0587 -0.6210  3.0104
   55CHL1   C25 4061   3.493   3.908   8.319  0.1566  0.4731  0.2558
   55CHL1   H25 4062   3.549   3.824   8.366 -0.9817  0.5009  1.7233
   55CHL1   C26 4063   3.522   4.041   8.378 -0.1591  0.0452 -0.1486
   55CHL1  H26A 4064   3.628   4.064   8.355 -0.1353  0.5609  0.4401
   55CHL1  H26B 4065   3.457   4.128   8.354  1.1625  0.5755 -2.0007
   55CHL1  H26C 4066   3.512   4.037   8.489  1.6353  1.2422  0.0933
   55CHL1   C27 4067   3.344   3.872   8.347 -0.1807 -0.7842 -0.8959
   55CHL1  H27A 4068   3.333   3.873   8.457  2.8364  1.7777 -0.5010
   55CHL1  H27B 4069   3.286   3.958   8.308  0.9713  0.0110 -0.8873
   55CHL1  H27C 4070   3.314   3.769   8.315 -0.9155 -1.1063  0.7276
   56CHL1    C3 4071   2.483   1.933   6.892 -0.2960 -0.1892  0.6522
   56CHL1    H3 4072   2.547   2.022   6.909 -2.4117  2.2871 -3.0677
   56CHL1    O3 4073   2.479   1.922   6.754  0.7457  0.5091  0.2720
   56CHL1   H3' 4074   2.456   2.006   6.714  0.2393 -0.2893 -1.1965
   56CHL1    C4 4075   2.565   1.813   6.954  0.3143 -0.0228 -0.3751
   56CHL1   H4A 4076   2.517   1.719   6.922  0.3048  0.0611 -0.6085
   56CHL1   H4B 4077   2.671   1.804   6.921  0.7019 -0.8905  1.0369
   56CHL1    C5 4078   2.565   1.822   7.105 -0.1565 -0.8007 -0.4579
   56CHL1    C6 4079   2.677   1.834   7.176  0.0675  0.2480  0.2361
   56CHL1    H6 4080   2.771   1.837   7.119  0.3469  0.8880  0.7113
   56CHL1    C7 4081   2.684   1.836   7.322  0.9976 -0.6875 -0.6865
   56CHL1   H7A 4082   2.768   1.778   7.367 -1.4004 -3.8988  0.0673
   56CHL1   H7B 4083   2.695   1.940   7.358 -0.6509 -0.0842 -1.8128
   56CHL1    C8 4084   2.558   1.780   7.392  0.3452 -0.2888  0.4946
   56CHL1    H8 4085   2.554   1.670   7.375 -0.7602 -0.1123 -0.5933
   56CHL1   C14 4086   2.543   1.811   7.540  0.0100 -0.1694 -0.3358
   56CHL1   H14 4087   2.546   1.922   7.543  0.0778 -0.1141 -1.6492
   56CHL1   C15 4088   2.658   1.759   7.618  0.7292  0.2847 -0.5147
   56CHL1  H15A 4089   2.682   1.652   7.597  2.3536  0.5809 -0.3069
   56CHL1  H15B 4090   2.749   1.821   7.602  1.5168 -0.1104  1.9423
   56CHL1   C16 4091   2.611   1.771   7.764  0.9626 -0.1098 -0.0206
   56CHL1  H16A 4092   2.642   1.681   7.822  0.1975 -1.3978 -1.5205
   56CHL1  H16B 4093   2.647   1.865   7.810  0.5669 -0.0864  0.2424
   56CHL1   C17 4094   2.453   1.795   7.754  0.5756  0.6566  0.5382
   56CHL1   H17 4095   2.423   1.898   7.784 -0.9207 -0.0353  1.5314
   56CHL1   C13 4096   2.417   1.764   7.608  0.6029 -0.5263  0.4072
   56CHL1   C18 4097   2.408   1.610   7.589  0.4634  0.1751  0.2452
   56CHL1  H18A 4098   2.313   1.575   7.635  2.1861  0.2776  4.3588
   56CHL1  H18B 4099   2.399   1.586   7.481 -2.2087  3.6667 -0.4771
   56CHL1  H18C 4100   2.490   1.555   7.641  1.0662  1.8655  1.1798
   56CHL1   C12 4101   2.292   1.828   7.541 -0.0051  0.1285  0.3231
   56CHL1  H12A 4102   2.194   1.791   7.580  0.3747 -0.5682  0.6532
   56CHL1  H12B 4103   2.295   1.937   7.560  1.1912  0.0141  0.9395
   56CHL1   C11 4104   2.290   1.806   7.392  0.5108  0.0646  0.3443
   56CHL1  H11A 4105   2.274   1.696   7.387 -1.4077  0.3424 -0.5099
   56CHL1  H11B 4106   2.205   1.851   7.337  0.0934  0.5878  1.3992
   56CHL1    C9 4107   2.431   1.841   7.323  0.1121 -0.3264 -0.8055
   56CHL1    H9 4108   2.431   1.951   7.339 -1.7992 -0.6699  2.6781
   56CHL1   C10 4109   2.421   1.823   7.167 -0.0718  0.5655 -0.6167
   56CHL1   C19 4110   2.348   1.682   7.142  0.5592  0.2051  0.5929
   56CHL1  H19A 4111   2.343   1.665   7.033  2.8245  0.3895  0.4003
   56CHL1  H19B 4112   2.395   1.597   7.196 -1.4481 -1.1732  0.2735
   56CHL1  H19C 4113   2.240   1.696   7.165  0.2195  1.7637 -1.6705
   56CHL1    C1 4114   2.346   1.947   7.101 -0.5276 -0.0350 -0.1101
   56CHL1   H1A 4115   2.243   1.960   7.142 -0.3476  0.8034  0.0842
   56CHL1   H1B 4116   2.398   2.040   7.132 -0.3174  0.1842 -1.0901
   56CHL1    C2 4117   2.345   1.948   6.948 -0.1083 -0.4846  0.2599
   56CHL1   H2A 4118   2.294   2.041   6.915  1.0003  0.3959  0.9382
   56CHL1   H2B 4119   2.270   1.871   6.921 -0.4787  0.0220 -0.1617
   56CHL1   C20 4120   2.384   1.713   7.865  0.2908 -0.2825  1.1072
   56CHL1   H20 4121   2.417   1.611   7.836 -0.5186 -0.0155 -0.9224
   56CHL1   C21 4122   2.234   1.716   7.854  0.5490 -0.0104 -0.3022
   56CHL1  H21A 4123   2.202   1.821   7.843 -0.7431 -0.0185  2.5945
   56CHL1  H21B 4124   2.197   1.680   7.952 -0.8159  1.3175 -0.3076
   56CHL1  H21C 4125   2.198   1.649   7.772  1.3240 -2.2567  1.0798
   56CHL1   C22 4126   2.427   1.737   8.018  0.3767 -0.5676 -0.0187
   56CHL1  H22A 4127   2.370   1.665   8.081 -0.9927 -1.6506 -2.3619
   56CHL1  H22B 4128   2.536   1.713   8.019  0.5335 -0.0968 -2.0296
   56CHL1   C23 4129   2.438   1.884   8.060 -0.3846 -0.0984  0.3513
   56CHL1  H23A 4130   2.516   1.929   7.994  0.9164 -0.9067  1.2744
   56CHL1  H23B 4131   2.346   1.944   8.044  0.3283  1.4621  1.7258
   56CHL1   C24 4132   2.479   1.904   8.208 -0.1004  0.1633 -0.3121
   56CHL1  H24A 4133   2.565   1.834   8.215 -0.1119  0.0607 -1.1056
   56CHL1  H24B 4134   2.509   2.011   8.213  0.7085 -0.0947  0.5956
   56CHL1   C25 4135   2.378   1.891   8.318  1.0621 -0.0612 -0.4449
   56CHL1   H25 4136   2.338   1.788   8.328  1.5384 -0.3481 -1.4134
   56CHL1   C26 4137   2.425   1.907   8.463  0.0045  0.7568  0.3071
   56CHL1  H26A 4138   2.473   2.004   8.490  0.0826  0.8956 -0.3200
   56CHL1  H26B 4139   2.504   1.831   8.486  0.3652  0.4276 -1.8255
   56CHL1  H26C 4140   2.345   1.892   8.539  1.0989 -0.4358  1.2793
   56CHL1   C27 4141   2.253   1.979   8.289  0.1231  0.3190 -0.3349
   56CHL1  H27A 4142   2.188   1.956   8.376 -2.1683  2.6413 -1.3145
   56CHL1  H27B 4143   2.270   2.088   8.280 -0.4880  0.4618  0.1481
   56CHL1  H27C 4144   2.195   1.946   8.200 -1.5162  2.3061 -0.0773
   57SAPC     N 4145   2.059   4.147  10.998  0.2809 -0.5901 -0.4069
   57SAPC   C12 4146   2.030   4.121  10.850 -0.2573 -0.3297 -0.1466
   57SAPC  H12A 4147   2.081   4.190  10.783  0.7389  1.0163  1.8919
   57SAPC  H12B 4148   1.928   4.152  10.837  0.0963  0.5932 -0.8278
   57SAPC   C13 4149   2.209   4.139  11.021  0.0589  0.0468  0.6389
   57SAPC  H13A 4150   2.241   4.120  11.122  0.4974 -3.3044 -0.0019
   57SAPC  H13B 4151   2.253   4.063  10.957  1.3840  0.9040  0.4805
   57SAPC  H13C 4152   2.261   4.229  10.994  0.0018 -0.5251 -1.6177
   57SAPC   C14 4153   2.009   4.287  11.032 -0.1837 -0.4234  0.0233
   57SAPC  H14A 4154   2.028   4.309  11.136  1.6127  0.4546 -0.4517
   57SAPC  H14B 4155   2.062   4.368  10.983 -1.7148  0.5441 -0.1193
   57SAPC  H14C 4156   1.906   4.301  11.002 -0.3794 -2.7383 -0.5969
   57SAPC   C15 4157   1.986   4.042  11.078 -0.2318  0.2910  0.3619
   57SAPC  H15A 4158   2.024   3.942  11.061 -0.6331 -0.2144  2.1486
   57SAPC  H15B 4159   1.997   4.058  11.184  3.2615  0.0999  0.1313
   57SAPC  H15C 4160   1.883   4.040  11.045  0.5984 -0.8264 -2.3866
   57SAPC   C11 4161   2.040   3.976  10.796 -0.5027  0.1573 -1.1966
   57SAPC  H11A 4162   2.012   3.968  10.689 -0.1409 -1.6961 -1.1980
   57SAPC  H11B 4163   1.964   3.917  10.853  0.8602 -0.6242 -0.1209
   57SAPC     P 4164   2.286   3.958  10.719  0.0932  0.0020  0.3034
   57SAPC   O13 4165   2.390   4.025  10.796 -0.5441 -0.3761  0.6885
   57SAPC   O14 4166   2.320   3.832  10.646 -0.4413 -0.2990  0.3239
   57SAPC   O12 4167   2.173   3.920  10.822 -0.0358  0.1123  0.8451
   57SAPC   O11 4168   2.222   4.051  10.613  0.0259 -0.2389  0.3436
   57SAPC    C1 4169   2.225   4.019  10.478  0.0408 -0.3492 -0.1853
   57SAPC    HA 4170   2.216   3.910  10.455  0.8167 -0.6622  0.9079
   57SAPC    HB 4171   2.139   4.062  10.422 -0.8283 -4.0766 -2.0682
   57SAPC    C2 4172   2.356   4.067  10.409 -0.1580 -0.8429 -0.4114
   57SAPC    HS 4173   2.435   4.034  10.479 -1.2472 -0.4009  1.0834
   57SAPC   O21 4174   2.350   4.214  10.399  0.0224 -0.1525 -0.4269
   57SAPC   C21 4175   2.459   4.284  10.391 -0.3143 -0.0694  0.3265
   57SAPC   O22 4176   2.571   4.244  10.394 -0.8284  0.0068  0.5006
   57SAPC   C22 4177   2.419   4.430  10.367  0.2745  0.0187 -0.3421
   57SAPC   H2R 4178   2.363   4.437  10.271 -0.6380 -3.2255 -0.1528
   57SAPC   H2S 4179   2.345   4.462  10.444  2.1004  0.8685  1.1270
   57SAPC    C3 4180   2.379   4.003  10.263  0.1255  0.4995 -0.5349
   57SAPC    HX 4181   2.282   4.024  10.214 -0.8770 -2.4064  0.0219
   57SAPC    HY 4182   2.394   3.894  10.273 -0.0535  0.2696 -2.4079
   57SAPC   O31 4183   2.486   4.058  10.184  0.2669  0.5205  0.1384
   57SAPC   C31 4184   2.613   4.012  10.195 -0.7610  0.2563  0.2400
   57SAPC   O32 4185   2.647   3.917  10.264 -0.3887  0.3969 -0.4547
   57SAPC   C32 4186   2.710   4.119  10.132 -0.2573  0.5798  0.0307
   57SAPC   H2X 4187   2.766   4.163  10.217  1.6560 -1.9513  0.1893
   57SAPC   H2Y 4188   2.646   4.188  10.073 -2.8758 -2.2196 -0.6978
   57SAPC   C23 4189   2.537   4.524  10.374 -0.6414 -0.3156  0.0503
   57SAPC   H3R 4190   2.607   4.496  10.456 -1.5689  1.5992  1.5840
   57SAPC   H3S 4191   2.496   4.625  10.394  2.2028  1.7136 -3.0928
   57SAPC   C24 4192   2.634   4.531  10.261  0.0782  0.1149 -0.0561
   57SAPC   H4R 4193   2.659   4.425  10.240 -1.2616 -0.4988  1.2482
   57SAPC   H4S 4194   2.725   4.586  10.291  0.2204  0.6751 -1.4297
   57SAPC   C25 4195   2.575   4.612  10.144 -1.0801  0.2061  0.7560
   57SAPC   H5R 4196   2.547   4.716  10.166 -1.2455 -0.4287  4.1237
   57SAPC   C26 4197   2.560   4.572  10.013  0.4732  0.8937  0.5903
   57SAPC   H6R 4198   2.518   4.638   9.936 -0.5856  1.9109  1.9687
   57SAPC   C27 4199   2.592   4.432   9.955 -0.2683 -0.2899 -0.1759
   57SAPC   H7R 4200   2.678   4.385  10.007 -0.5386 -1.1770 -0.5083
   57SAPC   H7S 4201   2.615   4.438   9.847 -2.7770 -1.7130 -0.8636
   57SAPC   C28 4202   2.463   4.344   9.972 -0.1375 -0.0748 -0.1244
   57SAPC   H8R 4203   2.423   4.339  10.074  0.1290  2.8709  0.2218
   57SAPC   C29 4204   2.417   4.267   9.871 -0.3716 -0.3194  0.1178
   57SAPC   H9R 4205   2.317   4.223   9.885 -1.5034  2.5747  2.2045
   57SAPC  C210 4206   2.475   4.255   9.731 -1.7483  0.4148  0.4837
   57SAPC  H10R 4207   2.452   4.156   9.686 -0.4111 -0.5128  1.7471
   57SAPC  H10S 4208   2.586   4.255   9.725 -1.6835  1.4199  1.3920
   57SAPC  C211 4209   2.431   4.364   9.645  0.1158  0.7389 -0.0966
   57SAPC  H11R 4210   2.468   4.465   9.673  0.0648  0.3866  1.3341
   57SAPC  C212 4211   2.367   4.349   9.525 -0.8811  0.2253 -0.5843
   57SAPC  H12R 4212   2.337   4.438   9.468 -2.2342  0.7305  0.8266
   57SAPC  C213 4213   2.347   4.221   9.446 -0.0132  0.0530 -0.6220
   57SAPC  H13R 4214   2.239   4.197   9.463  0.0978  0.8228  1.5961
   57SAPC  H13S 4215   2.392   4.130   9.490  0.9613  0.2932 -1.0965
   57SAPC  C214 4216   2.385   4.247   9.305  0.7566 -0.7662  0.1051
   57SAPC  H14R 4217   2.433   4.342   9.276 -0.8993 -0.3570 -1.4894
   57SAPC  C215 4218   2.353   4.157   9.203  0.1146  0.4811 -0.5899
   57SAPC  H15R 4219   2.374   4.187   9.100  0.6713  0.6154 -0.4381
   57SAPC  C216 4220   2.287   4.025   9.225  0.1631  0.0092  0.3164
   57SAPC  H16R 4221   2.233   4.038   9.322  0.8344  2.8910  0.3951
   57SAPC  H16S 4222   2.359   3.941   9.232  2.0997  1.6011  0.3073
   57SAPC  C217 4223   2.196   3.988   9.102  0.2830  0.1848  0.2728
   57SAPC  H17R 4224   2.156   3.888   9.130 -3.1462  2.0484  2.7725
   57SAPC  H17S 4225   2.270   3.982   9.019  0.2293 -1.4313  0.3073
   57SAPC  C218 4226   2.093   4.095   9.066 -0.0335 -0.3308 -0.3220
   57SAPC  H18R 4227   2.076   4.090   8.956 -0.9091  0.1523 -0.2207
   57SAPC  H18S 4228   2.141   4.193   9.087  1.6623 -0.9601 -1.0416
   57SAPC  C219 4229   1.960   4.076   9.136  0.0690 -0.1246 -0.9856
   57SAPC  H19R 4230   1.888   4.155   9.104 -2.3199 -1.7937  0.0162
   57SAPC  H19S 4231   1.964   4.084   9.247  1.2703  1.9813 -1.1194
   57SAPC  C220 4232   1.894   3.942   9.104 -0.0117 -0.1682  0.1183
   57SAPC  H20R 4233   1.881   3.945   8.994 -0.7824  1.7214  0.2285
   57SAPC  H20S 4234   1.792   3.950   9.149  0.0362  5.3075 -0.1069
   57SAPC  H20T 4235   1.951   3.855   9.143  1.2142  0.4185 -0.3100
   57SAPC   C33 4236   2.800   4.059  10.016 -0.0559  0.3371  0.1763
   57SAPC   H3X 4237   2.860   3.980  10.066 -2.1960 -0.5059  1.5595
   57SAPC   H3Y 4238   2.871   4.135   9.977  1.2046 -0.3199  1.0924
   57SAPC   C34 4239   2.724   4.011   9.894  0.5855 -0.3632 -0.1667
   57SAPC   H4X 4240   2.647   4.084   9.860 -0.6763 -0.4050  2.3323
   57SAPC   H4Y 4241   2.662   3.920   9.910 -0.3797 -0.3487 -3.2045
   57SAPC   C35 4242   2.819   3.985   9.775 -0.4192  0.0126  0.5104
   57SAPC   H5X 4243   2.873   3.889   9.787 -0.1513 -0.0663 -1.0793
   57SAPC   H5Y 4244   2.887   4.072   9.770 -2.8257  1.9546 -1.6194
   57SAPC   C36 4245   2.737   3.971   9.651  0.0138 -0.0237 -0.3482
   57SAPC   H6X 4246   2.650   4.038   9.664  0.4082  0.0366  2.9833
   57SAPC   H6Y 4247   2.703   3.867   9.633  0.4195 -0.4624  1.1965
   57SAPC   C37 4248   2.812   4.022   9.517 -0.3954 -0.5919 -0.4291
   57SAPC   H7X 4249   2.910   3.973   9.499  0.2181  0.3794  0.2261
   57SAPC   H7Y 4250   2.837   4.128   9.536  0.5531 -1.0331  0.9548
   57SAPC   C38 4251   2.723   3.999   9.396  0.1207  0.1877 -0.3136
   57SAPC   H8X 4252   2.621   4.030   9.425 -0.0989  0.4294 -1.2976
   57SAPC   H8Y 4253   2.721   3.888   9.386  2.9956 -0.0293  0.5976
   57SAPC   C39 4254   2.764   4.069   9.267  0.5233 -0.5750 -0.2418
   57SAPC   H9X 4255   2.873   4.057   9.245  0.3508 -4.3895  0.2890
   57SAPC   H9Y 4256   2.745   4.175   9.292 -2.3088 -0.8005 -1.1683
   57SAPC  C310 4257   2.699   4.015   9.140 -0.0144 -0.0975 -0.0777
   57SAPC  H10X 4258   2.603   3.963   9.161 -0.2672 -1.1970 -3.3840
   57SAPC  H10Y 4259   2.777   3.949   9.097 -0.5001 -0.8488  0.1761
   57SAPC  C311 4260   2.669   4.131   9.048 -0.0549 -0.2832  0.8449
   57SAPC  H11X 4261   2.767   4.176   9.020 -0.7576  0.9318  0.2138
   57SAPC  H11Y 4262   2.610   4.214   9.091 -1.0332 -0.4437 -0.1461
   57SAPC  C312 4263   2.588   4.088   8.927 -0.3022 -0.1252 -0.3830
   57SAPC  H12X 4264   2.582   4.176   8.861  0.7772 -0.5861 -1.1262
   57SAPC  H12Y 4265   2.491   4.038   8.948 -0.0273  0.3914  2.5676
   57SAPC  C313 4266   2.670   3.990   8.830 -0.1436  0.3294 -0.0573
   57SAPC  H13X 4267   2.596   3.937   8.767  1.6627 -1.2222 -0.9632
   57SAPC  H13Y 4268   2.717   3.909   8.889 -1.3437 -0.7559 -0.5594
   57SAPC  C314 4269   2.777   4.062   8.744  0.1954  0.0393 -0.3608
   57SAPC  H14X 4270   2.834   3.990   8.682 -0.9159 -0.3000 -1.0264
   57SAPC  H14Y 4271   2.850   4.102   8.816 -1.3182  0.5546  0.9455
   57SAPC  C315 4272   2.730   4.170   8.646  0.0105 -0.1764  0.6925
   57SAPC  H15X 4273   2.820   4.200   8.587 -1.9271  0.5964 -2.1133
   57SAPC  H15Y 4274   2.685   4.258   8.696 -1.0544 -0.3740  0.1141
   57SAPC  C316 4275   2.640   4.118   8.530 -0.2987  0.8144 -0.1994
   57SAPC  H16X 4276   2.669   4.011   8.521 -1.8687  0.2337  1.2787
   57SAPC  H16Y 4277   2.652   4.166   8.430 -3.3036 -0.6340 -1.3858
   57SAPC  C317 4278   2.492   4.114   8.562  0.4508  0.5965  0.1549
   57SAPC  H17X 4279   2.453   4.217   8.544 -1.8229 -0.0023  1.3921
   57SAPC  H17Y 4280   2.470   4.086   8.667  0.9576 -0.0784  0.0834
   57SAPC  C318 4281   2.424   4.013   8.467 -0.2305  0.5642 -0.2248
   57SAPC  H18X 4282   2.446   3.907   8.493 -0.1620  0.0290 -2.3155
   57SAPC  H18Y 4283   2.451   4.031   8.361 -0.5992 -1.6528 -0.7447
   57SAPC  H18Z 4284   2.314   4.029   8.470 -0.1993  0.7264  0.0789
   58SAPC     N 4285   4.527   2.417  11.053  0.0756 -0.7004 -0.6890
   58SAPC   C12 4286   4.503   2.442  10.902  0.5151  0.0383 -0.2607
   58SAPC  H12A 4287   4.397   2.425  10.885  0.4661 -0.8401  0.8367
   58SAPC  H12B 4288   4.558   2.370  10.844  0.6627  1.2962 -1.7682
   58SAPC   C13 4289   4.444   2.511  11.131 -0.2165 -0.0083  0.4610
   58SAPC  H13A 4290   4.338   2.507  11.111 -0.1261 -0.5853  0.0854
   58SAPC  H13B 4291   4.458   2.512  11.238 -2.2532 -0.8382  0.7905
   58SAPC  H13C 4292   4.474   2.612  11.105 -1.4831  0.0468 -0.9092
   58SAPC   C14 4293   4.487   2.274  11.088 -0.2217  0.9703  0.2703
   58SAPC  H14A 4294   4.535   2.234  11.176  0.2261  1.3186  0.1890
   58SAPC  H14B 4295   4.380   2.279  11.092 -0.2181  1.7056 -0.3633
   58SAPC  H14C 4296   4.512   2.209  11.005 -0.3176 -1.2269  1.8791
   58SAPC   C15 4297   4.670   2.434  11.080 -0.6574 -0.4884 -0.5395
   58SAPC  H15A 4298   4.702   2.513  11.014 -0.5775 -1.4712 -1.7034
   58SAPC  H15B 4299   4.686   2.483  11.175 -1.7275  1.1116 -1.1482
   58SAPC  H15C 4300   4.730   2.344  11.074  1.4759  0.7555  0.7986
   58SAPC   C11 4301   4.533   2.582  10.843  0.2695  0.3064  0.7999
   58SAPC  H11A 4302   4.490   2.665  10.904 -1.6000  0.6142 -0.8159
   58SAPC  H11B 4303   4.480   2.591  10.746 -1.4501 -0.0900  1.6555
   58SAPC     P 4304   4.752   2.543  10.702  0.2057 -0.3739  0.2756
   58SAPC   O13 4305   4.884   2.605  10.694  0.3183  0.3266  0.0105
   58SAPC   O14 4306   4.745   2.399  10.727 -0.3391 -0.4174  0.0385
   58SAPC   O12 4307   4.674   2.604  10.824  0.2211  0.4491 -0.3531
   58SAPC   O11 4308   4.660   2.585  10.577  0.1212  0.5131 -0.4389
   58SAPC    C1 4309   4.642   2.715  10.539  0.5188 -0.2767  0.4415
   58SAPC    HA 4310   4.652   2.786  10.623  0.1335 -2.7779  2.7281
   58SAPC    HB 4311   4.713   2.733  10.455 -1.9517  0.0542 -1.7214
   58SAPC    C2 4312   4.493   2.736  10.481 -0.6851 -0.4339  0.6437
   58SAPC    HS 4313   4.434   2.673  10.550 -0.7982 -0.3230  0.6490
   58SAPC   O21 4314   4.480   2.674  10.349 -0.4342  0.0335  0.8387
   58SAPC   C21 4315   4.357   2.648  10.313 -0.4395  0.1862  0.2562
   58SAPC   O22 4316   4.256   2.678  10.379 -0.2131  0.4022 -0.0206
   58SAPC   C22 4317   4.355   2.589  10.171  0.2933 -0.1119 -1.0104
   58SAPC   H2R 4318   4.410   2.655  10.101 -0.5964  1.1220 -0.5839
   58SAPC   H2S 4319   4.394   2.485  10.180 -1.2442 -0.5970  0.7204
   58SAPC    C3 4320   4.454   2.884  10.483  0.0265  0.1800 -0.3803
   58SAPC    HX 4321   4.464   2.919  10.588 -0.8584 -1.7792  0.4063
   58SAPC    HY 4322   4.345   2.892  10.464 -0.0961  2.0022  0.8654
   58SAPC   O31 4323   4.526   2.967  10.397 -0.5095 -0.2647  0.6549
   58SAPC   C31 4324   4.514   2.956  10.268 -0.3275 -0.2818  0.0369
   58SAPC   O32 4325   4.422   2.910  10.206 -0.2880  0.0778  0.7533
   58SAPC   C32 4326   4.629   3.028  10.209  0.4917 -0.7261 -0.1615
   58SAPC   H2X 4327   4.728   2.988  10.239  1.4284 -0.2187 -2.3527
   58SAPC   H2Y 4328   4.630   3.137  10.234  0.5663  0.1402 -3.4560
   58SAPC   C23 4329   4.212   2.566  10.123  0.7215  0.5693  0.7449
   58SAPC   H3R 4330   4.144   2.653  10.114 -0.2080 -0.2844 -1.0098
   58SAPC   H3S 4331   4.164   2.496  10.194  0.4043 -0.6785 -0.6405
   58SAPC   C24 4332   4.208   2.490   9.986  0.0666 -0.8883  0.3338
   58SAPC   H4R 4333   4.283   2.410  10.004  1.4239  0.5273  1.1938
   58SAPC   H4S 4334   4.263   2.564   9.924  0.3979 -0.8900  0.6284
   58SAPC   C25 4335   4.073   2.438   9.952 -0.2013  0.3158 -0.6957
   58SAPC   H5R 4336   4.028   2.397  10.044  2.1360  0.7485  0.7397
   58SAPC   C26 4337   4.025   2.430   9.826  0.3848 -0.0304  0.5884
   58SAPC   H6R 4338   3.943   2.359   9.809 -0.0210  0.2368  1.3626
   58SAPC   C27 4339   4.083   2.483   9.691 -0.3578 -0.4665  0.5902
   58SAPC   H7R 4340   4.176   2.542   9.710 -0.6595 -0.4409  2.1758
   58SAPC   H7S 4341   4.017   2.564   9.652 -1.0179 -0.9033  0.7895
   58SAPC   C28 4342   4.091   2.376   9.581 -0.2092  0.0115 -0.2846
   58SAPC   H8R 4343   4.121   2.276   9.614  0.9398 -0.2706 -2.0460
   58SAPC   C29 4344   4.085   2.392   9.449 -0.1669  0.2300 -0.2443
   58SAPC   H9R 4345   4.088   2.301   9.387  0.4536  0.0975 -0.0274
   58SAPC  C210 4346   4.045   2.520   9.379 -0.5483  0.5597  0.7110
   58SAPC  H10R 4347   4.032   2.615   9.436  1.3917  0.4129  1.4518
   58SAPC  H10S 4348   3.941   2.497   9.345  0.0967 -0.0411 -0.9731
   58SAPC  C211 4349   4.132   2.548   9.260  0.3543 -0.0628 -0.1696
   58SAPC  H11R 4350   4.207   2.626   9.278 -0.8213  1.1958 -0.5819
   58SAPC  C212 4351   4.132   2.488   9.135  0.0821  0.0216  0.6109
   58SAPC  H12R 4352   4.208   2.521   9.064  1.4622 -1.8528  1.1476
   58SAPC  C213 4353   4.046   2.370   9.105  0.2567 -0.8256  0.3116
   58SAPC  H13R 4354   4.003   2.388   9.004  1.3726 -2.2518 -0.4582
   58SAPC  H13S 4355   3.973   2.356   9.188  1.7269  1.0696  1.9977
   58SAPC  C214 4356   4.137   2.246   9.092 -0.2726  0.8826 -0.4176
   58SAPC  H14R 4357   4.208   2.236   9.176  0.5346  0.5107 -1.1294
   58SAPC  C215 4358   4.149   2.164   8.988 -0.0702  0.0927  0.5548
   58SAPC  H15R 4359   4.218   2.079   9.000  1.2834  1.2528  1.3361
   58SAPC  C216 4360   4.072   2.176   8.864 -0.0907  0.2237  0.6746
   58SAPC  H16R 4361   3.976   2.226   8.892  0.8294  2.9351 -0.6354
   58SAPC  H16S 4362   4.050   2.073   8.832  3.1914 -1.4281  3.1133
   58SAPC  C217 4363   4.145   2.261   8.753  0.0892  0.3862 -0.4335
   58SAPC  H17R 4364   4.243   2.218   8.725  1.0317  1.7540  0.5563
   58SAPC  H17S 4365   4.179   2.357   8.799 -0.4976 -0.0304  0.9351
   58SAPC  C218 4366   4.058   2.288   8.626 -0.0491  0.8834 -0.1672
   58SAPC  H18R 4367   4.122   2.337   8.550 -2.3506  0.1071 -2.7984
   58SAPC  H18S 4368   3.972   2.359   8.639  0.3195  1.6210 -1.5401
   58SAPC  C219 4369   4.019   2.154   8.560 -0.1389  1.0181 -0.0260
   58SAPC  H19R 4370   3.947   2.182   8.480  0.0830  0.9034 -0.2690
   58SAPC  H19S 4371   3.968   2.090   8.634 -0.0784 -0.7304 -1.4323
   58SAPC  C220 4372   4.137   2.070   8.514  0.4044  0.1067 -0.0117
   58SAPC  H20R 4373   4.100   1.975   8.469 -0.0974  0.9013 -1.3105
   58SAPC  H20S 4374   4.189   2.045   8.609 -0.1864 -3.0451 -0.3930
   58SAPC  H20T 4375   4.209   2.124   8.450  1.0137  0.8718  1.2654
   58SAPC   C33 4376   4.633   3.031  10.056 -0.1131 -0.0751 -0.1589
   58SAPC   H3X 4377   4.720   3.090  10.021  0.8242 -2.0886 -1.3664
   58SAPC   H3Y 4378   4.544   3.083  10.014  0.6336  0.0769 -1.6151
   58SAPC   C34 4379   4.648   2.893   9.986  0.1348  0.0086 -0.2271
   58SAPC   H4X 4380   4.556   2.836  10.013  0.4949  0.2074  1.5600
   58SAPC   H4Y 4381   4.739   2.838  10.020 -0.3351 -1.5129 -1.2966
   58SAPC   C35 4382   4.649   2.902   9.835 -0.5063 -0.0537  0.8768
   58SAPC   H5X 4383   4.549   2.932   9.798 -0.7599 -1.8148  0.0185
   58SAPC   H5Y 4384   4.680   2.799   9.806  0.5104 -0.1417  2.1769
   58SAPC   C36 4385   4.751   2.998   9.778 -1.1544  0.1430  0.3408
   58SAPC   H6X 4386   4.846   2.971   9.828  0.0169  0.8355 -1.4411
   58SAPC   H6Y 4387   4.725   3.103   9.804 -2.6739 -0.4133  1.2420
   58SAPC   C37 4388   4.770   2.977   9.619  0.2125 -0.4795 -0.3366
   58SAPC   H7X 4389   4.753   2.869   9.603  0.7980 -0.8385  1.2808
   58SAPC   H7Y 4390   4.876   3.001   9.592  0.2643 -0.8115 -0.4306
   58SAPC   C38 4391   4.685   3.077   9.540 -0.1530 -0.3868  0.3975
   58SAPC   H8X 4392   4.727   3.174   9.574  2.4481 -1.3539  0.2234
   58SAPC   H8Y 4393   4.577   3.057   9.549  0.2465 -3.0138  0.1221
   58SAPC   C39 4394   4.716   3.071   9.380 -0.1030 -0.3977  0.9835
   58SAPC   H9X 4395   4.659   2.978   9.359  1.0247 -0.8689 -0.1394
   58SAPC   H9Y 4396   4.825   3.079   9.358 -0.6766  0.8562 -1.8531
   58SAPC  C310 4397   4.657   3.174   9.286 -0.5160  0.4836 -0.9829
   58SAPC  H10X 4398   4.714   3.263   9.322  2.3398 -1.4793 -0.2289
   58SAPC  H10Y 4399   4.550   3.183   9.311 -0.3125  0.2763  0.0128
   58SAPC  C311 4400   4.684   3.131   9.144  0.2357 -0.2165 -0.0377
   58SAPC  H11X 4401   4.617   3.044   9.128 -0.2702 -0.3734  2.4769
   58SAPC  H11Y 4402   4.789   3.098   9.129  0.0231  0.2977 -3.4666
   58SAPC  C312 4403   4.647   3.238   9.046 -0.5234  0.2981  0.2882
   58SAPC  H12X 4404   4.725   3.318   9.044  1.6494 -1.5311  3.1915
   58SAPC  H12Y 4405   4.552   3.287   9.075 -0.3881  1.7192 -1.4750
   58SAPC  C313 4406   4.642   3.180   8.908  0.5699 -0.2411  0.9868
   58SAPC  H13X 4407   4.564   3.101   8.909 -0.2845  0.5861  1.2427
   58SAPC  H13Y 4408   4.743   3.137   8.889 -0.2827 -1.0418 -2.3052
   58SAPC  C314 4409   4.611   3.284   8.801 -0.2854  0.5048 -0.2925
   58SAPC  H14X 4410   4.701   3.348   8.788 -1.5148  2.1594 -0.9056
   58SAPC  H14Y 4411   4.525   3.338   8.844  1.2985 -0.1817  4.3274
   58SAPC  C315 4412   4.575   3.211   8.671  0.0569  0.4390  0.1228
   58SAPC  H15X 4413   4.533   3.278   8.593  2.1372 -0.8065 -2.1799
   58SAPC  H15Y 4414   4.489   3.143   8.684 -0.8767  1.2586 -1.4435
   58SAPC  C316 4415   4.704   3.178   8.590  0.7670 -0.5234 -0.3152
   58SAPC  H16X 4416   4.769   3.137   8.671 -0.0454  1.6607  1.5746
   58SAPC  H16Y 4417   4.747   3.276   8.561 -0.1561  0.4133  1.3586
   58SAPC  C317 4418   4.690   3.083   8.470 -0.2996  0.0112  0.1984
   58SAPC  H17X 4419   4.620   3.002   8.500 -1.0724  1.0324  1.2513
   58SAPC  H17Y 4420   4.779   3.030   8.430 -0.5420  0.3695 -0.8481
   58SAPC  C318 4421   4.644   3.165   8.350 -0.0201  0.0752 -0.3977
   58SAPC  H18X 4422   4.551   3.221   8.372 -1.6134 -2.5891  0.1402
   58SAPC  H18Y 4423   4.628   3.098   8.263 -0.5903 -0.5693  0.1907
   58SAPC  H18Z 4424   4.722   3.242   8.330  0.7803 -0.6942 -0.3226
   59SAPC     N 4425   6.160   4.415  11.261  0.1148 -0.1675  0.0213
   59SAPC   C12 4426   6.086   4.509  11.170  1.3012  0.0850  0.2473
   59SAPC  H12A 4427   6.056   4.458  11.080  1.1746  1.5170 -0.5508
   59SAPC  H12B 4428   6.153   4.586  11.135  0.0227  1.1485  0.0526
   59SAPC   C13 4429   6.080   4.302  11.295  0.0195  0.3622 -0.4226
   59SAPC  H13A 4430   6.066   4.245  11.204  0.0895 -0.8840  0.3140
   59SAPC  H13B 4431   6.129   4.225  11.353  1.3797  1.4362 -0.0905
   59SAPC  H13C 4432   5.988   4.336  11.338  1.0167  2.1951  0.3610
   59SAPC   C14 4433   6.278   4.364  11.192 -0.2952 -1.0154  0.0090
   59SAPC  H14A 4434   6.351   4.427  11.142  1.0847 -1.8818  0.8603
   59SAPC  H14B 4435   6.339   4.293  11.247  0.4682 -0.0798  0.4032
   59SAPC  H14C 4436   6.247   4.322  11.097  1.3266 -0.5032 -0.8014
   59SAPC   C15 4437   6.202   4.487  11.388  0.1963  0.6353  0.0169
   59SAPC  H15A 4438   6.119   4.535  11.437  0.8734  3.4074 -1.3229
   59SAPC  H15B 4439   6.251   4.414  11.452 -1.5532 -1.2727 -0.7186
   59SAPC  H15C 4440   6.274   4.565  11.369  1.0981 -0.7929 -3.0564
   59SAPC   C11 4441   5.963   4.582  11.219  0.1142  0.1845  0.0408
   59SAPC  H11A 4442   5.937   4.663  11.147  1.2717  0.8653  0.3687
   59SAPC  H11B 4443   5.994   4.635  11.311 -1.0270 -2.1818  1.9020
   59SAPC     P 4444   5.778   4.449  11.094 -0.2475 -0.0981  0.4941
   59SAPC   O13 4445   5.780   4.304  11.116 -0.7237  0.7457  0.1101
   59SAPC   O14 4446   5.643   4.501  11.066 -0.0383  0.6155  0.4953
   59SAPC   O12 4447   5.844   4.506  11.232  1.1534  0.8517 -0.6366
   59SAPC   O11 4448   5.890   4.486  10.983  0.1660  0.4302  0.0495
   59SAPC    C1 4449   5.845   4.580  10.879  0.0697 -0.0585  0.4239
   59SAPC    HA 4450   5.796   4.670  10.920  1.5582  0.9927 -0.0454
   59SAPC    HB 4451   5.936   4.617  10.828 -0.0637  0.2292  0.3948
   59SAPC    C2 4452   5.772   4.500  10.766  0.3092  0.7757 -0.9640
   59SAPC    HS 4453   5.674   4.472  10.809  0.4302  3.0667  1.0126
   59SAPC   O21 4454   5.847   4.381  10.732 -0.4513  0.4946 -0.0481
   59SAPC   C21 4455   5.784   4.281  10.677  0.2686  0.4400 -0.0844
   59SAPC   O22 4456   5.665   4.269  10.675  0.8472 -0.4658  0.1811
   59SAPC   C22 4457   5.888   4.179  10.623 -0.0428  0.1441 -1.3167
   59SAPC   H2R 4458   5.966   4.235  10.566 -0.8491 -0.1656 -2.7698
   59SAPC   H2S 4459   5.933   4.119  10.705  0.3167  0.7405 -1.0711
   59SAPC    C3 4460   5.771   4.593  10.644  0.6746  0.6872 -1.1578
   59SAPC    HX 4461   5.872   4.611  10.601  0.5589  1.2436 -1.2002
   59SAPC    HY 4462   5.741   4.693  10.680  2.4543  0.3808  1.5663
   59SAPC   O31 4463   5.686   4.534  10.548 -0.1910 -0.1528  0.7482
   59SAPC   C31 4464   5.556   4.550  10.589 -0.0982  0.2508  0.0822
   59SAPC   O32 4465   5.528   4.616  10.684 -0.3255 -0.1857 -0.2852
   59SAPC   C32 4466   5.454   4.477  10.496 -0.0651  0.0888  0.2936
   59SAPC   H2X 4467   5.398   4.424  10.577 -2.4436  2.1078  0.0937
   59SAPC   H2Y 4468   5.509   4.403  10.435 -1.0105 -0.1847 -0.2447
   59SAPC   C23 4469   5.817   4.086  10.527 -0.0026  0.1522 -1.4786
   59SAPC   H3R 4470   5.732   4.036  10.578  0.4459  1.8301  1.0868
   59SAPC   H3S 4471   5.880   3.996  10.509 -0.2055  0.0372 -1.6179
   59SAPC   C24 4472   5.770   4.150  10.394 -0.1044  0.0362  0.1380
   59SAPC   H4R 4473   5.694   4.228  10.415 -2.2902 -1.7113 -0.8414
   59SAPC   H4S 4474   5.713   4.072  10.340 -0.5080 -0.3028  1.0393
   59SAPC   C25 4475   5.891   4.197  10.310  0.1269  0.3109 -0.3819
   59SAPC   H5R 4476   5.986   4.160  10.352 -0.3256  0.7183  1.0587
   59SAPC   C26 4477   5.891   4.277  10.205 -0.5468  0.2920  0.2412
   59SAPC   H6R 4478   5.985   4.298  10.152 -0.3853 -1.9949 -0.4657
   59SAPC   C27 4479   5.767   4.354  10.147 -0.1307  0.5905 -0.6411
   59SAPC   H7R 4480   5.802   4.459  10.153 -0.3596  0.5884  1.3953
   59SAPC   H7S 4481   5.683   4.357  10.219 -1.3738 -0.8603 -1.9442
   59SAPC   C28 4482   5.712   4.332  10.010 -0.0323  0.0901 -0.1229
   59SAPC   H8R 4483   5.607   4.299  10.009  0.0054 -0.0671  0.4960
   59SAPC   C29 4484   5.775   4.327   9.892 -0.4991  0.7806  0.5415
   59SAPC   H9R 4485   5.728   4.320   9.792  2.4529 -0.0888 -0.8978
   59SAPC  C210 4486   5.922   4.344   9.859  0.0506 -0.3949  0.1842
   59SAPC  H10R 4487   5.950   4.255   9.799  0.3509  1.2372 -2.2719
   59SAPC  H10S 4488   5.988   4.364   9.946  1.5171 -0.4613 -0.8726
   59SAPC  C211 4489   5.957   4.466   9.768 -0.5072  0.2391  0.0004
   59SAPC  H11R 4490   5.949   4.566   9.813  0.5278  1.6240 -2.6757
   59SAPC  C212 4491   5.981   4.469   9.631 -0.1617  0.7082 -0.8191
   59SAPC  H12R 4492   5.975   4.567   9.580  0.1972  0.2804 -1.7101
   59SAPC  C213 4493   5.980   4.349   9.532  0.4943 -0.1086  0.0732
   59SAPC  H13R 4494   6.016   4.252   9.571  3.4366  0.3486 -1.2309
   59SAPC  H13S 4495   6.054   4.364   9.451  0.0620  0.0171 -0.3020
   59SAPC  C214 4496   5.851   4.336   9.451 -0.2547  0.5544 -0.2517
   59SAPC  H14R 4497   5.772   4.270   9.490 -1.6447  0.9868 -2.1613
   59SAPC  C215 4498   5.824   4.374   9.326 -0.2076 -0.1227 -0.1470
   59SAPC  H15R 4499   5.725   4.356   9.282 -0.5253  0.8567  0.1369
   59SAPC  C216 4500   5.927   4.444   9.236  0.5934 -0.1382 -0.1751
   59SAPC  H16R 4501   5.983   4.517   9.297 -0.7052  0.1636  0.7065
   59SAPC  H16S 4502   5.868   4.505   9.165 -0.4707 -1.1480 -0.1979
   59SAPC  C217 4503   6.026   4.344   9.170 -0.0116 -0.0255  0.1343
   59SAPC  H17R 4504   6.063   4.264   9.238  2.3282 -0.3062 -1.3203
   59SAPC  H17S 4505   6.112   4.397   9.124  0.2945 -1.1883 -0.6870
   59SAPC  C218 4506   5.958   4.263   9.050 -0.7020  0.3720 -0.7431
   59SAPC  H18R 4507   5.886   4.335   9.006 -1.3012  0.1903 -0.0704
   59SAPC  H18S 4508   5.898   4.185   9.102  1.1664 -0.0863  0.8567
   59SAPC  C219 4509   6.053   4.200   8.953  0.4693  0.1417  0.1439
   59SAPC  H19R 4510   6.124   4.132   9.005  0.7641 -0.3097 -0.8243
   59SAPC  H19S 4511   6.110   4.278   8.898 -1.6681  0.2058 -2.1621
   59SAPC  C220 4512   5.991   4.116   8.843 -0.4452  0.1616 -0.5360
   59SAPC  H20R 4513   5.927   4.169   8.770 -1.0930 -0.9475 -0.7866
   59SAPC  H20S 4514   5.931   4.032   8.884  0.7827 -0.7971 -0.6316
   59SAPC  H20T 4515   6.077   4.073   8.788  1.4006 -1.2105  3.0632
   59SAPC   C33 4516   5.363   4.567  10.416  0.1970  0.2129 -0.0354
   59SAPC   H3X 4517   5.330   4.659  10.469  0.4443 -0.9327  2.2527
   59SAPC   H3Y 4518   5.274   4.508  10.388  0.1895 -0.0770  0.5881
   59SAPC   C34 4519   5.434   4.617  10.292  0.2545  0.0659  0.0969
   59SAPC   H4X 4520   5.480   4.528  10.245  0.6101  0.2686  0.0537
   59SAPC   H4Y 4521   5.517   4.678  10.334  1.5020 -0.1303 -1.9649
   59SAPC   C35 4522   5.337   4.693  10.202  0.3468  0.4888 -0.0109
   59SAPC   H5X 4523   5.290   4.780  10.253  0.0180  0.0962  0.3684
   59SAPC   H5Y 4524   5.257   4.616  10.195  0.4098  0.2820  1.2131
   59SAPC   C36 4525   5.386   4.740  10.062 -0.1093 -0.3366 -0.6944
   59SAPC   H6X 4526   5.450   4.830  10.076  0.0145 -0.7246  1.5740
   59SAPC   H6Y 4527   5.296   4.772  10.005 -0.2611  0.8814  0.1818
   59SAPC   C37 4528   5.475   4.642   9.994 -0.8805  0.3007  0.4461
   59SAPC   H7X 4529   5.429   4.544  10.017 -2.8439  0.7297 -1.3420
   59SAPC   H7Y 4530   5.566   4.638  10.057 -0.0911 -1.9864 -0.7448
   59SAPC   C38 4531   5.498   4.684   9.845  0.4695 -0.4424 -0.3778
   59SAPC   H8X 4532   5.524   4.792   9.853  0.4045 -0.5232  1.5451
   59SAPC   H8Y 4533   5.408   4.672   9.781 -0.7950  0.4346  1.1462
   59SAPC   C39 4534   5.631   4.619   9.791 -0.2539 -0.1400  0.5825
   59SAPC   H9X 4535   5.612   4.515   9.758  1.0120 -0.7415  1.6359
   59SAPC   H9Y 4536   5.703   4.621   9.875 -0.4348  2.6599  0.7797
   59SAPC  C310 4537   5.693   4.703   9.672 -0.1331  0.8996 -1.0290
   59SAPC  H10X 4538   5.803   4.690   9.677 -0.2278 -0.4789 -2.0473
   59SAPC  H10Y 4539   5.663   4.807   9.699 -0.6188 -0.0612  2.6347
   59SAPC  C311 4540   5.642   4.682   9.530 -0.8264 -0.3707  0.1109
   59SAPC  H11X 4541   5.532   4.680   9.513 -0.7167  0.5390 -0.8598
   59SAPC  H11Y 4542   5.673   4.580   9.499 -1.7456 -0.7386  0.3768
   59SAPC  C312 4543   5.695   4.787   9.427  0.1336 -0.4560 -0.0736
   59SAPC  H12X 4544   5.800   4.818   9.444  0.4784 -2.4536  1.8781
   59SAPC  H12Y 4545   5.629   4.877   9.432  0.0709 -0.2982 -2.7236
   59SAPC  C313 4546   5.649   4.746   9.285 -0.9341  0.1325  0.5013
   59SAPC  H13X 4547   5.539   4.762   9.276 -1.1604 -1.5478 -0.0895
   59SAPC  H13Y 4548   5.673   4.639   9.268  0.2810  0.4354  0.2193
   59SAPC  C314 4549   5.711   4.839   9.177 -0.7308  0.1107  0.1679
   59SAPC  H14X 4550   5.819   4.816   9.161 -1.2918 -2.2882 -0.5821
   59SAPC  H14Y 4551   5.710   4.942   9.219  0.0058 -0.4605  1.6893
   59SAPC  C315 4552   5.659   4.849   9.034  0.7282  0.5669 -0.5536
   59SAPC  H15X 4553   5.717   4.914   8.965 -3.7897  0.4802 -5.0217
   59SAPC  H15Y 4554   5.552   4.880   9.030  0.6412  0.2456 -0.6874
   59SAPC  C316 4555   5.652   4.711   8.963  0.1537 -0.0201 -0.4610
   59SAPC  H16X 4556   5.575   4.653   9.018 -2.2278  2.9552 -0.4213
   59SAPC  H16Y 4557   5.748   4.657   8.970 -0.6737 -1.7259 -1.5958
   59SAPC  C317 4558   5.616   4.728   8.817 -0.3312 -0.9552 -0.0433
   59SAPC  H17X 4559   5.685   4.802   8.770 -0.5590  0.4593  1.7327
   59SAPC  H17Y 4560   5.509   4.759   8.815 -0.3913 -1.1839 -0.6423
   59SAPC  C318 4561   5.629   4.600   8.730 -0.1968 -0.3278  0.3513
   59SAPC  H18X 4562   5.582   4.617   8.631  0.0103 -1.1999  0.1017
   59SAPC  H18Y 4563   5.578   4.514   8.777 -1.6223 -0.2751 -1.0093
   59SAPC  H18Z 4564   5.738   4.579   8.716 -0.1368  0.7847 -1.1861
   60SAPC     N 4565   0.643   2.212  10.918 -0.2391  0.0366  0.1882
   60SAPC   C12 4566   0.696   2.180  10.777 -0.3763  0.5930  0.1465
   60SAPC  H12A 4567   0.635   2.102  10.734  0.6458  0.2646 -0.7490
   60SAPC  H12B 4568   0.797   2.143  10.782 -0.9233 -1.0419 -0.4169
   60SAPC   C13 4569   0.494   2.238  10.909  0.6770 -0.5584 -0.5702
   60SAPC  H13A 4570   0.448   2.266  11.003  0.8995 -0.1307 -0.5845
   60SAPC  H13B 4571   0.466   2.318  10.842 -1.3215 -0.2095  0.5758
   60SAPC  H13C 4572   0.445   2.153  10.864  1.5935 -0.1522 -2.4368
   60SAPC   C14 4573   0.668   2.094  11.005 -0.4972  0.0788  0.1275
   60SAPC  H14A 4574   0.620   2.006  10.963  1.6947 -0.1463 -2.1603
   60SAPC  H14B 4575   0.775   2.083  11.005 -0.5844 -0.8803  0.3007
   60SAPC  H14C 4576   0.638   2.112  11.107 -1.1145 -0.9983  0.1532
   60SAPC   C15 4577   0.715   2.334  10.974  0.0702 -0.1333  0.4178
   60SAPC  H15A 4578   0.695   2.419  10.910 -1.7972 -0.9996 -0.2192
   60SAPC  H15B 4579   0.674   2.344  11.073 -2.2042 -2.3965 -0.1822
   60SAPC  H15C 4580   0.821   2.319  10.969  0.0901 -0.6625  1.9845
   60SAPC   C11 4581   0.693   2.296  10.676  0.5217 -0.1527 -0.4837
   60SAPC  H11A 4582   0.739   2.263  10.581 -0.1149  1.5217 -1.4129
   60SAPC  H11B 4583   0.765   2.374  10.709  0.3067 -0.4404  0.7101
   60SAPC     P 4584   0.528   2.496  10.639 -0.3120 -0.0187  0.3562
   60SAPC   O13 4585   0.381   2.514  10.641  0.1983  0.3178  0.3632
   60SAPC   O14 4586   0.606   2.565  10.745  0.6530  0.5345  0.0778
   60SAPC   O12 4587   0.554   2.335  10.651 -0.0289 -0.2464 -0.1806
   60SAPC   O11 4588   0.581   2.532  10.491 -0.1062 -0.2797 -0.4585
   60SAPC    C1 4589   0.586   2.438  10.382 -0.4680 -0.5514 -0.1589
   60SAPC    HA 4590   0.624   2.494  10.294 -0.0343  1.9400  1.5099
   60SAPC    HB 4591   0.648   2.348  10.402  2.8597  1.3714 -0.9428
   60SAPC    C2 4592   0.448   2.387  10.342 -0.4748  0.5727 -0.3832
   60SAPC    HS 4593   0.403   2.332  10.426  1.6924 -0.2229  0.3243
   60SAPC   O21 4594   0.470   2.302  10.234 -0.4249  0.1118  0.0893
   60SAPC   C21 4595   0.366   2.223  10.207 -0.0607 -0.1297 -0.1507
   60SAPC   O22 4596   0.269   2.204  10.274  0.5456 -0.0888 -0.2862
   60SAPC   C22 4597   0.389   2.172  10.065  0.5095 -0.2557 -0.1815
   60SAPC   H2R 4598   0.368   2.256   9.995 -0.1795  0.1848  0.5394
   60SAPC   H2S 4599   0.499   2.153  10.059  0.8547  0.4652  2.4121
   60SAPC    C3 4600   0.352   2.496  10.307 -0.4815 -0.0772  0.1031
   60SAPC    HX 4601   0.326   2.548  10.402 -0.4543 -0.8776  0.5500
   60SAPC    HY 4602   0.256   2.451  10.275 -0.6779  0.1784  0.3279
   60SAPC   O31 4603   0.415   2.581  10.214 -0.4681 -0.1075  0.0453
   60SAPC   C31 4604   0.364   2.692  10.166 -0.0834  0.1198 -0.2237
   60SAPC   O32 4605   0.256   2.734  10.193  0.7866 -0.3179  0.0053
   60SAPC   C32 4606   0.462   2.759  10.069  0.0917  0.6370 -0.2944
   60SAPC   H2X 4607   0.557   2.702  10.060 -0.1665  0.3298 -1.1615
   60SAPC   H2Y 4608   0.485   2.858  10.116 -1.8190 -0.0540  2.3717
   60SAPC   C23 4609   0.301   2.055  10.030  0.0585  0.3124 -0.7216
   60SAPC   H3R 4610   0.195   2.089  10.028 -0.1491 -0.2224  0.4419
   60SAPC   H3S 4611   0.317   1.977  10.108  0.9720 -0.2207 -1.4294
   60SAPC   C24 4612   0.339   1.986   9.894 -0.1302  0.3391 -0.4189
   60SAPC   H4R 4613   0.274   1.896   9.882 -0.1828  0.5506 -1.9256
   60SAPC   H4S 4614   0.438   1.937   9.901 -0.3577 -0.0870 -0.1208
   60SAPC   C25 4615   0.328   2.076   9.778  0.4367  0.3685 -0.2016
   60SAPC   H5R 4616   0.408   2.151   9.786  0.1106  0.5858  1.5819
   60SAPC   C26 4617   0.231   2.092   9.692 -0.3066  0.6760  0.3054
   60SAPC   H6R 4618   0.239   2.177   9.622  2.8238  0.9847  0.9127
   60SAPC   C27 4619   0.100   2.008   9.676 -0.1266  0.0596 -0.1049
   60SAPC   H7R 4620   0.103   1.931   9.757 -0.8959  1.3249  1.1557
   60SAPC   H7S 4621   0.100   1.950   9.580 -0.4165  0.7623 -0.5318
   60SAPC   C28 4622  -0.034   2.082   9.690  0.0201 -0.3411  0.1712
   60SAPC   H8R 4623  -0.072   2.103   9.792 -0.5864 -2.2340  0.3836
   60SAPC   C29 4624  -0.121   2.105   9.590 -0.8116 -0.7092  0.3464
   60SAPC   H9R 4625  -0.206   2.167   9.623 -2.2931 -2.8203  0.6682
   60SAPC  C210 4626  -0.106   2.072   9.441 -0.0914 -0.0969 -0.4135
   60SAPC  H10R 4627  -0.008   2.100   9.397 -2.0941  0.3068 -5.1373
   60SAPC  H10S 4628  -0.172   2.139   9.382 -0.1750  0.5078  0.3407
   60SAPC  C211 4629  -0.139   1.939   9.409  0.2502  0.4850  0.3181
   60SAPC  H11R 4630  -0.130   1.868   9.493 -0.2140 -0.3365 -0.3068
   60SAPC  C212 4631  -0.165   1.888   9.286 -0.0615  0.4580 -0.7763
   60SAPC  H12R 4632  -0.156   1.779   9.272  3.4328  0.5928 -0.5516
   60SAPC  C213 4633  -0.170   1.976   9.167  0.5232 -0.1219 -0.2693
   60SAPC  H13R 4634  -0.098   2.058   9.188  1.8655 -1.0593 -1.0229
   60SAPC  H13S 4635  -0.267   2.027   9.149  1.4022  0.3864 -4.4895
   60SAPC  C214 4636  -0.117   1.896   9.053 -0.4337 -0.0945  0.5197
   60SAPC  H14R 4637  -0.047   1.815   9.079 -1.6422 -0.3868  3.2186
   60SAPC  C215 4638  -0.144   1.927   8.925 -0.2914  0.7497 -0.1192
   60SAPC  H15R 4639  -0.098   1.870   8.843  1.4479  0.9723  0.6577
   60SAPC  C216 4640  -0.234   2.043   8.872  0.0863 -0.1126  0.2516
   60SAPC  H16R 4641  -0.254   2.124   8.945 -0.4447  0.4417 -0.4811
   60SAPC  H16S 4642  -0.338   2.003   8.864 -0.4397  0.9924  1.2872
   60SAPC  C217 4643  -0.198   2.087   8.727 -0.4350 -0.0236 -0.5914
   60SAPC  H17R 4644  -0.276   2.155   8.687 -1.2608 -1.1814 -1.0282
   60SAPC  H17S 4645  -0.185   1.995   8.666  1.5352  0.1920 -0.5637
   60SAPC  C218 4646  -0.062   2.161   8.722 -0.4782  0.4018  0.7107
   60SAPC  H18R 4647   0.015   2.100   8.775 -3.0160 -2.0533  1.8083
   60SAPC  H18S 4648  -0.080   2.255   8.780 -1.6083  0.4487  0.2891
   60SAPC  C219 4649  -0.013   2.192   8.577  0.1204  0.0436  0.1421
   60SAPC  H19R 4650  -0.079   2.261   8.520 -0.3342 -0.0626  0.5350
   60SAPC  H19S 4651  -0.008   2.097   8.519  1.0349 -0.4025  0.9287
   60SAPC  C220 4652   0.131   2.242   8.589  0.1793  0.1039  0.0999
   60SAPC  H20R 4653   0.113   2.340   8.639 -1.3642  0.2041 -0.5801
   60SAPC  H20S 4654   0.182   2.251   8.491  0.1543 -0.2895  0.0476
   60SAPC  H20T 4655   0.190   2.177   8.656  1.5395  0.8640 -0.3312
   60SAPC   C33 4656   0.403   2.779   9.926 -0.2838 -0.2015 -1.2716
   60SAPC   H3X 4657   0.306   2.830   9.942  0.4359  0.6954  0.6795
   60SAPC   H3Y 4658   0.403   2.675   9.888  2.8157 -0.2032 -1.5592
   60SAPC   C34 4659   0.483   2.867   9.833  0.2199 -0.0973 -0.0564
   60SAPC   H4X 4660   0.526   2.943   9.901  0.3087 -0.3870  0.2180
   60SAPC   H4Y 4661   0.417   2.916   9.759 -0.6032 -3.2841 -1.5838
   60SAPC   C35 4662   0.601   2.793   9.775 -0.1800 -0.5620 -0.5813
   60SAPC   H5X 4663   0.552   2.702   9.734 -0.8322 -2.2512  3.5113
   60SAPC   H5Y 4664   0.670   2.771   9.859 -1.1005 -1.2778  0.0051
   60SAPC   C36 4665   0.689   2.856   9.667  0.3290 -0.1174 -0.0972
   60SAPC   H6X 4666   0.701   2.960   9.702  2.1332 -0.1316 -0.5721
   60SAPC   H6Y 4667   0.624   2.853   9.577 -2.8312 -0.2804  2.0289
   60SAPC   C37 4668   0.809   2.772   9.632  0.1171  0.1342 -0.6335
   60SAPC   H7X 4669   0.773   2.667   9.631 -0.2876  0.1383  2.3884
   60SAPC   H7Y 4670   0.885   2.763   9.713  0.4983  0.7999 -0.9022
   60SAPC   C38 4671   0.870   2.824   9.505  0.3244  0.3149  0.1811
   60SAPC   H8X 4672   0.978   2.797   9.510  0.2646  0.0136 -0.1850
   60SAPC   H8Y 4673   0.866   2.934   9.491 -1.4728  0.3287  0.5639
   60SAPC   C39 4674   0.816   2.743   9.389 -0.3018 -0.4099  0.3002
   60SAPC   H9X 4675   0.719   2.691   9.405 -0.3922 -0.9164 -1.5894
   60SAPC   H9Y 4676   0.886   2.659   9.368 -0.1984 -0.3654  0.4665
   60SAPC  C310 4677   0.795   2.833   9.261  0.1926  0.5219  0.0493
   60SAPC  H10X 4678   0.747   2.931   9.285 -0.0015  0.4039  0.1478
   60SAPC  H10Y 4679   0.725   2.774   9.199  1.3070  1.8433 -2.6127
   60SAPC  C311 4680   0.921   2.830   9.176  0.4304 -0.7076 -0.9951
   60SAPC  H11X 4681   0.993   2.879   9.246  1.0197  0.6208 -2.4638
   60SAPC  H11Y 4682   0.910   2.904   9.094  3.6745  0.9143 -0.1330
   60SAPC  C312 4683   0.968   2.696   9.115  0.7020  0.0907  0.2418
   60SAPC  H12X 4684   0.882   2.641   9.069  1.0250  0.3473 -0.6731
   60SAPC  H12Y 4685   0.999   2.625   9.195 -2.1718  0.9812  2.3164
   60SAPC  C313 4686   1.076   2.705   9.015  0.0801  0.4593 -0.4563
   60SAPC  H13X 4687   1.123   2.605   9.004  1.0358  0.5526  2.1106
   60SAPC  H13Y 4688   1.156   2.779   9.038 -1.1378  1.7048 -0.1306
   60SAPC  C314 4689   1.026   2.736   8.867 -0.6240  0.2958  1.1344
   60SAPC  H14X 4690   0.955   2.820   8.880 -2.9469 -1.7347  2.3830
   60SAPC  H14Y 4691   0.954   2.656   8.838 -0.5185  0.5626  0.0999
   60SAPC  C315 4692   1.129   2.744   8.753  0.3593  0.6733  0.4893
   60SAPC  H15X 4693   1.070   2.741   8.659  1.1213  1.0917 -0.0142
   60SAPC  H15Y 4694   1.196   2.656   8.763  0.0919  0.3684 -0.4105
   60SAPC  C316 4695   1.222   2.863   8.754 -0.0156  0.0068  1.0619
   60SAPC  H16X 4696   1.281   2.863   8.848  1.6461  0.9088  0.0723
   60SAPC  H16Y 4697   1.162   2.957   8.761  2.4064  1.6565  0.6887
   60SAPC  C317 4698   1.314   2.869   8.626 -0.8053  0.0006  0.5815
   60SAPC  H17X 4699   1.258   2.845   8.534 -0.6971 -1.8180  0.9615
   60SAPC  H17Y 4700   1.387   2.786   8.635 -0.5507 -0.0096 -1.2808
   60SAPC  C318 4701   1.398   2.991   8.601  0.0939 -0.2893  0.3932
   60SAPC  H18X 4702   1.330   3.079   8.605  0.3474 -0.0654 -0.1822
   60SAPC  H18Y 4703   1.442   2.989   8.499 -0.3137 -0.0775  0.2098
   60SAPC  H18Z 4704   1.482   2.998   8.674 -0.3932  0.7852  0.8750
   61SAPC     N 4705   0.961   1.109  10.865  0.8662 -0.5615  0.2850
   61SAPC   C12 4706   0.991   0.997  10.772 -0.0055  0.1148 -0.1291
   61SAPC  H12A 4707   0.924   1.005  10.687 -1.1678 -0.4367  0.7042
   61SAPC  H12B 4708   0.971   0.905  10.824 -2.6071 -0.1436 -1.4250
   61SAPC   C13 4709   1.002   1.244  10.812  0.1740  0.3518  0.3591
   61SAPC  H13A 4710   0.992   1.330  10.876  2.1407  1.3102 -0.5319
   61SAPC  H13B 4711   1.106   1.245  10.783  0.4781 -2.0856  1.1225
   61SAPC  H13C 4712   0.945   1.271  10.725 -0.0681 -0.8670  0.1215
   61SAPC   C14 4713   0.814   1.121  10.887  0.3199  0.1573 -0.7189
   61SAPC  H14A 4714   0.762   1.108  10.793  0.4242 -0.6882 -0.6668
   61SAPC  H14B 4715   0.756   1.057  10.952  0.3337  1.2331  0.3892
   61SAPC  H14C 4716   0.800   1.225  10.909 -0.4858 -0.1623  0.3606
   61SAPC   C15 4717   1.040   1.090  10.991  0.3362  0.8307 -0.6963
   61SAPC  H15A 4718   1.037   1.183  11.047  1.7420 -0.4674  1.7102
   61SAPC  H15B 4719   0.996   1.010  11.049 -0.2941  1.9500  0.4192
   61SAPC  H15C 4720   1.141   1.065  10.965 -0.5417 -2.7847 -1.1280
   61SAPC   C11 4721   1.135   0.988  10.715 -0.5207  0.0205 -0.3448
   61SAPC  H11A 4722   1.163   1.070  10.646 -1.0430 -0.4188 -1.0881
   61SAPC  H11B 4723   1.141   0.897  10.652 -1.9214 -2.2023  2.5031
   61SAPC     P 4724   1.283   0.837  10.860 -0.0137  0.0148 -0.2681
   61SAPC   O13 4725   1.397   0.857  10.956 -0.5548 -0.4320 -0.2812
   61SAPC   O14 4726   1.172   0.751  10.907  0.1888 -0.2175 -0.0968
   61SAPC   O12 4727   1.240   0.979  10.815 -0.1067  0.1773 -0.1987
   61SAPC   O11 4728   1.347   0.777  10.726  0.2154  1.1273  0.1339
   61SAPC    C1 4729   1.477   0.817  10.670  0.0859  0.2352  0.8214
   61SAPC    HA 4730   1.549   0.835  10.752  1.2002  0.6503 -0.2140
   61SAPC    HB 4731   1.510   0.744  10.593 -1.4777  1.1417 -0.7984
   61SAPC    C2 4732   1.466   0.952  10.596  0.7487  0.1944 -0.7134
   61SAPC    HS 4733   1.423   1.027  10.665 -2.3205 -1.6740 -0.4068
   61SAPC   O21 4734   1.376   0.943  10.489  0.2107 -0.1456  0.2906
   61SAPC   C21 4735   1.356   1.056  10.428  0.3117 -0.1865  0.5164
   61SAPC   O22 4736   1.386   1.166  10.464  0.3787 -0.5993 -0.0348
   61SAPC   C22 4737   1.286   1.030  10.291  0.0190 -0.6644  0.2480
   61SAPC   H2R 4738   1.230   0.934  10.283 -0.3125 -0.4514 -0.0543
   61SAPC   H2S 4739   1.199   1.099  10.302  0.3844 -0.4420  2.0973
   61SAPC    C3 4740   1.613   0.988  10.557 -0.3413  0.9438  0.2778
   61SAPC    HX 4741   1.673   0.971  10.649 -0.9938 -0.5312  0.4551
   61SAPC    HY 4742   1.623   1.096  10.533 -0.3777  0.6749 -1.0569
   61SAPC   O31 4743   1.662   0.909  10.443  0.3683  0.3405  0.2871
   61SAPC   C31 4744   1.748   0.812  10.472  0.3590 -0.3010  0.4313
   61SAPC   O32 4745   1.786   0.781  10.583 -0.2034 -1.1315  0.8685
   61SAPC   C32 4746   1.786   0.735  10.343  0.0469  0.1912 -0.9565
   61SAPC   H2X 4747   1.761   0.630  10.368 -3.2486  1.0636 -0.0596
   61SAPC   H2Y 4748   1.894   0.744  10.318 -0.0399 -0.0083 -1.4158
   61SAPC   C23 4749   1.365   1.071  10.165  0.6074  0.5118 -0.0432
   61SAPC   H3R 4750   1.425   0.990  10.120  1.4551  2.4533 -2.6859
   61SAPC   H3S 4751   1.438   1.150  10.194 -0.2053  1.6213 -0.9359
   61SAPC   C24 4752   1.277   1.126  10.050 -0.1485 -0.3845  0.3672
   61SAPC   H4R 4753   1.343   1.123   9.960 -0.0279 -1.9036  0.4776
   61SAPC   H4S 4754   1.247   1.233  10.063  0.8745 -0.2158  1.5759
   61SAPC   C25 4755   1.155   1.043  10.026  0.8359  0.7566 -0.3414
   61SAPC   H5R 4756   1.097   1.015  10.116 -1.8664  1.2525 -1.8358
   61SAPC   C26 4757   1.110   0.994   9.907 -0.2147 -0.1692 -0.4903
   61SAPC   H6R 4758   1.014   0.941   9.896  0.5651 -1.5918 -0.5444
   61SAPC   C27 4759   1.170   1.029   9.775 -0.0592  0.6516  0.8345
   61SAPC   H7R 4760   1.101   0.983   9.701 -0.9738 -0.3008  2.2460
   61SAPC   H7S 4761   1.266   0.976   9.761  0.0794  1.1837 -0.4299
   61SAPC   C28 4762   1.195   1.182   9.755 -0.6924  0.0977  0.6700
   61SAPC   H8R 4763   1.171   1.251   9.838  0.5010 -1.1233  2.0926
   61SAPC   C29 4764   1.240   1.236   9.641  0.0382  0.3337  0.4010
   61SAPC   H9R 4765   1.256   1.345   9.644 -1.3865  0.5495  2.8476
   61SAPC  C210 4766   1.282   1.166   9.516 -0.1687 -0.5844 -0.1191
   61SAPC  H10R 4767   1.217   1.190   9.429 -0.7981  1.6648  0.8864
   61SAPC  H10S 4768   1.285   1.055   9.521  2.1954 -0.5333  0.9453
   61SAPC  C211 4769   1.421   1.209   9.477 -0.7850 -0.2834 -0.3029
   61SAPC  H11R 4770   1.504   1.155   9.524 -0.7442  0.5390  0.6036
   61SAPC  C212 4771   1.460   1.309   9.395  0.2394  1.0081 -0.0930
   61SAPC  H12R 4772   1.568   1.319   9.376  0.6238 -0.6336  1.0860
   61SAPC  C213 4773   1.367   1.403   9.322  0.0779  0.2393 -0.4632
   61SAPC  H13R 4774   1.280   1.423   9.388  0.9882 -1.3988  1.3444
   61SAPC  H13S 4775   1.328   1.342   9.238  0.2483  1.1936 -1.2602
   61SAPC  C214 4776   1.430   1.527   9.256  0.2760  0.8048  0.0898
   61SAPC  H14R 4777   1.405   1.619   9.311  1.4551  0.0751  1.9313
   61SAPC  C215 4778   1.485   1.528   9.138  0.2355 -0.2556 -0.1068
   61SAPC  H15R 4779   1.526   1.623   9.101 -1.1562  0.1599 -0.6696
   61SAPC  C216 4780   1.497   1.417   9.044  0.0466 -0.0847  0.2435
   61SAPC  H16R 4781   1.467   1.321   9.091 -3.1012 -0.1134 -1.5257
   61SAPC  H16S 4782   1.600   1.411   9.003  0.0731  1.5083  0.0189
   61SAPC  C217 4783   1.399   1.435   8.934 -0.3529  0.2200  0.0262
   61SAPC  H17R 4784   1.413   1.533   8.884 -0.4915  2.2542  3.6546
   61SAPC  H17S 4785   1.301   1.429   8.987 -0.9339 -2.0279 -1.1593
   61SAPC  C218 4786   1.395   1.322   8.837 -0.1068  0.9487  0.3742
   61SAPC  H18R 4787   1.401   1.227   8.894 -1.4881 -0.2773 -1.4132
   61SAPC  H18S 4788   1.481   1.331   8.768 -1.0903  0.4429 -0.9488
   61SAPC  C219 4789   1.266   1.315   8.759 -0.3443  0.0062  0.8831
   61SAPC  H19R 4790   1.174   1.311   8.821 -2.2692  0.8471 -1.7434
   61SAPC  H19S 4791   1.272   1.220   8.701  2.5068  1.0391 -0.7135
   61SAPC  C220 4792   1.254   1.437   8.667 -0.1188  0.1896  0.5861
   61SAPC  H20R 4793   1.186   1.507   8.719  0.8382  2.1844 -0.7266
   61SAPC  H20S 4794   1.207   1.404   8.572  1.2822  1.8483 -0.7491
   61SAPC  H20T 4795   1.354   1.485   8.663  0.0744  0.0535  2.6513
   61SAPC   C33 4796   1.701   0.777  10.218  0.3088  0.5229  0.2676
   61SAPC   H3X 4797   1.602   0.825  10.232  0.8647  1.3700  1.4323
   61SAPC   H3Y 4798   1.682   0.679  10.167 -0.3881  1.9452 -2.4106
   61SAPC   C34 4799   1.775   0.859  10.112  0.6174 -0.2050 -0.3193
   61SAPC   H4X 4800   1.867   0.796  10.103 -0.2684 -1.3506 -1.9703
   61SAPC   H4Y 4801   1.818   0.953  10.151  0.3938 -0.3070  0.1786
   61SAPC   C35 4802   1.706   0.873   9.977  0.1107 -0.3014 -0.4504
   61SAPC   H5X 4803   1.619   0.941   9.991 -0.6219 -1.6888  2.7643
   61SAPC   H5Y 4804   1.663   0.772   9.956 -0.4424  0.2717 -2.2109
   61SAPC   C36 4805   1.794   0.928   9.865 -0.3021 -0.0994 -0.2357
   61SAPC   H6X 4806   1.893   0.876   9.864 -0.2045  0.0947 -0.9181
   61SAPC   H6Y 4807   1.824   1.033   9.885  0.4647 -0.1212 -1.1865
   61SAPC   C37 4808   1.722   0.925   9.732  0.1867  0.9011 -0.5475
   61SAPC   H7X 4809   1.660   1.017   9.725 -1.6633 -0.2234  0.3562
   61SAPC   H7Y 4810   1.660   0.833   9.729  1.4063  0.0389 -0.4093
   61SAPC   C38 4811   1.809   0.923   9.606 -0.1380 -0.2680  0.0594
   61SAPC   H8X 4812   1.890   0.846   9.610  0.2430  0.1430  0.4817
   61SAPC   H8Y 4813   1.869   1.016   9.622  0.0293 -0.5481  1.1981
   61SAPC   C39 4814   1.726   0.924   9.476 -0.0724  0.9048 -0.2631
   61SAPC   H9X 4815   1.635   0.985   9.494  0.1656  1.2967 -0.3808
   61SAPC   H9Y 4816   1.697   0.817   9.463  3.4510 -0.1349 -0.7642
   61SAPC  C310 4817   1.806   0.956   9.345 -0.6565 -0.3189 -1.0271
   61SAPC  H10X 4818   1.722   0.977   9.275 -0.5854  0.9687 -0.7491
   61SAPC  H10Y 4819   1.862   0.870   9.301  0.9165 -0.6464  1.4071
   61SAPC  C311 4820   1.902   1.080   9.354  0.5895 -0.1237  0.1250
   61SAPC  H11X 4821   1.994   1.064   9.414  1.2867  0.9128 -0.6256
   61SAPC  H11Y 4822   1.843   1.158   9.407  2.9431  0.7856  1.5912
   61SAPC  C312 4823   1.946   1.134   9.218 -0.4446  0.1237  0.6048
   61SAPC  H12X 4824   1.968   1.242   9.223 -0.7366  0.2051  0.1359
   61SAPC  H12Y 4825   1.859   1.125   9.150  1.7934 -2.1428 -2.2503
   61SAPC  C313 4826   2.072   1.063   9.158  0.3686  0.6405 -0.1846
   61SAPC  H13X 4827   2.037   0.957   9.149 -1.9619  1.4057 -0.9960
   61SAPC  H13Y 4828   2.156   1.061   9.231  1.3633 -0.7045 -1.3025
   61SAPC  C314 4829   2.124   1.103   9.027 -0.1520 -0.0359  0.5560
   61SAPC  H14X 4830   2.207   1.031   9.009 -1.2097 -1.2445  0.2954
   61SAPC  H14Y 4831   2.171   1.203   9.031  0.8066 -0.4964  1.0233
   61SAPC  C315 4832   2.023   1.109   8.908  0.7412  0.3851 -0.2807
   61SAPC  H15X 4833   1.946   1.182   8.941 -0.4115  0.6368 -3.2440
   61SAPC  H15Y 4834   1.980   1.007   8.899 -2.2530  1.5201 -0.0973
   61SAPC  C316 4835   2.074   1.167   8.774 -0.6032 -0.2301  0.2441
   61SAPC  H16X 4836   2.168   1.119   8.738 -0.1215  0.4871  0.5269
   61SAPC  H16Y 4837   2.099   1.275   8.781 -1.1417 -0.0640 -0.4010
   61SAPC  C317 4838   1.987   1.166   8.652 -0.0040  0.5984 -0.6419
   61SAPC  H17X 4839   1.893   1.214   8.688  0.5236  0.0378  1.6122
   61SAPC  H17Y 4840   1.957   1.066   8.615 -0.3592  0.0380  1.0716
   61SAPC  C318 4841   2.046   1.244   8.539 -0.5756  0.3651  0.0344
   61SAPC  H18X 4842   2.056   1.346   8.581 -1.3593  0.2968  0.4070
   61SAPC  H18Y 4843   1.996   1.236   8.440  3.5931  1.8469 -2.4105
   61SAPC  H18Z 4844   2.142   1.193   8.513 -1.3908 -1.3360  0.1664
   62SAPC     N 4845   0.305   1.400  10.521 -0.3208 -0.0471  0.3940
   62SAPC   C12 4846   0.425   1.317  10.467 -0.2584  0.2683  0.0106
   62SAPC  H12A 4847   0.506   1.339  10.534  0.3002 -2.2171  0.2670
   62SAPC  H12B 4848   0.458   1.369  10.379  1.3962  0.2928  0.6260
   62SAPC   C13 4849   0.226   1.334  10.634  0.4052  0.1232 -0.0064
   62SAPC  H13A 4850   0.168   1.254  10.591 -5.0440  3.4065  0.2855
   62SAPC  H13B 4851   0.295   1.287  10.702  0.0655 -0.6324 -0.1703
   62SAPC  H13C 4852   0.161   1.404  10.686  1.1939 -0.7552  2.2804
   62SAPC   C14 4853   0.365   1.528  10.562  0.0785 -0.6313  0.4230
   62SAPC  H14A 4854   0.441   1.498  10.633 -2.3816  0.3447  3.7396
   62SAPC  H14B 4855   0.416   1.582  10.483 -0.8097 -0.0463  0.2309
   62SAPC  H14C 4856   0.301   1.588  10.625  0.6687 -0.7855  1.1889
   62SAPC   C15 4857   0.203   1.429  10.413  0.1526  0.1980  0.4576
   62SAPC  H15A 4858   0.242   1.480  10.326  1.4527  1.1831  1.5680
   62SAPC  H15B 4859   0.162   1.333  10.384  2.2330 -1.0910  1.4630
   62SAPC  H15C 4860   0.127   1.496  10.450 -2.0022 -1.0370 -1.4573
   62SAPC   C11 4861   0.397   1.161  10.453 -0.0717 -0.9344 -0.1685
   62SAPC  H11A 4862   0.467   1.125  10.375  1.9226  0.0446  1.0819
   62SAPC  H11B 4863   0.295   1.138  10.415 -1.0632  0.0615  1.7540
   62SAPC     P 4864   0.557   1.055  10.618  0.3237 -0.3038  0.2277
   62SAPC   O13 4865   0.662   1.156  10.580  0.6400 -0.0375  0.4438
   62SAPC   O14 4866   0.553   1.015  10.757  0.0816 -0.5423 -0.3140
   62SAPC   O12 4867   0.411   1.104  10.578 -0.5305  0.0463 -0.3254
   62SAPC   O11 4868   0.580   0.931  10.529  0.1438 -0.1326 -0.1960
   62SAPC    C1 4869   0.538   0.799  10.560  0.1856  0.1923  0.5564
   62SAPC    HA 4870   0.622   0.745  10.609  0.8749  0.2770 -0.5048
   62SAPC    HB 4871   0.457   0.796  10.635 -0.9370 -2.7209 -0.6476
   62SAPC    C2 4872   0.493   0.725  10.427  0.2519 -0.1641  0.4334
   62SAPC    HS 4873   0.465   0.624  10.464  1.1404  0.3209  2.6321
   62SAPC   O21 4874   0.595   0.716  10.337 -0.6272  0.0575  0.3651
   62SAPC   C21 4875   0.689   0.620  10.361  0.3736 -0.4236 -0.2893
   62SAPC   O22 4876   0.672   0.545  10.453  0.2085  0.0817  0.7022
   62SAPC   C22 4877   0.805   0.615  10.269  0.3023  0.1712 -0.1236
   62SAPC   H2R 4878   0.890   0.667  10.320  0.2389  0.2147 -0.0627
   62SAPC   H2S 4879   0.832   0.509  10.250 -2.0673 -0.3024 -1.0980
   62SAPC    C3 4880   0.357   0.790  10.374  0.6360 -0.6158  0.0970
   62SAPC    HX 4881   0.370   0.892  10.334  0.4421 -1.3212 -1.8958
   62SAPC    HY 4882   0.278   0.804  10.450  2.7044 -0.3665  2.3291
   62SAPC   O31 4883   0.308   0.694  10.274  0.2441  0.6469 -0.2411
   62SAPC   C31 4884   0.230   0.740  10.172 -0.4692 -0.0551  0.5162
   62SAPC   O32 4885   0.189   0.851  10.159  0.6191 -0.2240  0.7192
   62SAPC   C32 4886   0.199   0.621  10.087 -0.7647  0.1488 -0.7041
   62SAPC   H2X 4887   0.089   0.610  10.076 -0.4083 -2.6473 -2.7109
   62SAPC   H2Y 4888   0.231   0.531  10.144 -2.0322 -1.8795 -2.9802
   62SAPC   C23 4889   0.776   0.686  10.135 -0.6241  0.2780  1.1216
   62SAPC   H3R 4890   0.759   0.795  10.142 -2.3043  0.1071  0.2719
   62SAPC   H3S 4891   0.679   0.652  10.092  0.2982  0.3278 -1.1306
   62SAPC   C24 4892   0.872   0.658  10.017 -0.5286  0.7064 -0.0385
   62SAPC   H4R 4893   0.854   0.552   9.987 -1.9844  1.0259 -0.3516
   62SAPC   H4S 4894   0.981   0.667  10.036 -0.4108  0.0693 -0.3912
   62SAPC   C25 4895   0.842   0.748   9.896  0.1855 -0.0141 -0.0907
   62SAPC   H5R 4896   0.809   0.850   9.919 -0.3213  0.4092 -2.3746
   62SAPC   C26 4897   0.848   0.712   9.770 -0.1438 -0.4286 -0.0515
   62SAPC   H6R 4898   0.822   0.793   9.700 -0.4778 -1.1093 -0.7279
   62SAPC   C27 4899   0.895   0.578   9.708 -0.0891  0.4129 -0.0913
   62SAPC   H7R 4900   0.821   0.497   9.691  1.0348 -0.0997 -3.0930
   62SAPC   H7S 4901   0.973   0.533   9.774 -1.0147 -1.1523 -0.0349
   62SAPC   C28 4902   0.967   0.613   9.584  0.3193 -0.7296  0.1716
   62SAPC   H8R 4903   1.069   0.655   9.593  0.0673 -0.3876  1.6955
   62SAPC   C29 4904   0.919   0.614   9.454  0.1062  0.4509  0.8694
   62SAPC   H9R 4905   0.996   0.645   9.382  1.4934 -0.5266  1.8627
   62SAPC  C210 4906   0.785   0.563   9.402 -0.4066 -0.2837 -0.3955
   62SAPC  H10R 4907   0.732   0.510   9.485 -1.2533 -0.9826 -1.3536
   62SAPC  H10S 4908   0.803   0.485   9.325  0.6940 -0.0041 -0.4295
   62SAPC  C211 4909   0.697   0.672   9.351 -0.2762 -0.1991  0.1213
   62SAPC  H11R 4910   0.671   0.756   9.416 -0.9320 -1.0506  0.9826
   62SAPC  C212 4911   0.649   0.675   9.227  0.3646 -0.7161 -0.0847
   62SAPC  H12R 4912   0.579   0.758   9.209  0.7385 -0.5097 -0.6158
   62SAPC  C213 4913   0.673   0.584   9.112  0.2497  0.3046 -0.0813
   62SAPC  H13R 4914   0.581   0.556   9.055 -0.6592 -0.1443  1.5635
   62SAPC  H13S 4915   0.695   0.488   9.163 -0.9114 -0.5698 -1.1662
   62SAPC  C214 4916   0.779   0.624   9.017  0.4737  0.2478 -0.4350
   62SAPC  H14R 4917   0.854   0.689   9.063  0.6360  0.6080 -1.1854
   62SAPC  C215 4918   0.793   0.607   8.878  0.2036 -0.3036 -0.4157
   62SAPC  H15R 4919   0.880   0.659   8.836  1.0032  1.5404  3.1800
   62SAPC  C216 4920   0.693   0.532   8.790 -0.3430  1.1746  0.1923
   62SAPC  H16R 4921   0.595   0.582   8.774 -0.1002  1.5175 -0.2381
   62SAPC  H16S 4922   0.681   0.432   8.839 -0.4173  0.0109 -2.0860
   62SAPC  C217 4923   0.747   0.490   8.650 -0.1074  0.5034  0.5662
   62SAPC  H17R 4924   0.683   0.408   8.611 -0.6727  0.7513  0.9613
   62SAPC  H17S 4925   0.847   0.443   8.662 -0.3839  0.2738  2.2376
   62SAPC  C218 4926   0.743   0.606   8.552 -0.2835 -0.3332 -0.1653
   62SAPC  H18R 4927   0.825   0.677   8.575 -0.0307 -0.3655 -0.9453
   62SAPC  H18S 4928   0.646   0.660   8.561  0.5206  1.1167  0.2070
   62SAPC  C219 4929   0.772   0.563   8.406  0.6122 -0.0638  0.1629
   62SAPC  H19R 4930   0.695   0.493   8.367  1.1774  0.7375 -2.5644
   62SAPC  H19S 4931   0.864   0.500   8.405 -0.4078 -1.6157 -1.1422
   62SAPC  C220 4932   0.790   0.667   8.294 -0.1182  0.9654 -0.0245
   62SAPC  H20R 4933   0.701   0.732   8.302 -0.9792 -0.3641  2.1737
   62SAPC  H20S 4934   0.795   0.621   8.193 -0.5953  1.1890 -0.1492
   62SAPC  H20T 4935   0.885   0.719   8.320 -0.2696  0.1550  2.3635
   62SAPC   C33 4936   0.247   0.637   9.943 -0.6401 -0.0051  0.2318
   62SAPC   H3X 4937   0.234   0.741   9.905  0.0553 -0.0542 -0.1621
   62SAPC   H3Y 4938   0.182   0.569   9.884  0.4812  0.1029 -1.1919
   62SAPC   C34 4939   0.398   0.596   9.924  0.0237  0.5655 -0.2750
   62SAPC   H4X 4940   0.406   0.496   9.972  0.0860  0.5376 -0.3436
   62SAPC   H4Y 4941   0.462   0.669   9.977 -0.8141  0.8895  0.3254
   62SAPC   C35 4942   0.437   0.601   9.770 -0.4945  0.6768 -0.8330
   62SAPC   H5X 4943   0.460   0.703   9.734 -1.9351  0.5741 -2.1406
   62SAPC   H5Y 4944   0.357   0.553   9.709 -1.9820 -0.0055  1.5175
   62SAPC   C36 4945   0.560   0.512   9.749  0.0772 -0.7491  0.2791
   62SAPC   H6X 4946   0.635   0.528   9.829  0.4223 -0.8494 -0.0214
   62SAPC   H6Y 4947   0.607   0.535   9.651  1.4894 -1.2362  0.8217
   62SAPC   C37 4948   0.527   0.361   9.737  0.6287 -0.0599  0.4171
   62SAPC   H7X 4949   0.457   0.343   9.653  1.4026  0.5200 -0.3600
   62SAPC   H7Y 4950   0.459   0.341   9.823 -2.0556 -0.0965 -1.6033
   62SAPC   C38 4951   0.649   0.263   9.727 -0.2868 -0.2368 -0.2449
   62SAPC   H8X 4952   0.695   0.274   9.827 -1.2536  2.7206 -0.0316
   62SAPC   H8Y 4953   0.722   0.305   9.654 -0.5077  2.3919  0.9261
   62SAPC   C39 4954   0.614   0.117   9.688  0.4594 -0.4791  0.1839
   62SAPC   H9X 4955   0.578   0.078   9.785 -0.3164 -1.2262 -0.3823
   62SAPC   H9Y 4956   0.710   0.071   9.657  1.2152  0.1967  1.4429
   62SAPC  C310 4957   0.526   0.084   9.560 -0.2062  0.3851 -0.2778
   62SAPC  H10X 4958   0.423   0.103   9.597  0.7128 -0.0359  2.8544
   62SAPC  H10Y 4959   0.531  -0.026   9.542 -0.5030  0.2933  0.1840
   62SAPC  C311 4960   0.563   0.150   9.431 -0.2806 -0.4723  0.2251
   62SAPC  H11X 4961   0.672   0.143   9.412  0.3891  0.5135  3.1397
   62SAPC  H11Y 4962   0.537   0.258   9.426 -0.1954 -0.5044 -2.8136
   62SAPC  C312 4963   0.478   0.100   9.314 -0.9259 -0.5334 -0.2827
   62SAPC  H12X 4964   0.368   0.105   9.325 -0.7271  1.2118  1.3024
   62SAPC  H12Y 4965   0.499  -0.005   9.282 -1.5683 -0.4340 -1.0418
   62SAPC  C313 4966   0.511   0.198   9.191 -0.3888 -0.2299 -0.2046
   62SAPC  H13X 4967   0.618   0.225   9.203  0.1409 -1.8433 -1.0651
   62SAPC  H13Y 4968   0.442   0.284   9.207 -0.4907 -0.7122  2.3569
   62SAPC  C314 4969   0.487   0.144   9.050 -0.1334  0.1207 -0.3840
   62SAPC  H14X 4970   0.380   0.115   9.047 -0.7105  1.9507  0.7616
   62SAPC  H14Y 4971   0.547   0.053   9.030 -0.9931 -0.4750 -0.2670
   62SAPC  C315 4972   0.502   0.252   8.948  0.1996  0.1316 -0.3043
   62SAPC  H15X 4973   0.597   0.239   8.891  0.4518 -1.9758  0.4923
   62SAPC  H15Y 4974   0.495   0.355   8.989 -0.9909  0.7590 -1.9988
   62SAPC  C316 4975   0.387   0.259   8.844  0.4397  0.1226  0.2251
   62SAPC  H16X 4976   0.387   0.167   8.781 -1.6992 -0.2892  0.7319
   62SAPC  H16Y 4977   0.409   0.339   8.770  0.7174 -0.4245 -0.2955
   62SAPC  C317 4978   0.243   0.285   8.894 -0.3700  1.1413 -0.0833
   62SAPC  H17X 4979   0.214   0.195   8.952 -0.0103  0.0430 -1.5613
   62SAPC  H17Y 4980   0.167   0.293   8.814 -2.2019  0.2091  1.4899
   62SAPC  C318 4981   0.239   0.402   8.986 -0.0865 -0.3463 -0.1218
   62SAPC  H18X 4982   0.302   0.381   9.075 -0.1605 -1.4425 -0.3158
   62SAPC  H18Y 4983   0.139   0.425   9.029  0.8078 -0.6358  2.2316
   62SAPC  H18Z 4984   0.276   0.488   8.926 -0.9490 -0.3296 -0.6531
   63SAPC     N 4985   4.195   0.304   6.250  0.4771  0.3175  0.3286
   63SAPC   C12 4986   4.263   0.195   6.320 -0.1665 -0.7542  0.2065
   63SAPC  H12A 4987   4.318   0.249   6.396  0.1880 -0.7296 -0.0662
   63SAPC  H12B 4988   4.333   0.147   6.254 -1.8310 -0.7296 -1.6569
   63SAPC   C13 4989   4.100   0.234   6.146  0.1343 -0.2699 -0.8872
   63SAPC  H13A 4990   4.161   0.178   6.077  1.6291  0.6597 -0.3531
   63SAPC  H13B 4991   4.044   0.161   6.204  1.7496 -1.8961 -1.2719
   63SAPC  H13C 4992   4.036   0.302   6.092  1.5222 -0.4997 -2.9186
   63SAPC   C14 4993   4.123   0.389   6.349  0.0365  0.2704  0.1028
   63SAPC  H14A 4994   4.077   0.471   6.296 -0.0731 -1.6391 -2.9794
   63SAPC  H14B 4995   4.053   0.336   6.411 -0.0148  0.9539  0.6426
   63SAPC  H14C 4996   4.191   0.432   6.421  1.6735  1.1211 -1.8549
   63SAPC   C15 4997   4.298   0.393   6.178  0.5651 -0.1349  0.6382
   63SAPC  H15A 4998   4.359   0.447   6.249 -0.7977  0.6642  1.2409
   63SAPC  H15B 4999   4.361   0.326   6.121 -0.3407 -1.1625  0.8150
   63SAPC  H15C 5000   4.249   0.456   6.105 -1.4163  0.3326  2.2759
   63SAPC   C11 5001   4.172   0.092   6.388 -0.3172  0.0131  0.1768
   63SAPC  H11A 5002   4.076   0.131   6.429  0.5887  1.0164  1.4347
   63SAPC  H11B 5003   4.225   0.052   6.477 -2.5160 -0.1209  1.4897
   63SAPC     P 5004   4.005  -0.094   6.305 -0.5382  0.0659 -0.0063
   63SAPC   O13 5005   3.899   0.009   6.313  0.4948  0.1571 -0.0295
   63SAPC   O14 5006   3.985  -0.202   6.204 -0.3416 -0.1936  0.5343
   63SAPC   O12 5007   4.150  -0.017   6.288  0.2325  0.2101 -0.4186
   63SAPC   O11 5008   4.035  -0.153   6.451 -0.0513 -0.0671 -0.2803
   63SAPC    C1 5009   4.116  -0.266   6.473 -0.4384  0.5482 -0.4760
   63SAPC    HA 5010   4.172  -0.291   6.381  1.0502 -0.5664  0.6880
   63SAPC    HB 5011   4.195  -0.242   6.546 -0.7677 -1.1418  0.4931
   63SAPC    C2 5012   4.033  -0.381   6.545 -0.2840  0.0983  0.2663
   63SAPC    HS 5013   3.942  -0.404   6.485 -1.2422 -1.6200  2.2313
   63SAPC   O21 5014   3.988  -0.320   6.667  0.0023  0.7397 -0.4462
   63SAPC   C21 5015   3.964  -0.384   6.779  0.4387 -1.0461  0.2185
   63SAPC   O22 5016   3.928  -0.500   6.779  1.1129 -0.3205  0.1243
   63SAPC   C22 5017   3.968  -0.295   6.902  0.6275  0.4637 -0.5685
   63SAPC   H2R 5018   3.905  -0.206   6.880 -1.0706 -0.9330 -1.6375
   63SAPC   H2S 5019   3.909  -0.356   6.973 -2.6564 -0.1827 -3.5508
   63SAPC    C3 5020   4.115  -0.514   6.564  0.5993 -0.0924 -0.5498
   63SAPC    HX 5021   4.133  -0.557   6.463 -0.5166 -0.8989 -0.4166
   63SAPC    HY 5022   4.052  -0.589   6.617 -0.4543 -0.3514 -2.1316
   63SAPC   O31 5023   4.237  -0.488   6.648  0.2271 -0.1701 -0.2317
   63SAPC   C31 5024   4.304  -0.592   6.683 -0.4862 -0.0248 -0.3927
   63SAPC   O32 5025   4.266  -0.709   6.683 -0.2904  0.2761  0.6152
   63SAPC   C32 5026   4.450  -0.540   6.711 -0.6290  0.4101 -0.7062
   63SAPC   H2X 5027   4.441  -0.441   6.759  0.7467 -0.5539  1.7655
   63SAPC   H2Y 5028   4.509  -0.521   6.619 -0.9477  3.9707 -0.2849
   63SAPC   C23 5029   4.110  -0.279   6.964  0.0165 -0.5263 -0.0283
   63SAPC   H3R 5030   4.104  -0.208   7.049  0.4703 -0.5875  0.0621
   63SAPC   H3S 5031   4.171  -0.222   6.891 -1.7299  0.4352 -0.7725
   63SAPC   C24 5032   4.176  -0.407   7.010  0.2685  0.6368  0.2145
   63SAPC   H4R 5033   4.270  -0.390   7.068 -0.1845  0.4258  1.0372
   63SAPC   H4S 5034   4.202  -0.465   6.919 -0.6230  2.2427 -1.0988
   63SAPC   C25 5035   4.094  -0.494   7.094 -0.5369  0.1622 -0.4390
   63SAPC   H5R 5036   3.995  -0.528   7.059 -0.1738 -0.6923 -0.6595
   63SAPC   C26 5037   4.117  -0.539   7.217 -0.7503  0.7733 -0.4345
   63SAPC   H6R 5038   4.041  -0.604   7.263 -1.7941  2.9172  1.0531
   63SAPC   C27 5039   4.230  -0.502   7.308 -0.0844 -0.0889 -0.0345
   63SAPC   H7R 5040   4.323  -0.521   7.250 -1.5037 -0.3683 -2.3713
   63SAPC   H7S 5041   4.241  -0.579   7.387 -0.8424  1.4919  1.6758
   63SAPC   C28 5042   4.230  -0.359   7.361  0.0742  0.1303 -0.9870
   63SAPC   H8R 5043   4.134  -0.304   7.353 -1.9247 -2.4965  2.2135
   63SAPC   C29 5044   4.337  -0.292   7.413  0.9070 -0.0299 -0.0928
   63SAPC   H9R 5045   4.319  -0.190   7.450 -0.8032 -1.3182  3.0840
   63SAPC  C210 5046   4.473  -0.343   7.447 -0.4181 -0.6908 -0.1700
   63SAPC  H10R 5047   4.518  -0.277   7.524 -0.2119  0.4458 -1.2373
   63SAPC  H10S 5048   4.534  -0.335   7.355  0.4623 -1.6008  0.3184
   63SAPC  C211 5049   4.496  -0.483   7.495  0.5609 -0.6182 -0.2683
   63SAPC  H11R 5050   4.483  -0.563   7.421  0.3143 -1.3730  0.5678
   63SAPC  C212 5051   4.529  -0.523   7.617  0.4698  0.2967  0.1601
   63SAPC  H12R 5052   4.533  -0.632   7.635 -1.2149  0.2117  0.1325
   63SAPC  C213 5053   4.542  -0.441   7.747 -0.2710 -0.0109 -0.4287
   63SAPC  H13R 5054   4.510  -0.503   7.834  1.0916 -2.4890 -1.5783
   63SAPC  H13S 5055   4.483  -0.348   7.741 -1.5664 -0.8486 -1.1560
   63SAPC  C214 5056   4.677  -0.393   7.766  0.6570  0.0004  0.2368
   63SAPC  H14R 5057   4.736  -0.406   7.674 -0.6632 -1.1594 -0.4700
   63SAPC  C215 5058   4.723  -0.330   7.877 -0.5333 -0.1398  0.0088
   63SAPC  H15R 5059   4.828  -0.298   7.875 -0.5154  0.1984  2.5984
   63SAPC  C216 5060   4.648  -0.310   8.008 -0.0510  1.0343 -0.5770
   63SAPC  H16R 5061   4.707  -0.343   8.096  0.7219 -1.5777 -1.9463
   63SAPC  H16S 5062   4.554  -0.369   8.002  0.8399 -0.3215 -1.8902
   63SAPC  C217 5063   4.607  -0.163   8.012 -0.2222 -0.1370  0.0788
   63SAPC  H17R 5064   4.542  -0.121   7.933  0.3453 -2.3911 -1.7075
   63SAPC  H17S 5065   4.709  -0.123   7.994  1.7807 -4.3460  0.7881
   63SAPC  C218 5066   4.552  -0.115   8.152  0.0712  0.0911  0.6787
   63SAPC  H18R 5067   4.488  -0.186   8.209 -1.6561 -1.2765 -2.6888
   63SAPC  H18S 5068   4.478  -0.036   8.128  0.2329  0.6386  1.9311
   63SAPC  C219 5069   4.649  -0.065   8.247  0.1246  0.0472 -0.1499
   63SAPC  H19R 5070   4.592  -0.037   8.337  0.2718 -3.4020  1.1836
   63SAPC  H19S 5071   4.686   0.030   8.203 -2.0479 -0.1998 -2.7835
   63SAPC  C220 5072   4.780  -0.147   8.277 -0.7688  0.1560 -0.2284
   63SAPC  H20R 5073   4.834  -0.183   8.187 -1.2263 -0.4328 -0.2760
   63SAPC  H20S 5074   4.739  -0.232   8.335  0.7116 -1.3144 -1.2755
   63SAPC  H20T 5075   4.851  -0.092   8.342  0.2642 -1.4953  0.0759
   63SAPC   C33 5076   4.532  -0.640   6.799  0.4304 -1.0495 -0.2572
   63SAPC   H3X 5077   4.620  -0.691   6.753  0.5005 -1.3622  0.2074
   63SAPC   H3Y 5078   4.465  -0.723   6.830 -0.5732  0.5425  2.0712
   63SAPC   C34 5079   4.579  -0.572   6.933  0.9673 -0.7223 -0.5581
   63SAPC   H4X 5080   4.493  -0.534   6.993  0.6161  1.1605 -2.1468
   63SAPC   H4Y 5081   4.639  -0.490   6.888  1.5370 -0.6551  0.2967
   63SAPC   C35 5082   4.659  -0.669   7.026 -0.4256 -0.2455 -0.1325
   63SAPC   H5X 5083   4.748  -0.713   6.977  0.2487 -0.1114  0.9333
   63SAPC   H5Y 5084   4.606  -0.760   7.062  0.8809 -0.7642  0.5702
   63SAPC   C36 5085   4.713  -0.602   7.155 -0.0142  0.3893 -0.1113
   63SAPC   H6X 5086   4.640  -0.529   7.197  0.3517 -0.0855  1.4074
   63SAPC   H6Y 5087   4.811  -0.559   7.123 -0.5025  0.8974 -0.9793
   63SAPC   C37 5088   4.747  -0.694   7.273 -0.6382 -0.2876 -0.1962
   63SAPC   H7X 5089   4.795  -0.787   7.234 -0.9828 -1.5348  2.1402
   63SAPC   H7Y 5090   4.648  -0.719   7.316 -0.2440  1.0675  1.6126
   63SAPC   C38 5091   4.843  -0.628   7.381  0.3843  0.3219  0.5911
   63SAPC   H8X 5092   4.794  -0.538   7.423 -2.6533 -0.7636 -0.3747
   63SAPC   H8Y 5093   4.944  -0.608   7.338  0.4940  0.1004  0.7474
   63SAPC   C39 5094   4.855  -0.726   7.502 -0.3494 -0.2283  0.3228
   63SAPC   H9X 5095   4.885  -0.820   7.451 -0.0318  1.0565 -1.9797
   63SAPC   H9Y 5096   4.758  -0.750   7.552 -0.4060  0.0295  0.3360
   63SAPC  C310 5097   4.963  -0.683   7.604  0.1514 -1.0506  0.5380
   63SAPC  H10X 5098   4.936  -0.579   7.630 -0.5172 -0.9863 -0.3542
   63SAPC  H10Y 5099   5.059  -0.679   7.547 -0.1018 -2.0814  0.0063
   63SAPC  C311 5100   4.971  -0.747   7.741 -0.4713  0.4154 -0.3316
   63SAPC  H11X 5101   5.030  -0.679   7.806 -1.1188  1.5095 -0.8557
   63SAPC  H11Y 5102   5.009  -0.851   7.740 -0.5266  0.3977 -0.5427
   63SAPC  C312 5103   4.826  -0.749   7.799  0.1417  0.2332 -0.2949
   63SAPC  H12X 5104   4.763  -0.815   7.737 -0.6676  0.0125  0.7258
   63SAPC  H12Y 5105   4.777  -0.651   7.780 -0.3795  0.1555  0.5911
   63SAPC  C313 5106   4.820  -0.797   7.947 -0.4948 -0.4852  0.4121
   63SAPC  H13X 5107   4.805  -0.907   7.950 -1.9569 -0.2884  1.2228
   63SAPC  H13Y 5108   4.721  -0.766   7.988 -0.0176 -0.9245  1.9773
   63SAPC  C314 5109   4.932  -0.739   8.037  0.1959 -0.6720 -0.1261
   63SAPC  H14X 5110   4.923  -0.629   8.022  1.4735  0.0338  3.2802
   63SAPC  H14Y 5111   5.030  -0.782   8.008  0.6210  0.1906 -0.0148
   63SAPC  C315 5112   4.899  -0.766   8.181  0.0743  0.4469 -0.8040
   63SAPC  H15X 5113   4.793  -0.743   8.204 -0.4691 -1.8213 -0.7429
   63SAPC  H15Y 5114   4.969  -0.705   8.242  1.1875 -1.8641  0.3533
   63SAPC  C316 5115   4.901  -0.916   8.218 -0.1352  0.2737 -0.1610
   63SAPC  H16X 5116   4.989  -0.964   8.171 -1.2872  0.4302 -2.6284
   63SAPC  H16Y 5117   4.823  -0.969   8.160  0.6075  0.8232 -1.7381
   63SAPC  C317 5118   4.901  -0.936   8.364  0.2276 -0.7479 -0.3311
   63SAPC  H17X 5119   4.977  -0.880   8.422 -1.5371  1.0344  0.3737
   63SAPC  H17Y 5120   4.919  -1.045   8.371 -0.2747 -1.0894 -3.0729
   63SAPC  C318 5121   4.761  -0.910   8.412 -0.9269  0.0792  0.7616
   63SAPC  H18X 5122   4.688  -0.968   8.350 -0.6564  0.7898 -0.2540
   63SAPC  H18Y 5123   4.747  -0.800   8.405  2.3566  0.5048 -3.2797
   63SAPC  H18Z 5124   4.748  -0.937   8.519 -2.9744 -0.4205  0.4420
   64SAPC     N 5125   6.506   0.873   6.160 -0.6193 -0.7026  0.3070
   64SAPC   C12 5126   6.511   0.998   6.074  0.1847  0.4064 -0.5557
   64SAPC  H12A 5127   6.442   0.985   5.992 -0.6651 -0.4241  0.2692
   64SAPC  H12B 5128   6.608   0.992   6.027  0.7055 -2.9871  0.6922
   64SAPC   C13 5129   6.368   0.857   6.215  0.1441 -0.3486  0.3805
   64SAPC  H13A 5130   6.354   0.764   6.269 -1.3493 -0.7907 -0.6996
   64SAPC  H13B 5131   6.344   0.946   6.271  0.6429  0.8415 -1.1959
   64SAPC  H13C 5132   6.299   0.858   6.132 -0.1468  0.1034  0.6240
   64SAPC   C14 5133   6.538   0.761   6.077 -0.7325  0.0088  0.1065
   64SAPC  H14A 5134   6.490   0.754   5.981  0.1860 -2.3794 -0.2344
   64SAPC  H14B 5135   6.644   0.751   6.058 -1.1425 -1.7582 -1.5600
   64SAPC  H14C 5136   6.509   0.677   6.138 -0.6730 -0.0472  0.0585
   64SAPC   C15 5137   6.613   0.873   6.263  0.1491  0.6115 -0.0104
   64SAPC  H15A 5138   6.595   0.950   6.336  2.2369 -0.5203  1.8375
   64SAPC  H15B 5139   6.635   0.776   6.304  0.8469  0.5096 -0.5931
   64SAPC  H15C 5140   6.707   0.904   6.219 -0.2338 -0.6995 -1.8536
   64SAPC   C11 5141   6.499   1.130   6.158  0.1037 -0.2740  0.6294
   64SAPC  H11A 5142   6.424   1.103   6.235 -1.0706 -3.2467 -1.3628
   64SAPC  H11B 5143   6.447   1.215   6.109 -1.6972 -1.3318  0.6282
   64SAPC     P 5144   6.643   1.310   6.285 -0.2285 -0.3419  0.5450
   64SAPC   O13 5145   6.774   1.357   6.254 -0.9903 -0.6109  0.1351
   64SAPC   O14 5146   6.532   1.393   6.253  0.1709  0.3628 -0.2786
   64SAPC   O12 5147   6.627   1.171   6.209  0.5230  0.4479 -0.5612
   64SAPC   O11 5148   6.640   1.263   6.432 -0.1759 -0.6470  0.1669
   64SAPC    C1 5149   6.738   1.177   6.488  0.2321 -0.2830 -0.1623
   64SAPC    HA 5150   6.690   1.090   6.537 -1.1204  1.5760  2.0368
   64SAPC    HB 5151   6.814   1.138   6.417  0.7999  0.9122 -0.2419
   64SAPC    C2 5152   6.807   1.248   6.610  0.2730 -0.0768 -0.4177
   64SAPC    HS 5153   6.872   1.169   6.653  0.7064 -0.9641 -2.5263
   64SAPC   O21 5154   6.706   1.293   6.702  0.3585 -0.3618 -0.4549
   64SAPC   C21 5155   6.636   1.198   6.763  0.1534  0.3520 -0.4581
   64SAPC   O22 5156   6.646   1.078   6.739 -0.2112 -0.1330  0.2167
   64SAPC   C22 5157   6.542   1.262   6.857 -0.5483 -0.2113  0.1925
   64SAPC   H2R 5158   6.587   1.354   6.900 -0.4235  0.2297 -0.8438
   64SAPC   H2S 5159   6.453   1.299   6.802  1.3235  2.2946 -1.3640
   64SAPC    C3 5160   6.896   1.374   6.565 -0.4892 -0.2621  0.3238
   64SAPC    HX 5161   6.826   1.452   6.529 -1.4145 -0.5125  1.5324
   64SAPC    HY 5162   6.970   1.342   6.488  0.6639  0.6379  1.0172
   64SAPC   O31 5163   6.970   1.435   6.671  0.4467 -0.4367 -0.7522
   64SAPC   C31 5164   7.069   1.371   6.723 -0.0236 -0.6768 -0.9337
   64SAPC   O32 5165   7.118   1.265   6.687 -0.4294 -0.7272 -0.0375
   64SAPC   C32 5166   7.123   1.456   6.837 -0.2394  0.2756 -0.2125
   64SAPC   H2X 5167   7.045   1.470   6.914 -0.5880  0.4213 -0.5866
   64SAPC   H2Y 5168   7.163   1.548   6.788 -1.3981  0.3826 -0.9907
   64SAPC   C23 5169   6.492   1.181   6.975 -0.1549  0.9326  0.0343
   64SAPC   H3R 5170   6.577   1.157   7.042 -1.6671 -1.5765  1.2051
   64SAPC   H3S 5171   6.450   1.086   6.935  0.6546  0.6733 -0.2329
   64SAPC   C24 5172   6.387   1.254   7.063  0.1048 -0.7675 -0.6139
   64SAPC   H4R 5173   6.381   1.186   7.151  1.8847  0.6923  0.7256
   64SAPC   H4S 5174   6.290   1.247   7.010 -0.0524 -1.1062 -0.2858
   64SAPC   C25 5175   6.411   1.396   7.106  0.2764 -0.1176  0.0791
   64SAPC   H5R 5176   6.432   1.465   7.023  3.1657 -0.7960  0.1324
   64SAPC   C26 5177   6.410   1.448   7.229  0.1011 -0.1102  0.5951
   64SAPC   H6R 5178   6.416   1.557   7.244  1.5994  0.0818 -1.0831
   64SAPC   C27 5179   6.384   1.370   7.352  0.7710  0.2941  0.2017
   64SAPC   H7R 5180   6.460   1.390   7.430  0.2114 -0.6849  1.0346
   64SAPC   H7S 5181   6.398   1.260   7.347 -0.2660  0.1181  0.9240
   64SAPC   C28 5182   6.252   1.395   7.414 -0.7565  0.4581  0.0237
   64SAPC   H8R 5183   6.184   1.458   7.355 -0.1240  0.2466 -0.9530
   64SAPC   C29 5184   6.217   1.353   7.537 -0.1009  0.4731  0.0729
   64SAPC   H9R 5185   6.114   1.372   7.571 -0.9031 -1.2973 -1.2124
   64SAPC  C210 5186   6.304   1.279   7.637 -0.0957  0.1329 -0.2622
   64SAPC  H10R 5187   6.310   1.339   7.731  3.0497  2.2181 -1.6072
   64SAPC  H10S 5188   6.401   1.258   7.586 -0.0189 -1.0118  0.3333
   64SAPC  C211 5189   6.257   1.136   7.655  0.1842  0.2694  0.1485
   64SAPC  H11R 5190   6.283   1.071   7.571 -1.6744 -1.0336  0.5204
   64SAPC  C212 5191   6.194   1.086   7.761 -0.9195  0.0295  0.4861
   64SAPC  H12R 5192   6.151   0.985   7.758 -0.1018 -0.3960  2.1703
   64SAPC  C213 5193   6.157   1.168   7.887 -0.4605  0.3373  0.5504
   64SAPC  H13R 5194   6.054   1.209   7.882 -1.2427 -1.4810  0.9753
   64SAPC  H13S 5195   6.236   1.245   7.901  2.4705 -2.3783  0.0516
   64SAPC  C214 5196   6.168   1.084   8.011 -0.3166  0.0379  0.0441
   64SAPC  H14R 5197   6.253   1.014   8.015 -0.3935 -0.0499  0.1400
   64SAPC  C215 5198   6.090   1.081   8.123  0.2587 -0.7917  0.7660
   64SAPC  H15R 5199   6.109   1.017   8.210 -2.1867 -0.0091  2.0029
   64SAPC  C216 5200   5.962   1.171   8.134  0.3835 -0.0928  0.0420
   64SAPC  H16R 5201   5.921   1.189   8.032  1.7201  1.3251 -0.2871
   64SAPC  H16S 5202   5.995   1.268   8.178 -0.6103 -0.2403  1.1545
   64SAPC  C217 5203   5.847   1.115   8.224  0.4560  1.1726  0.4953
   64SAPC  H17R 5204   5.767   1.190   8.239  0.6032  1.8415 -1.7071
   64SAPC  H17S 5205   5.884   1.080   8.323 -1.1170 -2.3780  0.0016
   64SAPC  C218 5206   5.778   0.998   8.145 -0.1938 -0.1670  0.1727
   64SAPC  H18R 5207   5.827   0.899   8.156 -1.2512 -0.5749  1.4627
   64SAPC  H18S 5208   5.796   1.029   8.040  2.5393  0.8099  0.8477
   64SAPC  C219 5209   5.621   0.997   8.156  0.8641  0.1333 -0.0584
   64SAPC  H19R 5210   5.576   0.938   8.073 -0.2253  2.3467 -1.1060
   64SAPC  H19S 5211   5.582   1.099   8.138  0.8485 -0.1527 -1.8158
   64SAPC  C220 5212   5.572   0.944   8.288 -0.3060 -0.1586  0.2987
   64SAPC  H20R 5213   5.568   0.834   8.274 -0.7731 -0.0778 -0.2639
   64SAPC  H20S 5214   5.468   0.979   8.307  0.1743  0.7366  1.3726
   64SAPC  H20T 5215   5.630   0.973   8.378 -0.7810  1.9828 -0.0165
   64SAPC   C33 5216   7.231   1.374   6.909 -0.3224 -0.4891 -0.1252
   64SAPC   H3X 5217   7.312   1.348   6.838 -2.5972  3.2198 -4.5724
   64SAPC   H3Y 5218   7.195   1.277   6.950  1.4159 -1.5525 -1.0432
   64SAPC   C34 5219   7.299   1.446   7.030  0.9330 -0.8126  0.6157
   64SAPC   H4X 5220   7.295   1.553   7.000  0.9295  0.2780  4.0635
   64SAPC   H4Y 5221   7.402   1.407   7.048  0.8720 -1.3176 -0.1097
   64SAPC   C35 5222   7.222   1.446   7.162 -0.3304  0.5982 -0.0682
   64SAPC   H5X 5223   7.208   1.344   7.204 -3.4660  2.0413  2.8290
   64SAPC   H5Y 5224   7.118   1.484   7.154 -0.0758  1.2664 -0.2480
   64SAPC   C36 5225   7.289   1.528   7.266  0.2398  0.3193 -0.6054
   64SAPC   H6X 5226   7.308   1.637   7.254  0.6037  0.3584  0.2134
   64SAPC   H6Y 5227   7.391   1.486   7.277  0.0995  0.0871 -0.1558
   64SAPC   C37 5228   7.207   1.521   7.400 -0.6683  0.8015  0.9082
   64SAPC   H7X 5229   7.190   1.414   7.422 -1.2140 -0.0102 -2.8779
   64SAPC   H7Y 5230   7.114   1.577   7.378 -0.4356  2.2608  3.2533
   64SAPC   C38 5231   7.277   1.602   7.504 -0.1253 -0.1885 -0.2622
   64SAPC   H8X 5232   7.282   1.707   7.468  0.6787  0.0578  0.5219
   64SAPC   H8Y 5233   7.381   1.569   7.525  0.4600  1.1880 -0.9155
   64SAPC   C39 5234   7.211   1.606   7.643  0.2820  0.0263 -0.0883
   64SAPC   H9X 5235   7.102   1.604   7.625  0.1597 -2.5997  0.5067
   64SAPC   H9Y 5236   7.243   1.698   7.695  2.2212 -0.4961 -0.2643
   64SAPC  C310 5237   7.243   1.471   7.723 -0.4006  0.4213  0.2151
   64SAPC  H10X 5238   7.352   1.454   7.718 -0.4905  0.0901 -2.7030
   64SAPC  H10Y 5239   7.200   1.381   7.675  0.5197 -0.5443  1.1640
   64SAPC  C311 5240   7.208   1.484   7.865  0.7534 -0.4204 -0.2197
   64SAPC  H11X 5241   7.278   1.562   7.903  0.0058 -0.5068  1.4264
   64SAPC  H11Y 5242   7.236   1.396   7.927 -1.6128  1.6038  4.1952
   64SAPC  C312 5243   7.059   1.502   7.886  1.2224 -0.1401  0.5335
   64SAPC  H12X 5244   6.997   1.446   7.814  1.4411  0.7140 -0.3440
   64SAPC  H12Y 5245   7.036   1.608   7.863  0.0917 -0.8552 -1.9027
   64SAPC  C313 5246   7.021   1.474   8.028 -0.2212 -0.8159  0.4463
   64SAPC  H13X 5247   7.023   1.567   8.089 -0.8292 -1.5733  1.6735
   64SAPC  H13Y 5248   7.091   1.404   8.079  1.3551  1.1733  1.1132
   64SAPC  C314 5249   6.884   1.418   8.017  0.6945  0.1595  0.6447
   64SAPC  H14X 5250   6.868   1.337   7.943 -2.1216  0.4659  0.8273
   64SAPC  H14Y 5251   6.812   1.501   8.000  0.8492  0.6211  2.0431
   64SAPC  C315 5252   6.835   1.354   8.144 -0.7799 -0.3837 -0.1014
   64SAPC  H15X 5253   6.820   1.426   8.228 -1.8208 -0.5129 -0.1626
   64SAPC  H15Y 5254   6.911   1.280   8.177  0.2798  1.4998  1.9145
   64SAPC  C316 5255   6.697   1.280   8.129 -0.2801 -0.0374 -0.1425
   64SAPC  H16X 5256   6.700   1.212   8.041 -0.4312 -1.3572  0.8458
   64SAPC  H16Y 5257   6.616   1.353   8.106 -1.2021 -1.4641 -1.6625
   64SAPC  C317 5258   6.660   1.184   8.245  0.4342 -0.6129  0.3302
   64SAPC  H17X 5259   6.676   1.233   8.343  2.7673  0.0699 -0.3329
   64SAPC  H17Y 5260   6.728   1.096   8.251 -0.0387 -1.1637 -1.5641
   64SAPC  C318 5261   6.517   1.126   8.225 -0.4952  0.0027 -0.0245
   64SAPC  H18X 5262   6.513   1.067   8.131  0.4631 -0.6705  0.3389
   64SAPC  H18Y 5263   6.446   1.211   8.221 -0.1995  0.2246 -0.7730
   64SAPC  H18Z 5264   6.488   1.061   8.310 -0.3899  1.7184  1.3897
   65SAPC     N 5265   5.786   0.463   5.837 -1.0424 -0.9674  0.6242
   65SAPC   C12 5266   5.833   0.472   5.989 -0.6009  0.8701  0.1285
   65SAPC  H12A 5267   5.939   0.491   5.992 -0.6028  0.7802  1.0922
   65SAPC  H12B 5268   5.810   0.377   6.035  2.3198 -0.2672 -0.5249
   65SAPC   C13 5269   5.867   0.368   5.761  0.7463 -0.7416  0.1660
   65SAPC  H13A 5270   5.866   0.390   5.656  0.6669  0.9276  0.4887
   65SAPC  H13B 5271   5.973   0.376   5.777  1.1602  1.6536 -2.9553
   65SAPC  H13C 5272   5.832   0.266   5.776  3.0561 -1.3078  2.4895
   65SAPC   C14 5273   5.644   0.417   5.809 -0.8510  0.2926  0.7252
   65SAPC  H14A 5274   5.623   0.312   5.821  2.3660 -0.2843  2.5947
   65SAPC  H14B 5275   5.577   0.472   5.874  0.2218  0.9780  1.2961
   65SAPC  H14C 5276   5.615   0.441   5.708 -0.2751  0.1897  0.5316
   65SAPC   C15 5277   5.801   0.604   5.779  0.2028 -0.2751  0.2648
   65SAPC  H15A 5278   5.735   0.615   5.695 -0.0477 -2.9868  0.0144
   65SAPC  H15B 5279   5.783   0.683   5.850 -2.0553  0.1773 -0.7370
   65SAPC  H15C 5280   5.896   0.619   5.729  0.1579 -3.1301 -0.8640
   65SAPC   C11 5281   5.784   0.584   6.078  0.1183 -0.2557 -0.0323
   65SAPC  H11A 5282   5.804   0.562   6.185  0.4972  1.9297  0.3828
   65SAPC  H11B 5283   5.673   0.584   6.068  0.1376  0.7343 -0.3154
   65SAPC     P 5284   5.973   0.756   6.067 -0.1777  0.2374 -0.3727
   65SAPC   O13 5285   6.054   0.644   6.012 -0.3812  0.2322  0.1504
   65SAPC   O14 5286   6.002   0.888   6.013  0.1339 -0.1726  0.3224
   65SAPC   O12 5287   5.822   0.721   6.042  0.2897  0.4420 -0.3452
   65SAPC   O11 5288   5.976   0.756   6.226  0.0459 -0.4341 -0.1695
   65SAPC    C1 5289   5.862   0.809   6.301 -0.0014  0.1396  1.1588
   65SAPC    HA 5290   5.861   0.920   6.295 -2.5113  0.0854 -2.0068
   65SAPC    HB 5291   5.767   0.777   6.253  1.1388 -1.1993 -0.3424
   65SAPC    C2 5292   5.861   0.782   6.450 -0.0509  0.0142 -0.6624
   65SAPC    HS 5293   5.785   0.844   6.502  1.9818  2.6026 -0.5747
   65SAPC   O21 5294   5.987   0.797   6.511 -0.1744  0.6795 -0.1132
   65SAPC   C21 5295   6.018   0.915   6.548 -0.0387 -0.0067  0.2370
   65SAPC   O22 5296   5.954   1.014   6.536 -0.3405  0.0656  0.3276
   65SAPC   C22 5297   6.146   0.910   6.622 -0.1726 -0.1980  0.1982
   65SAPC   H2R 5298   6.203   0.823   6.582 -0.1129  1.2485 -3.1768
   65SAPC   H2S 5299   6.215   0.994   6.600  1.9341 -1.4910  1.4986
   65SAPC    C3 5300   5.822   0.630   6.471 -0.2223  0.0607 -0.1596
   65SAPC    HX 5301   5.880   0.563   6.403 -1.1359 -0.5904 -0.3190
   65SAPC    HY 5302   5.717   0.622   6.435 -0.5345  3.3119 -0.2855
   65SAPC   O31 5303   5.844   0.593   6.614  0.2457 -0.1098  0.4530
   65SAPC   C31 5304   5.876   0.463   6.636  0.2551 -0.0268  0.5418
   65SAPC   O32 5305   5.877   0.374   6.557 -0.0435 -0.6260  0.4614
   65SAPC   C32 5306   5.900   0.444   6.789 -0.2234  0.3256 -0.8895
   65SAPC   H2X 5307   5.932   0.539   6.835  0.2959  0.8812 -2.3500
   65SAPC   H2Y 5308   5.975   0.362   6.784 -0.8762 -0.3626  0.1252
   65SAPC   C23 5309   6.122   0.905   6.775 -0.3544 -0.0432 -0.1457
   65SAPC   H3R 5310   6.077   0.810   6.810  0.6164  0.4099  2.5324
   65SAPC   H3S 5311   6.048   0.985   6.798  1.3273  1.5053  0.1210
   65SAPC   C24 5312   6.244   0.941   6.856 -0.2994 -0.4971  0.0222
   65SAPC   H4R 5313   6.212   0.952   6.961 -1.7137 -0.3648 -0.3960
   65SAPC   H4S 5314   6.279   1.040   6.818 -0.0936 -0.9485 -1.0200
   65SAPC   C25 5315   6.350   0.838   6.833 -0.0480  0.2995  0.1969
   65SAPC   H5R 5316   6.378   0.804   6.732 -1.1013 -0.6306  0.1905
   65SAPC   C26 5317   6.422   0.775   6.926  0.2069 -0.0660 -0.8068
   65SAPC   H6R 5318   6.486   0.695   6.886  1.3328  0.0750  0.6351
   65SAPC   C27 5319   6.404   0.785   7.080  0.6976  0.1447  0.1582
   65SAPC   H7R 5320   6.343   0.701   7.120 -1.2712  2.6746  2.9208
   65SAPC   H7S 5321   6.348   0.879   7.098  1.8583  1.7500 -3.6552
   65SAPC   C28 5322   6.539   0.775   7.150  0.3590 -0.0177 -0.4020
   65SAPC   H8R 5323   6.619   0.726   7.093  0.9627 -0.8160  1.0891
   65SAPC   C29 5324   6.570   0.825   7.269  0.0696 -0.4205 -0.0384
   65SAPC   H9R 5325   6.678   0.808   7.281  0.0394 -0.0372  0.9322
   65SAPC  C210 5326   6.481   0.905   7.360  0.2256 -0.1227  0.1893
   65SAPC  H10R 5327   6.428   0.843   7.435  2.3934 -1.5582  0.6287
   65SAPC  H10S 5328   6.402   0.946   7.294  1.1785  1.1619 -0.2105
   65SAPC  C211 5329   6.560   1.014   7.419  0.7507  0.1292 -0.6179
   65SAPC  H11R 5330   6.580   1.098   7.351 -2.0984 -0.2202 -2.0802
   65SAPC  C212 5331   6.591   1.028   7.550 -0.5057  0.3519 -0.7853
   65SAPC  H12R 5332   6.660   1.107   7.585 -1.2304  0.2637  0.9242
   65SAPC  C213 5333   6.546   0.935   7.659  0.5040 -0.0648 -1.3093
   65SAPC  H13R 5334   6.586   0.833   7.639 -0.4783 -0.5834 -0.6915
   65SAPC  H13S 5335   6.437   0.915   7.651  0.6793 -0.4176 -3.5082
   65SAPC  C214 5336   6.575   0.978   7.800  0.1324 -0.3585 -0.5872
   65SAPC  H14R 5337   6.542   1.081   7.818 -2.9580 -0.7936 -3.0865
   65SAPC  C215 5338   6.637   0.902   7.898 -0.9547  0.4263 -0.0983
   65SAPC  H15R 5339   6.655   0.937   8.001  0.7254 -2.5768  0.7486
   65SAPC  C216 5340   6.694   0.768   7.883 -0.6492  0.4852  1.1537
   65SAPC  H16R 5341   6.805   0.770   7.876 -0.6611 -0.2386  0.6295
   65SAPC  H16S 5342   6.668   0.713   7.790  0.4710  2.3967 -0.3780
   65SAPC  C217 5343   6.667   0.668   7.999 -0.2883  0.1849 -0.9449
   65SAPC  H17R 5344   6.689   0.571   7.949  1.7221  0.8977 -1.5324
   65SAPC  H17S 5345   6.564   0.671   8.041 -0.1495  3.6545 -0.5556
   65SAPC  C218 5346   6.757   0.693   8.124 -0.1520  0.2201  0.2089
   65SAPC  H18R 5347   6.714   0.787   8.164  1.7192  2.0062 -1.7307
   65SAPC  H18S 5348   6.862   0.712   8.093 -0.6599  0.9029 -1.1979
   65SAPC  C219 5349   6.766   0.578   8.225  0.6266  0.1146 -0.4235
   65SAPC  H19R 5350   6.828   0.607   8.313  1.5008 -1.2881 -0.5501
   65SAPC  H19S 5351   6.801   0.487   8.173  2.4196  0.0067  0.8443
   65SAPC  C220 5352   6.631   0.540   8.288 -0.3708  0.0871 -0.4488
   65SAPC  H20R 5353   6.563   0.509   8.206 -1.1887  1.1316 -0.1918
   65SAPC  H20S 5354   6.591   0.625   8.347  0.8113  1.0542 -0.9932
   65SAPC  H20T 5355   6.644   0.450   8.352  0.7052 -0.7732 -1.8096
   65SAPC   C33 5356   5.782   0.383   6.870  0.1023  0.2050  0.0394
   65SAPC   H3X 5357   5.720   0.317   6.806  1.2055 -1.7660  0.9208
   65SAPC   H3Y 5358   5.723   0.472   6.901 -0.2548 -0.3058  0.8689
   65SAPC   C34 5359   5.825   0.326   7.006 -0.1555  0.0457 -0.4684
   65SAPC   H4X 5360   5.883   0.232   6.995  0.9935  0.5686  0.7982
   65SAPC   H4Y 5361   5.732   0.304   7.062  0.1973 -1.4553 -0.4271
   65SAPC   C35 5362   5.919   0.414   7.091  0.6071  0.8278 -0.4216
   65SAPC   H5X 5363   5.883   0.519   7.102  1.6309  1.0752  0.6897
   65SAPC   H5Y 5364   6.015   0.428   7.036  0.2967  0.5431 -1.0405
   65SAPC   C36 5365   5.936   0.351   7.230 -0.0269  0.5035 -0.6090
   65SAPC   H6X 5366   5.951   0.241   7.224  0.2970  0.5690 -1.0560
   65SAPC   H6Y 5367   5.841   0.361   7.287  0.7817 -0.1686  0.8936
   65SAPC   C37 5368   6.059   0.425   7.289  0.2774 -0.5046  0.1512
   65SAPC   H7X 5369   6.128   0.438   7.203  0.1404  3.1482  0.4512
   65SAPC   H7Y 5370   6.115   0.370   7.368  1.6721  1.0413  0.3144
   65SAPC   C38 5371   6.015   0.557   7.359  0.6585 -0.0019 -0.8782
   65SAPC   H8X 5372   5.923   0.532   7.416  0.6958 -1.7310 -1.4872
   65SAPC   H8Y 5373   5.987   0.635   7.285  0.7190  0.2899 -0.5904
   65SAPC   C39 5374   6.123   0.614   7.451  0.0521  0.1725 -0.1033
   65SAPC   H9X 5375   6.093   0.710   7.499  2.0365  2.0676 -2.4373
   65SAPC   H9Y 5376   6.216   0.640   7.397  1.0054 -0.4547  1.1792
   65SAPC  C310 5377   6.148   0.532   7.584 -0.5972  0.3722  0.6881
   65SAPC  H10X 5378   6.215   0.446   7.563 -0.4972  0.4054  0.8677
   65SAPC  H10Y 5379   6.051   0.490   7.617 -1.1093 -1.2960 -2.5131
   65SAPC  C311 5380   6.206   0.624   7.698  0.1374  0.9320  0.1276
   65SAPC  H11X 5381   6.130   0.703   7.717 -3.0789 -2.1026  0.9869
   65SAPC  H11Y 5382   6.299   0.668   7.658  4.3276 -4.5575  2.5250
   65SAPC  C312 5383   6.215   0.564   7.842  0.1533  0.4450  0.0670
   65SAPC  H12X 5384   6.274   0.471   7.844  0.3955  0.5753 -0.6420
   65SAPC  H12Y 5385   6.112   0.529   7.866  0.0538 -2.2199 -3.3937
   65SAPC  C313 5386   6.281   0.657   7.942  0.4381  0.2719 -1.0793
   65SAPC  H13X 5387   6.243   0.758   7.914 -0.5597 -0.3663 -2.1117
   65SAPC  H13Y 5388   6.391   0.655   7.929  0.8510  0.6928  1.6278
   65SAPC  C314 5389   6.262   0.628   8.091  0.2407 -0.0843  0.6718
   65SAPC  H14X 5390   6.320   0.537   8.116 -0.3347 -0.4982  0.5300
   65SAPC  H14Y 5391   6.152   0.611   8.098  0.0005  1.4562  1.0564
   65SAPC  C315 5392   6.283   0.738   8.193  0.9295 -0.3455  0.2641
   65SAPC  H15X 5393   6.237   0.829   8.149  0.0613 -0.2634  1.2999
   65SAPC  H15Y 5394   6.390   0.766   8.200  1.4874 -2.4645  0.7955
   65SAPC  C316 5395   6.214   0.722   8.332 -0.1882 -0.2398  0.6801
   65SAPC  H16X 5396   6.229   0.815   8.392 -0.9705  0.0096  0.5063
   65SAPC  H16Y 5397   6.257   0.637   8.388 -0.2764  0.6331  2.1343
   65SAPC  C317 5398   6.063   0.708   8.311  0.2844  0.8222  0.2567
   65SAPC  H17X 5399   6.045   0.603   8.279 -0.0219  0.8922  0.2039
   65SAPC  H17Y 5400   6.025   0.769   8.226 -0.4289  0.0458 -0.0015
   65SAPC  C318 5401   5.989   0.746   8.443 -0.2385  0.0379 -0.2544
   65SAPC  H18X 5402   5.994   0.852   8.473 -0.7806  0.3206 -1.1091
   65SAPC  H18Y 5403   6.025   0.674   8.520  0.7742 -0.7031 -1.3742
   65SAPC  H18Z 5404   5.883   0.723   8.420  0.0310 -0.8681 -0.6637
   66SAPC     N 5405   3.759   0.705   6.241 -0.9078 -0.4099 -0.0975
   66SAPC   C12 5406   3.845   0.672   6.124  0.1884  0.6232 -0.0049
   66SAPC  H12A 5407   3.869   0.764   6.073 -2.6509  0.6795 -1.4279
   66SAPC  H12B 5408   3.782   0.616   6.056  0.1866 -1.0887  1.3337
   66SAPC   C13 5409   3.839   0.794   6.328 -0.6800  0.5597  0.1790
   66SAPC  H13A 5410   3.923   0.733   6.358 -2.1889 -1.5071  0.4179
   66SAPC  H13B 5411   3.869   0.876   6.264  0.7247  0.2134  0.3517
   66SAPC  H13C 5412   3.782   0.850   6.400 -0.9197 -1.4072  1.6001
   66SAPC   C14 5413   3.635   0.785   6.203 -0.4332 -0.5791  0.1136
   66SAPC  H14A 5414   3.571   0.722   6.143  2.4222 -1.1141 -2.6674
   66SAPC  H14B 5415   3.597   0.828   6.294  0.1840 -0.1640  0.1853
   66SAPC  H14C 5416   3.672   0.871   6.147  0.4108 -0.0726  1.4115
   66SAPC   C15 5417   3.715   0.589   6.323 -0.1651  0.2171  0.1873
   66SAPC  H15A 5418   3.795   0.521   6.348  0.8031 -0.4181 -4.0437
   66SAPC  H15B 5419   3.666   0.616   6.416 -1.4941 -0.1566 -0.3792
   66SAPC  H15C 5420   3.644   0.533   6.264  0.7001  1.0855 -1.7219
   66SAPC   C11 5421   3.980   0.596   6.138 -0.0349  0.2446  0.0185
   66SAPC  H11A 5422   4.030   0.570   6.042 -2.1661 -1.2070 -0.7749
   66SAPC  H11B 5423   3.960   0.495   6.178 -1.6341 -0.0203 -1.3369
   66SAPC     P 5424   4.185   0.750   6.160 -0.0495 -0.0066 -0.0185
   66SAPC   O13 5425   4.288   0.671   6.087 -0.6051 -0.5720  0.4341
   66SAPC   O14 5426   4.125   0.869   6.093 -0.6367  0.3398 -0.4161
   66SAPC   O12 5427   4.067   0.665   6.224 -0.0073 -0.6367 -0.2771
   66SAPC   O11 5428   4.241   0.809   6.296 -0.3987  0.1023 -0.2839
   66SAPC    C1 5429   4.293   0.733   6.401  1.3835  0.7833 -0.1147
   66SAPC    HA 5430   4.257   0.628   6.390  1.4391  0.8334 -0.7917
   66SAPC    HB 5431   4.403   0.730   6.392  1.2318 -1.7786 -2.3491
   66SAPC    C2 5432   4.246   0.798   6.543  0.1347  0.0205  0.2147
   66SAPC    HS 5433   4.303   0.890   6.567 -1.4058  1.2706 -0.7279
   66SAPC   O21 5434   4.273   0.697   6.650 -0.7793  0.3184 -0.0705
   66SAPC   C21 5435   4.398   0.695   6.692 -0.4713  0.2957 -0.2047
   66SAPC   O22 5436   4.489   0.756   6.644  0.2346 -0.5303 -0.3147
   66SAPC   C22 5437   4.409   0.604   6.810 -0.0332 -0.0917 -0.4347
   66SAPC   H2R 5438   4.307   0.587   6.853 -0.7427 -0.6904 -2.2762
   66SAPC   H2S 5439   4.445   0.504   6.777 -0.8599 -0.7056  0.4419
   66SAPC    C3 5440   4.107   0.860   6.545  0.2619  0.6524  0.1235
   66SAPC    HX 5441   4.034   0.791   6.499  0.7811  1.2128 -1.6372
   66SAPC    HY 5442   4.108   0.935   6.463  0.7748 -0.6650 -1.1027
   66SAPC   O31 5443   4.072   0.909   6.677  0.1622 -0.3209 -0.3195
   66SAPC   C31 5444   4.035   0.823   6.770  0.8641 -0.2314 -0.4491
   66SAPC   O32 5445   3.984   0.712   6.748  0.1938 -0.1176 -0.3013
   66SAPC   C32 5446   4.058   0.887   6.908  0.3220 -0.3437 -0.5397
   66SAPC   H2X 5447   4.137   0.964   6.897  0.3199 -0.5136 -1.9320
   66SAPC   H2Y 5448   4.086   0.798   6.969  1.4477  0.3087 -0.0661
   66SAPC   C23 5449   4.517   0.653   6.909 -0.0075  0.9343  0.1477
   66SAPC   H3R 5450   4.471   0.739   6.961  0.4322  2.3517 -1.7319
   66SAPC   H3S 5451   4.609   0.694   6.863  0.5263  0.3609  0.6828
   66SAPC   C24 5452   4.561   0.538   7.005 -0.1112 -0.2753  0.5715
   66SAPC   H4R 5453   4.634   0.583   7.075  1.5023 -1.5763 -0.2088
   66SAPC   H4S 5454   4.618   0.464   6.945 -1.1913 -1.6644  1.1871
   66SAPC   C25 5455   4.442   0.477   7.067 -0.4380  0.4165 -0.4170
   66SAPC   H5R 5456   4.410   0.386   7.016  0.2160 -0.1327  0.1261
   66SAPC   C26 5457   4.380   0.513   7.181  0.5825  0.2405 -0.7715
   66SAPC   H6R 5458   4.296   0.455   7.221  0.3499  1.5381  0.7437
   66SAPC   C27 5459   4.428   0.632   7.263  0.2750  0.1727 -0.2553
   66SAPC   H7R 5460   4.499   0.694   7.204  2.6870 -0.9017  1.3321
   66SAPC   H7S 5461   4.494   0.601   7.347 -0.6284  0.6748  0.6633
   66SAPC   C28 5462   4.302   0.713   7.301  0.2922  0.6507 -0.2114
   66SAPC   H8R 5463   4.247   0.748   7.213  0.5042 -0.9336 -1.0134
   66SAPC   C29 5464   4.269   0.762   7.425 -0.2592  0.0984  0.9437
   66SAPC   H9R 5465   4.166   0.798   7.429 -0.8500 -0.8112 -2.5684
   66SAPC  C210 5466   4.346   0.740   7.556  0.0438  0.2396 -0.7475
   66SAPC  H10R 5467   4.391   0.838   7.585  0.2659 -0.3285  0.9481
   66SAPC  H10S 5468   4.435   0.674   7.547 -0.5852 -0.6102 -0.8702
   66SAPC  C211 5469   4.247   0.678   7.646  0.3408 -0.1444 -0.0374
   66SAPC  H11R 5470   4.194   0.598   7.592  1.1605 -1.5724  1.1925
   66SAPC  C212 5471   4.219   0.703   7.773 -0.2767  0.2458  0.3739
   66SAPC  H12R 5472   4.139   0.647   7.824 -1.3038 -0.8352 -2.2302
   66SAPC  C213 5473   4.285   0.814   7.855 -0.2048  0.2516 -0.0902
   66SAPC  H13R 5474   4.366   0.859   7.794  1.9975 -2.1738  0.8751
   66SAPC  H13S 5475   4.333   0.770   7.945 -2.1365  0.6744  1.2084
   66SAPC  C214 5476   4.191   0.925   7.886  0.1644  0.4819 -0.6153
   66SAPC  H14R 5477   4.158   0.977   7.795  0.1959  1.7888  0.1004
   66SAPC  C215 5478   4.142   0.957   8.011  0.6358  0.3964 -0.1068
   66SAPC  H15R 5479   4.078   1.046   8.025  0.8886  0.6937 -0.8092
   66SAPC  C216 5480   4.174   0.892   8.143 -0.0681  0.3815  0.8650
   66SAPC  H16R 5481   4.196   0.785   8.129  0.6405  0.4878  1.1374
   66SAPC  H16S 5482   4.091   0.893   8.217 -0.1846 -5.0338  1.1725
   66SAPC  C217 5483   4.295   0.953   8.213 -0.0900 -0.1776 -0.1240
   66SAPC  H17R 5484   4.282   1.063   8.208  1.1813 -0.0530 -1.2692
   66SAPC  H17S 5485   4.392   0.935   8.163  0.1164 -0.5018  0.3816
   66SAPC  C218 5486   4.293   0.923   8.361 -0.3163 -0.8677 -0.0271
   66SAPC  H18R 5487   4.295   0.815   8.383 -0.1365 -1.0485 -0.8733
   66SAPC  H18S 5488   4.204   0.963   8.415 -0.1549  0.7872 -0.9224
   66SAPC  C219 5489   4.422   0.990   8.419  0.0241  0.2976  0.5438
   66SAPC  H19R 5490   4.440   1.086   8.365 -2.9171 -0.1950 -1.5694
   66SAPC  H19S 5491   4.505   0.927   8.382 -0.8484 -0.1184 -0.7806
   66SAPC  C220 5492   4.412   1.003   8.569  0.0109  0.3323 -0.0392
   66SAPC  H20R 5493   4.384   0.909   8.623  2.2956 -0.2365  0.2291
   66SAPC  H20S 5494   4.343   1.083   8.604  1.0562  2.0349 -1.7326
   66SAPC  H20T 5495   4.516   1.029   8.595  0.1304  1.5132 -1.5633
   66SAPC   C33 5496   3.932   0.942   6.970 -1.0710 -0.5174 -0.3732
   66SAPC   H3X 5497   3.855   0.862   6.964 -0.5553 -1.0824  0.3318
   66SAPC   H3Y 5498   3.897   1.035   6.920  0.7934  0.1168 -0.5687
   66SAPC   C34 5499   3.965   0.985   7.118 -0.4986  0.1321 -0.8092
   66SAPC   H4X 5500   4.076   0.978   7.130 -0.7758 -1.6543  1.3569
   66SAPC   H4Y 5501   3.910   0.911   7.180 -0.5416  0.9813  0.1729
   66SAPC   C35 5502   3.896   1.120   7.151 -0.3392  0.0467  0.2969
   66SAPC   H5X 5503   3.792   1.134   7.116 -1.8255 -2.9160  3.0030
   66SAPC   H5Y 5504   3.971   1.189   7.107  0.2580 -1.2614 -0.7871
   66SAPC   C36 5505   3.886   1.139   7.306 -0.2332 -0.6965  0.0476
   66SAPC   H6X 5506   3.853   1.243   7.327 -0.1156 -0.9324  1.5626
   66SAPC   H6Y 5507   3.994   1.134   7.333 -0.5457  0.0002  1.5618
   66SAPC   C37 5508   3.805   1.035   7.381  0.6210 -0.1542 -0.1134
   66SAPC   H7X 5509   3.846   0.932   7.372 -3.1807 -1.7613 -0.7614
   66SAPC   H7Y 5510   3.719   1.033   7.311  0.8737  2.0875 -0.5768
   66SAPC   C38 5511   3.770   1.072   7.525 -0.0085 -0.4251  0.1199
   66SAPC   H8X 5512   3.680   1.020   7.565  0.0315 -0.0816  0.6618
   66SAPC   H8Y 5513   3.743   1.179   7.536  2.1408  0.1735 -0.0415
   66SAPC   C39 5514   3.881   1.044   7.623  0.4337  0.4863 -0.0491
   66SAPC   H9X 5515   3.968   1.106   7.594  0.5311  2.1848  3.3920
   66SAPC   H9Y 5516   3.928   0.945   7.602 -1.1540 -1.0862  3.0417
   66SAPC  C310 5517   3.856   1.065   7.777 -0.4506 -0.6894  0.0151
   66SAPC  H10X 5518   3.941   1.017   7.830 -0.4268 -0.7036 -0.0356
   66SAPC  H10Y 5519   3.767   1.010   7.817 -0.2850 -0.1657  1.1469
   66SAPC  C311 5520   3.850   1.218   7.813  0.9128 -0.4748  0.3160
   66SAPC  H11X 5521   3.762   1.267   7.765  0.3632 -1.9820 -0.2680
   66SAPC  H11Y 5522   3.941   1.271   7.777 -0.8149  2.1243 -0.5421
   66SAPC  C312 5523   3.836   1.238   7.967  0.4015 -0.0282  0.2958
   66SAPC  H12X 5524   3.820   1.346   7.986 -0.2573 -0.2967  1.3188
   66SAPC  H12Y 5525   3.932   1.210   8.015  1.8463  1.6986 -1.4219
   66SAPC  C313 5526   3.718   1.164   8.026 -0.4039 -0.6163 -0.3979
   66SAPC  H13X 5527   3.740   1.056   8.035  0.6975 -0.2488  1.9741
   66SAPC  H13Y 5528   3.629   1.168   7.959 -0.0514 -2.8294 -1.0866
   66SAPC  C314 5529   3.691   1.212   8.164  0.1048  0.1055  0.1493
   66SAPC  H14X 5530   3.580   1.223   8.166 -0.2815 -2.3177 -1.7932
   66SAPC  H14Y 5531   3.730   1.314   8.183  0.1499 -0.0657  1.0104
   66SAPC  C315 5532   3.728   1.116   8.278 -0.6416  0.7527  0.2077
   66SAPC  H15X 5533   3.838   1.104   8.280 -0.2133  3.8218 -0.6086
   66SAPC  H15Y 5534   3.688   1.013   8.261  0.2258  0.6100 -1.1751
   66SAPC  C316 5535   3.670   1.175   8.413  0.4637 -0.1136  0.5355
   66SAPC  H16X 5536   3.559   1.176   8.404  0.4219 -1.4613  0.7328
   66SAPC  H16Y 5537   3.706   1.279   8.427 -1.2725  0.5931  0.0882
   66SAPC  C317 5538   3.700   1.074   8.520  0.1060 -0.0496 -0.8498
   66SAPC  H17X 5539   3.810   1.061   8.525  0.1964  1.0681  2.0768
   66SAPC  H17Y 5540   3.646   0.978   8.504 -1.7816  0.9033 -0.4801
   66SAPC  C318 5541   3.664   1.129   8.661 -0.1301 -0.2044  0.7488
   66SAPC  H18X 5542   3.699   1.057   8.737  0.1471 -0.7144  0.1472
   66SAPC  H18Y 5543   3.557   1.153   8.681 -0.3464  0.6798 -1.1994
   66SAPC  H18Z 5544   3.709   1.230   8.670 -0.5774  0.1609 -0.7570
   67SAPC     N 5545   0.615   2.633   6.375  0.3662 -0.2577 -0.1356
   67SAPC   C12 5546   0.554   2.775   6.365  0.8332 -0.4337  0.8632
   67SAPC  H12A 5547   0.447   2.760   6.368  0.9377 -1.2084  1.0259
   67SAPC  H12B 5548   0.558   2.815   6.265  2.7702  3.1386  2.1983
   67SAPC   C13 5549   0.534   2.550   6.283 -0.4244 -0.5668 -0.1549
   67SAPC  H13A 5550   0.434   2.543   6.323 -0.6357  2.4881  0.1258
   67SAPC  H13B 5551   0.515   2.604   6.191 -2.5694  2.5095  1.9091
   67SAPC  H13C 5552   0.584   2.456   6.263  2.0517  0.8459 -1.0577
   67SAPC   C14 5553   0.757   2.634   6.329 -0.0537 -1.1491 -0.6091
   67SAPC  H14A 5554   0.774   2.676   6.231  1.8030  0.2458  0.2486
   67SAPC  H14B 5555   0.805   2.700   6.399  0.3955 -0.5841 -1.4211
   67SAPC  H14C 5556   0.805   2.538   6.322 -1.2339 -1.8306  0.3576
   67SAPC   C15 5557   0.603   2.585   6.518 -0.5962  0.7000 -0.3211
   67SAPC  H15A 5558   0.642   2.487   6.537 -1.8489 -0.5242 -3.3171
   67SAPC  H15B 5559   0.652   2.658   6.580  2.8514  0.1386 -2.1556
   67SAPC  H15C 5560   0.497   2.584   6.541 -1.4643 -0.3827 -3.7641
   67SAPC   C11 5561   0.601   2.893   6.462  0.4082  0.6702 -0.0960
   67SAPC  H11A 5562   0.594   2.853   6.565  1.5914  2.3550  0.6948
   67SAPC  H11B 5563   0.530   2.978   6.453 -0.8833 -0.0412  2.5386
   67SAPC     P 5564   0.853   2.966   6.517 -0.3801  0.1639  0.0486
   67SAPC   O13 5565   0.953   2.857   6.496 -0.0285 -0.7453  0.0991
   67SAPC   O14 5566   0.902   3.105   6.505 -0.3057 -0.2215 -0.7031
   67SAPC   O12 5567   0.731   2.935   6.427  0.1951  0.2856  0.1629
   67SAPC   O11 5568   0.799   2.941   6.666 -0.4113 -0.1806  0.4839
   67SAPC    C1 5569   0.733   3.046   6.738 -0.0359 -0.0514  0.3263
   67SAPC    HA 5570   0.805   3.130   6.745 -0.9522  0.6874  1.2056
   67SAPC    HB 5571   0.647   3.087   6.681 -0.1355 -0.6419  0.0412
   67SAPC    C2 5572   0.697   2.997   6.880 -0.6886  0.2133 -0.4618
   67SAPC    HS 5573   0.645   2.899   6.879  0.6580 -0.5320 -1.5386
   67SAPC   O21 5574   0.616   3.092   6.945 -0.3667 -0.4444  0.1971
   67SAPC   C21 5575   0.485   3.097   6.924 -0.4506  0.0563  0.1579
   67SAPC   O22 5576   0.422   3.036   6.844  0.3736  0.2130 -0.0297
   67SAPC   C22 5577   0.428   3.199   7.026  0.7635 -0.3046 -0.2022
   67SAPC   H2R 5578   0.510   3.231   7.094  1.5851 -1.0838 -0.8066
   67SAPC   H2S 5579   0.390   3.288   6.971 -0.0783 -0.5819 -0.0931
   67SAPC    C3 5580   0.827   2.985   6.970  0.6945 -0.0860 -0.5308
   67SAPC    HX 5581   0.867   3.085   6.997  1.7091 -0.0444 -2.0273
   67SAPC    HY 5582   0.907   2.931   6.914  0.4785  0.4383 -1.3681
   67SAPC   O31 5583   0.791   2.937   7.099 -0.0753  0.3395  0.3825
   67SAPC   C31 5584   0.782   2.798   7.115 -0.6428 -0.4166  0.2209
   67SAPC   O32 5585   0.816   2.717   7.031 -0.2670  0.2328  0.2337
   67SAPC   C32 5586   0.699   2.764   7.240  0.4411  0.0484 -0.0834
   67SAPC   H2X 5587   0.680   2.659   7.270  0.0707  0.2461  0.4027
   67SAPC   H2Y 5588   0.595   2.803   7.232  0.3724 -0.3623 -1.3103
   67SAPC   C23 5589   0.310   3.150   7.104 -0.4636 -0.1515  0.3058
   67SAPC   H3R 5590   0.230   3.109   7.038  0.1171 -1.9761  0.6751
   67SAPC   H3S 5591   0.260   3.227   7.166 -2.2065  1.0466 -2.3971
   67SAPC   C24 5592   0.347   3.019   7.187 -0.0958 -0.0845 -0.7849
   67SAPC   H4R 5593   0.378   2.937   7.119  0.3386 -1.1463  0.6371
   67SAPC   H4S 5594   0.259   2.974   7.237  1.3314 -0.2023  1.8282
   67SAPC   C25 5595   0.453   3.050   7.283  0.1522 -0.4177 -0.6051
   67SAPC   H5R 5596   0.550   3.090   7.249  0.5734 -0.8088  0.1292
   67SAPC   C26 5597   0.453   3.041   7.419 -0.1252  0.4510  0.2575
   67SAPC   H6R 5598   0.550   3.059   7.468 -0.7716  2.0390  1.0157
   67SAPC   C27 5599   0.346   2.998   7.512  0.0041  0.1266  0.2989
   67SAPC   H7R 5600   0.380   2.906   7.563 -0.5435  0.3052  1.0033
   67SAPC   H7S 5601   0.260   2.970   7.447 -1.4143  1.5572  1.4735
   67SAPC   C28 5602   0.302   3.117   7.584 -0.1982  0.8125  0.1962
   67SAPC   H8R 5603   0.277   3.210   7.532 -0.6985  1.0220  0.7969
   67SAPC   C29 5604   0.291   3.116   7.714  0.0706  0.1571 -0.0533
   67SAPC   H9R 5605   0.262   3.212   7.760  1.5596  1.0215 -0.8311
   67SAPC  C210 5606   0.319   3.004   7.810 -0.5846  0.7160 -0.4099
   67SAPC  H10R 5607   0.425   3.018   7.841 -0.8004  0.4765  0.4607
   67SAPC  H10S 5608   0.306   2.903   7.768  0.0651  1.1208 -1.6338
   67SAPC  C211 5609   0.245   3.013   7.943  0.5729 -0.7466 -0.2601
   67SAPC  H11R 5610   0.162   2.942   7.961 -1.2547  1.0387 -1.2103
   67SAPC  C212 5611   0.276   3.094   8.047  0.5740  0.8027  0.6146
   67SAPC  H12R 5612   0.217   3.072   8.138 -1.0964 -1.9580 -0.9830
   67SAPC  C213 5613   0.377   3.201   8.063  0.6481  0.5494 -0.6249
   67SAPC  H13R 5614   0.345   3.288   8.124  1.4124  0.3960  0.0119
   67SAPC  H13S 5615   0.396   3.255   7.968 -1.4426  0.7006 -1.0063
   67SAPC  C214 5616   0.500   3.133   8.118 -0.4870  0.6754  0.3452
   67SAPC  H14R 5617   0.572   3.104   8.041 -0.8480  0.1947  0.1814
   67SAPC  C215 5618   0.525   3.103   8.247  0.2249 -0.3562 -0.4970
   67SAPC  H15R 5619   0.620   3.057   8.277  0.8302  0.2737 -1.4086
   67SAPC  C216 5620   0.436   3.148   8.360  0.2094  0.0566  0.1104
   67SAPC  H16R 5621   0.400   3.074   8.435 -0.8219 -1.7115 -2.0295
   67SAPC  H16S 5622   0.338   3.193   8.330 -0.4539 -2.2061 -1.3584
   67SAPC  C217 5623   0.526   3.249   8.437  0.3547  0.4109 -0.1840
   67SAPC  H17R 5624   0.567   3.321   8.363 -1.1624 -1.5927 -3.1729
   67SAPC  H17S 5625   0.613   3.204   8.489  1.3444  0.2876 -1.8654
   67SAPC  C218 5626   0.439   3.321   8.550 -0.3063 -0.4199 -0.4194
   67SAPC  H18R 5627   0.345   3.359   8.504 -0.2839 -0.4282 -0.4715
   67SAPC  H18S 5628   0.498   3.405   8.593  0.1859 -1.0305  0.1153
   67SAPC  C219 5629   0.396   3.231   8.669 -0.2620  0.1727 -0.7982
   67SAPC  H19R 5630   0.482   3.168   8.699 -1.8634 -2.3344 -1.1518
   67SAPC  H19S 5631   0.318   3.158   8.641 -0.2082 -0.0865 -0.2914
   67SAPC  C220 5632   0.335   3.308   8.788 -0.7488 -0.1104 -0.9016
   67SAPC  H20R 5633   0.425   3.358   8.830  0.5487 -1.3555 -2.0710
   67SAPC  H20S 5634   0.291   3.239   8.863 -2.0942  1.1458 -0.4983
   67SAPC  H20T 5635   0.264   3.387   8.756 -0.6061  0.3627 -0.0847
   67SAPC   C33 5636   0.766   2.828   7.366  0.4633 -0.7083  0.7585
   67SAPC   H3X 5637   0.750   2.937   7.359 -1.4694 -1.0146 -0.3285
   67SAPC   H3Y 5638   0.872   2.796   7.374  0.3089 -1.3516  0.3853
   67SAPC   C34 5639   0.696   2.780   7.493  0.8930  0.2449  0.0646
   67SAPC   H4X 5640   0.716   2.674   7.516 -0.0604 -0.4846 -2.2012
   67SAPC   H4Y 5641   0.594   2.804   7.458  1.6248  0.9077 -1.7326
   67SAPC   C35 5642   0.745   2.862   7.611 -0.2087 -0.0269 -0.6247
   67SAPC   H5X 5643   0.669   2.866   7.691 -0.6848  0.5096 -1.0954
   67SAPC   H5Y 5644   0.774   2.966   7.583 -2.1789  0.6275 -0.3874
   67SAPC   C36 5645   0.877   2.806   7.671 -0.0717  0.3494  0.5620
   67SAPC   H6X 5646   0.957   2.795   7.594 -1.5282  1.2354 -1.1715
   67SAPC   H6Y 5647   0.852   2.707   7.713 -2.5946  0.2430 -1.0107
   67SAPC   C37 5648   0.922   2.889   7.800 -0.0151  0.2156  0.7411
   67SAPC   H7X 5649   0.831   2.920   7.854 -0.7967  1.0933 -1.0177
   67SAPC   H7Y 5650   0.966   2.986   7.769 -0.1193  0.1871  0.5054
   67SAPC   C38 5651   1.008   2.816   7.902 -0.0383  0.7197 -0.2681
   67SAPC   H8X 5652   1.091   2.768   7.845  0.1864  0.9846 -0.1648
   67SAPC   H8Y 5653   0.956   2.727   7.943  0.7270  0.8378  1.0038
   67SAPC   C39 5654   1.063   2.895   8.022  0.0717 -0.0615 -0.0247
   67SAPC   H9X 5655   1.114   2.987   7.988  1.6486 -0.6767  0.6054
   67SAPC   H9Y 5656   1.135   2.825   8.069  2.0004  1.5075 -0.5038
   67SAPC  C310 5657   0.955   2.935   8.134 -0.6724 -0.1342  0.0814
   67SAPC  H10X 5658   0.881   2.852   8.132 -0.7904 -0.0215 -0.5512
   67SAPC  H10Y 5659   0.908   3.030   8.102  1.8580  1.4201  0.6643
   67SAPC  C311 5660   1.020   2.974   8.264 -0.2844 -0.3311 -0.0693
   67SAPC  H11X 5661   1.107   3.043   8.252 -1.5877  1.0980 -1.9616
   67SAPC  H11Y 5662   1.065   2.886   8.315  0.6484  0.8511  1.2168
   67SAPC  C312 5663   0.929   3.047   8.372 -0.4234  0.5231 -0.0811
   67SAPC  H12X 5664   0.841   2.982   8.393  0.6314 -0.1364  2.6944
   67SAPC  H12Y 5665   0.887   3.143   8.335 -0.3654 -0.3088 -2.5279
   67SAPC  C313 5666   0.997   3.060   8.504 -0.5254  0.3205 -1.0005
   67SAPC  H13X 5667   1.086   3.126   8.491 -0.6210  1.5209  3.0923
   67SAPC  H13Y 5668   1.036   2.964   8.543  1.7941  1.0823 -1.2469
   67SAPC  C314 5669   0.910   3.117   8.620 -0.4251  0.6197 -0.0412
   67SAPC  H14X 5670   0.873   3.219   8.596  2.0672  1.5498 -0.1661
   67SAPC  H14Y 5671   0.974   3.117   8.711  1.2981 -3.2249 -1.0573
   67SAPC  C315 5672   0.804   3.017   8.667 -0.0469 -0.0854 -0.0439
   67SAPC  H15X 5673   0.855   2.919   8.664  0.1377 -0.0052  0.4639
   67SAPC  H15Y 5674   0.719   3.016   8.595  0.5811  0.5634 -0.8103
   67SAPC  C316 5675   0.757   3.039   8.807  0.2896 -0.3633  0.2112
   67SAPC  H16X 5676   0.712   3.140   8.798  1.0499 -0.1786 -2.4455
   67SAPC  H16Y 5677   0.835   3.026   8.885 -0.6423 -3.5193  0.7727
   67SAPC  C317 5678   0.651   2.935   8.843  0.2994  0.3838  0.6028
   67SAPC  H17X 5679   0.701   2.837   8.861  0.9782  0.1621 -2.0748
   67SAPC  H17Y 5680   0.574   2.916   8.764  0.4333  0.2755  0.4984
   67SAPC  C318 5681   0.592   2.974   8.978 -0.7027  0.0145 -0.3814
   67SAPC  H18X 5682   0.674   2.963   9.053  0.1235 -0.7662 -1.3783
   67SAPC  H18Y 5683   0.512   2.901   9.002  0.0682 -1.3220 -1.6961
   67SAPC  H18Z 5684   0.543   3.072   8.993  1.7047  1.2476 -0.0749
   68SAPC     N 5685   4.317   1.854   6.250 -0.0089 -0.1338  0.4887
   68SAPC   C12 5686   4.181   1.924   6.243  0.2904 -0.6741  0.2205
   68SAPC  H12A 5687   4.110   1.847   6.220  0.4887  0.2156 -4.3592
   68SAPC  H12B 5688   4.169   1.975   6.148 -0.8324  0.2983  0.8604
   68SAPC   C13 5689   4.420   1.955   6.271 -0.5905  0.1422  0.1257
   68SAPC  H13A 5690   4.429   2.029   6.193  2.9479  1.4348  1.5698
   68SAPC  H13B 5691   4.408   2.004   6.366  1.7185  1.1450 -0.0268
   68SAPC  H13C 5692   4.519   1.912   6.281 -0.6946 -0.7325 -2.0415
   68SAPC   C14 5693   4.316   1.765   6.365  0.8076  1.0613 -0.6315
   68SAPC  H14A 5694   4.400   1.696   6.358  1.1438  1.0527  2.2264
   68SAPC  H14B 5695   4.310   1.826   6.454 -0.1496  1.6170 -1.0658
   68SAPC  H14C 5696   4.229   1.702   6.358  2.1173 -0.8270 -0.8037
   68SAPC   C15 5697   4.344   1.783   6.121 -0.0822  0.1707 -0.0116
   68SAPC  H15A 5698   4.329   1.854   6.041 -1.5103 -0.3002 -0.1983
   68SAPC  H15B 5699   4.444   1.743   6.110 -0.8636 -2.0344  0.3307
   68SAPC  H15C 5700   4.275   1.701   6.107  1.3235 -1.0575  0.0210
   68SAPC   C11 5701   4.145   2.022   6.350  0.5136  0.0693 -0.1610
   68SAPC  H11A 5702   4.159   1.977   6.451  0.0641  0.2432 -0.0171
   68SAPC  H11B 5703   4.041   2.058   6.335  0.8372  1.5790  0.8883
   68SAPC     P 5704   4.211   2.252   6.251 -0.3195 -0.3313  0.1908
   68SAPC   O13 5705   4.341   2.280   6.185  0.3984  0.0733 -0.1761
   68SAPC   O14 5706   4.097   2.226   6.169  0.0286  0.0405 -0.1894
   68SAPC   O12 5707   4.222   2.137   6.362  0.8274 -0.8151 -0.2240
   68SAPC   O11 5708   4.169   2.379   6.326 -0.1997 -0.4385  0.2222
   68SAPC    C1 5709   4.115   2.372   6.460  0.2384  0.3867 -0.0338
   68SAPC    HA 5710   4.042   2.452   6.486 -2.9516 -2.2006 -0.3233
   68SAPC    HB 5711   4.068   2.276   6.491 -0.8395  1.0368  0.4239
   68SAPC    C2 5712   4.234   2.407   6.553 -0.2863  0.2291 -0.3910
   68SAPC    HS 5713   4.332   2.362   6.525 -0.2730 -0.0086  0.0252
   68SAPC   O21 5714   4.194   2.379   6.690 -0.0917  1.0503  0.0964
   68SAPC   C21 5715   4.234   2.263   6.742  0.1618  0.2585  0.3111
   68SAPC   O22 5716   4.303   2.178   6.688 -0.7248  0.1294 -0.8853
   68SAPC   C22 5717   4.188   2.252   6.887  0.2594  0.1424 -0.6989
   68SAPC   H2R 5718   4.132   2.346   6.904  0.6938  0.4262 -0.8378
   68SAPC   H2S 5719   4.119   2.165   6.898  1.8579 -1.3582 -1.8628
   68SAPC    C3 5720   4.267   2.558   6.545  0.0770  0.1904  0.0913
   68SAPC    HX 5721   4.169   2.610   6.553  0.0424  0.0823  0.3853
   68SAPC    HY 5722   4.304   2.575   6.442  0.0905 -0.4126 -0.0056
   68SAPC   O31 5723   4.357   2.609   6.645  0.2220 -0.2968  0.1356
   68SAPC   C31 5724   4.488   2.595   6.615 -0.2222  0.0161 -0.0144
   68SAPC   O32 5725   4.524   2.549   6.508  1.0319  0.5897 -0.4109
   68SAPC   C32 5726   4.571   2.666   6.718 -0.3940  0.0307 -0.4566
   68SAPC   H2X 5727   4.572   2.776   6.700 -1.5009  0.2899  0.9426
   68SAPC   H2Y 5728   4.673   2.629   6.694  1.6112  3.2506  2.2291
   68SAPC   C23 5729   4.294   2.236   7.004 -0.1790 -0.9824 -0.4175
   68SAPC   H3R 5730   4.372   2.314   6.990  0.1570 -0.8897  1.6661
   68SAPC   H3S 5731   4.345   2.138   7.006  0.0700 -0.8367  0.4755
   68SAPC   C24 5732   4.230   2.273   7.138  0.1068  0.4996 -0.1496
   68SAPC   H4R 5733   4.132   2.220   7.144  0.3562 -0.0604 -0.8081
   68SAPC   H4S 5734   4.222   2.384   7.146  0.7405  0.4295  2.2492
   68SAPC   C25 5735   4.324   2.243   7.253 -0.1819  0.8329 -0.6681
   68SAPC   H5R 5736   4.425   2.207   7.228 -1.9246 -2.0610 -4.5728
   68SAPC   C26 5737   4.293   2.236   7.380  0.3693  0.3024 -0.0456
   68SAPC   H6R 5738   4.373   2.208   7.450 -1.6678 -1.9418  1.5223
   68SAPC   C27 5739   4.154   2.261   7.437  0.4277 -0.0212 -1.1019
   68SAPC   H7R 5740   4.078   2.290   7.362 -2.3135 -0.8097  1.2019
   68SAPC   H7S 5741   4.162   2.343   7.510  0.9347  0.6818 -1.9269
   68SAPC   C28 5742   4.096   2.143   7.509 -0.7137  0.0248  0.4171
   68SAPC   H8R 5743   4.032   2.078   7.447 -2.2533 -0.7508  2.6748
   68SAPC   C29 5744   4.122   2.118   7.636  0.5263 -0.5330  0.1703
   68SAPC   H9R 5745   4.082   2.027   7.685 -1.3353  0.4469  0.5524
   68SAPC  C210 5746   4.215   2.193   7.733 -0.2173  0.5398 -0.2194
   68SAPC  H10R 5747   4.156   2.269   7.788  0.8159  0.4010  1.1369
   68SAPC  H10S 5748   4.295   2.248   7.679  0.9038 -1.0852 -0.3072
   68SAPC  C211 5749   4.295   2.110   7.829 -0.3149  1.0057  0.7180
   68SAPC  H11R 5750   4.315   2.008   7.793  1.5827  1.6697 -0.2542
   68SAPC  C212 5751   4.341   2.142   7.950  0.3373 -0.1819  0.8441
   68SAPC  H12R 5752   4.399   2.070   8.008 -1.1208 -2.6056 -0.5544
   68SAPC  C213 5753   4.334   2.279   8.014  0.6983  0.2457  0.1552
   68SAPC  H13R 5754   4.314   2.352   7.933 -0.0222 -0.5898 -0.4411
   68SAPC  H13S 5755   4.437   2.311   8.039  1.2417 -1.3849  0.1114
   68SAPC  C214 5756   4.235   2.287   8.124  0.3904  0.4301  0.6111
   68SAPC  H14R 5757   4.148   2.220   8.119 -0.2337  1.2288  0.5244
   68SAPC  C215 5758   4.254   2.350   8.236  0.4907 -0.4092 -0.4538
   68SAPC  H15R 5759   4.170   2.339   8.306  0.3091  0.3734 -0.5427
   68SAPC  C216 5760   4.368   2.443   8.282 -0.4649 -0.5909 -0.5788
   68SAPC  H16R 5761   4.383   2.525   8.209  2.7563  2.4857  3.0425
   68SAPC  H16S 5762   4.461   2.382   8.292 -1.2382 -2.4225 -3.4642
   68SAPC  C217 5763   4.341   2.513   8.421  0.1209  0.3520 -0.1568
   68SAPC  H17R 5764   4.328   2.441   8.504 -1.9893  1.8591  0.9207
   68SAPC  H17S 5765   4.252   2.576   8.402 -0.8456 -1.0451 -0.4254
   68SAPC  C218 5766   4.453   2.621   8.458  0.1699 -0.5005 -0.7526
   68SAPC  H18R 5767   4.547   2.597   8.403  1.0223  1.9938 -0.5191
   68SAPC  H18S 5768   4.468   2.629   8.568 -1.3188  1.3629 -0.6314
   68SAPC  C219 5769   4.432   2.769   8.423  0.5492 -0.1018  0.5961
   68SAPC  H19R 5770   4.487   2.832   8.497 -0.2177  1.9350 -0.4920
   68SAPC  H19S 5771   4.325   2.796   8.429  0.8002  1.2643 -0.5521
   68SAPC  C220 5772   4.470   2.809   8.285  0.2864  0.0392 -0.4312
   68SAPC  H20R 5773   4.433   2.914   8.274  1.3735  0.4640 -0.1702
   68SAPC  H20S 5774   4.408   2.752   8.212  0.8183  0.7783 -1.4940
   68SAPC  H20T 5775   4.580   2.807   8.270  0.2674  0.5064 -0.6626
   68SAPC   C33 5776   4.536   2.619   6.863 -0.0711 -0.3491 -0.4760
   68SAPC   H3X 5777   4.620   2.650   6.929  0.1253  1.5078 -1.5192
   68SAPC   H3Y 5778   4.524   2.509   6.867 -2.6024 -0.1306 -0.4235
   68SAPC   C34 5779   4.411   2.683   6.919 -0.1246  0.0194 -0.4289
   68SAPC   H4X 5780   4.321   2.684   6.853 -0.4869 -1.1612  0.0258
   68SAPC   H4Y 5781   4.436   2.785   6.954 -0.1140 -0.3126  0.5519
   68SAPC   C35 5782   4.378   2.623   7.056 -0.3792 -0.3380 -0.0820
   68SAPC   H5X 5783   4.370   2.512   7.058  0.7558 -0.4356  2.6182
   68SAPC   H5Y 5784   4.275   2.661   7.076 -0.2477  0.6042 -1.0883
   68SAPC   C36 5785   4.472   2.661   7.162 -0.0393  0.1571  0.1397
   68SAPC   H6X 5786   4.465   2.768   7.189 -1.2428 -0.1157  0.9921
   68SAPC   H6Y 5787   4.580   2.640   7.146  0.1610 -0.2454  1.7731
   68SAPC   C37 5788   4.443   2.587   7.288 -0.5100 -0.7192 -0.2270
   68SAPC   H7X 5789   4.467   2.479   7.288  2.0527 -0.2511  1.5714
   68SAPC   H7Y 5790   4.335   2.603   7.310 -0.5553 -0.9060 -0.3145
   68SAPC   C38 5791   4.514   2.637   7.419 -0.4434 -0.4253  0.0672
   68SAPC   H8X 5792   4.455   2.729   7.442  0.1810 -0.1888  0.7532
   68SAPC   H8Y 5793   4.617   2.672   7.398 -1.1491  1.9096  0.2563
   68SAPC   C39 5794   4.509   2.538   7.535  0.6139  0.1698 -0.2401
   68SAPC   H9X 5795   4.574   2.455   7.503  0.6622  0.4824 -0.9771
   68SAPC   H9Y 5796   4.405   2.502   7.549  0.1860  1.2958 -0.3624
   68SAPC  C310 5797   4.579   2.586   7.662  0.1795  0.1283 -0.3456
   68SAPC  H10X 5798   4.536   2.685   7.687  1.2009  0.3215  0.7270
   68SAPC  H10Y 5799   4.686   2.605   7.642  1.1254 -2.8083  1.3397
   68SAPC  C311 5800   4.584   2.478   7.763  0.1604  0.0591  0.4912
   68SAPC  H11X 5801   4.486   2.474   7.816  0.2468  2.0308  0.8704
   68SAPC  H11Y 5802   4.658   2.512   7.840 -1.1605  0.7017  1.5114
   68SAPC  C312 5803   4.635   2.332   7.731 -0.5463 -0.0498  0.0100
   68SAPC  H12X 5804   4.734   2.345   7.681 -0.1395  0.3788  0.9014
   68SAPC  H12Y 5805   4.561   2.287   7.662 -2.5385  3.0819 -0.0634
   68SAPC  C313 5806   4.660   2.241   7.851  0.5275 -0.0644  0.0827
   68SAPC  H13X 5807   4.659   2.132   7.830 -1.8117 -0.1209  0.2061
   68SAPC  H13Y 5808   4.578   2.243   7.926  1.4840 -2.6039  1.2973
   68SAPC  C314 5809   4.786   2.271   7.934 -0.8412 -0.4311 -0.0616
   68SAPC  H14X 5810   4.774   2.373   7.979 -0.6592  1.2248 -3.4720
   68SAPC  H14Y 5811   4.873   2.283   7.867 -0.2603  3.4157  1.1083
   68SAPC  C315 5812   4.824   2.172   8.041 -0.2506 -0.1165 -0.3896
   68SAPC  H15X 5813   4.816   2.074   7.988 -1.1668  0.4737 -1.3751
   68SAPC  H15Y 5814   4.753   2.171   8.126 -0.2552  0.9894 -0.3658
   68SAPC  C316 5815   4.955   2.185   8.104  0.4061 -0.7557 -0.0923
   68SAPC  H16X 5816   4.965   2.283   8.155  2.5438 -0.9937  0.0311
   68SAPC  H16Y 5817   5.026   2.188   8.018  1.1518 -0.1020  0.5245
   68SAPC  C317 5818   4.991   2.071   8.193 -0.0314 -0.5523  0.6465
   68SAPC  H17X 5819   4.988   1.980   8.130 -0.0142  0.3664 -0.7280
   68SAPC  H17Y 5820   4.910   2.054   8.268 -0.4253 -3.9932 -0.4055
   68SAPC  C318 5821   5.123   2.094   8.264 -0.1746 -1.3824  0.3605
   68SAPC  H18X 5822   5.206   2.029   8.230 -0.0551  0.0403 -2.2664
   68SAPC  H18Y 5823   5.107   2.117   8.372  2.7295 -0.0217  0.5944
   68SAPC  H18Z 5824   5.162   2.193   8.233  0.0626 -2.1069 -1.7735
   69SLPC     N 5825   2.302   0.555  10.853 -0.4899 -0.0775 -0.3779
   69SLPC   C13 5826   2.292   0.411  10.825  0.1661 -0.1477  0.5392
   69SLPC  H13A 5827   2.389   0.372  10.850  1.0844  1.8248  0.3178
   69SLPC  H13B 5828   2.210   0.366  10.879  1.1259  0.0276  2.2099
   69SLPC  H13C 5829   2.269   0.392  10.721 -1.0090  1.7295  0.4014
   69SLPC   C14 5830   2.326   0.576  10.998  0.2639 -0.0473  0.4160
   69SLPC  H14A 5831   2.430   0.550  11.011  0.9314  1.8582 -0.8360
   69SLPC  H14B 5832   2.304   0.678  11.026 -0.2612  0.4774 -1.7619
   69SLPC  H14C 5833   2.264   0.506  11.054  0.8632  1.1672  2.7187
   69SLPC   C15 5834   2.174   0.614  10.814  0.0090 -0.0723  0.1934
   69SLPC  H15A 5835   2.138   0.590  10.715 -0.4704 -0.2868  0.4148
   69SLPC  H15B 5836   2.101   0.580  10.885  2.4641 -4.4287  0.9979
   69SLPC  H15C 5837   2.183   0.721  10.823 -0.1830 -0.2116  2.5591
   69SLPC   C12 5838   2.412   0.617  10.770  0.1009  0.4356 -0.3894
   69SLPC  H12A 5839   2.431   0.719  10.798  0.6174  1.2634 -3.3844
   69SLPC  H12B 5840   2.380   0.623  10.667  0.3098 -1.6809 -0.6324
   69SLPC   C11 5841   2.554   0.548  10.764 -0.0859  0.9572 -0.4985
   69SLPC  H11A 5842   2.621   0.602  10.693 -1.3099  2.9914 -0.1980
   69SLPC  H11B 5843   2.550   0.441  10.734  1.0297  1.2354 -1.7339
   69SLPC     P 5844   2.687   0.684  10.939  0.0620 -0.3126  0.0981
   69SLPC   O13 5845   2.637   0.803  10.872  0.1765  0.2386  0.4895
   69SLPC   O14 5846   2.693   0.687  11.089  0.1482 -0.0125  0.2550
   69SLPC   O12 5847   2.610   0.557  10.901  0.4928 -0.1794  0.4043
   69SLPC   O11 5848   2.836   0.661  10.886  0.0238 -0.1863  0.2302
   69SLPC    C1 5849   2.908   0.754  10.808 -0.1415  0.3488  0.0457
   69SLPC    HA 5850   2.858   0.853  10.795 -1.9004 -0.4458  0.4545
   69SLPC    HB 5851   3.006   0.773  10.856 -0.2994 -1.0592  0.9877
   69SLPC    C2 5852   2.940   0.694  10.662 -0.2550  0.0968 -0.8785
   69SLPC    HS 5853   3.022   0.761  10.628 -0.9319  2.3590  1.6241
   69SLPC   O21 5854   2.819   0.702  10.586 -0.0299  0.4636 -0.2507
   69SLPC   C21 5855   2.788   0.811  10.528 -0.1726  0.1956 -0.8592
   69SLPC   O22 5856   2.858   0.909  10.522  0.1411 -0.5788 -0.3023
   69SLPC   C22 5857   2.644   0.783  10.466  0.2006  0.9183  0.0272
   69SLPC   H2R 5858   2.653   0.683  10.420  1.5521  2.1832 -2.6843
   69SLPC   H2S 5859   2.576   0.786  10.554  0.6659 -1.4746  0.5195
   69SLPC    C3 5860   2.998   0.550  10.670  0.0134  0.2026 -0.0449
   69SLPC    HX 5861   2.932   0.479  10.724  2.8983 -1.6911  1.2534
   69SLPC    HY 5862   3.083   0.548  10.741 -0.5784  2.6708  0.8016
   69SLPC   O31 5863   3.038   0.504  10.533 -0.3139 -0.2917 -0.2276
   69SLPC   C31 5864   3.162   0.541  10.502  0.3595 -0.2988  0.2103
   69SLPC   O32 5865   3.236   0.610  10.570  0.1252  0.1515  0.4572
   69SLPC   C32 5866   3.197   0.479  10.368  0.3664  0.1159 -0.5185
   69SLPC   H2X 5867   3.123   0.401  10.343  0.6045  0.2490 -1.7206
   69SLPC   H2Y 5868   3.294   0.427  10.384 -0.4142 -0.6259  2.2699
   69SLPC   C23 5869   2.607   0.898  10.365 -0.2186 -0.3475  0.5878
   69SLPC   H3R 5870   2.597   0.995  10.417 -0.2816 -0.5962  1.0403
   69SLPC   H3S 5871   2.505   0.871  10.332 -0.0745  0.2692 -0.4132
   69SLPC   C24 5872   2.704   0.910  10.243 -0.4480 -1.2795 -0.7016
   69SLPC   H4R 5873   2.806   0.944  10.271 -1.0827  1.7948 -1.6881
   69SLPC   H4S 5874   2.664   0.994  10.181  0.6473 -0.1441  0.0824
   69SLPC   C25 5875   2.731   0.789  10.153  0.4104  0.6568 -0.1310
   69SLPC   H5R 5876   2.634   0.767  10.103  0.9595  2.5549 -2.1666
   69SLPC   H5S 5877   2.762   0.709  10.223  2.5785 -0.1441 -1.8928
   69SLPC   C26 5878   2.848   0.805  10.049  0.0369 -0.3825  0.7530
   69SLPC   H6R 5879   2.945   0.793  10.102  0.8540  1.4833 -0.2088
   69SLPC   H6S 5880   2.859   0.911  10.018 -0.3429 -0.2754  0.9830
   69SLPC   C27 5881   2.831   0.715   9.928  0.6430 -0.0220 -0.2708
   69SLPC   H7R 5882   2.724   0.692   9.913  1.0122 -1.0430 -1.5745
   69SLPC   H7S 5883   2.900   0.630   9.946  3.9562  2.7089  1.1436
   69SLPC   C28 5884   2.890   0.782   9.800 -0.3345 -0.4308  0.0865
   69SLPC   H8R 5885   2.966   0.711   9.761 -0.7647 -1.3882  0.9408
   69SLPC   H8S 5886   2.953   0.867   9.832  0.0479 -0.2953 -0.9834
   69SLPC   C29 5887   2.796   0.832   9.696  0.5967 -0.3368  0.2162
   69SLPC   H9R 5888   2.742   0.921   9.734 -1.7197 -1.5419 -0.0329
   69SLPC  C210 5889   2.764   0.773   9.581 -1.0981  0.3106 -0.6323
   69SLPC  H10R 5890   2.694   0.826   9.515  2.6658  3.8429 -2.2431
   69SLPC  C211 5891   2.827   0.649   9.520 -0.2519 -0.7886  0.0249
   69SLPC  H11R 5892   2.756   0.566   9.540  0.8484 -1.5137  1.0878
   69SLPC  H11S 5893   2.917   0.607   9.571 -1.1241 -1.1276  1.3214
   69SLPC  C212 5894   2.848   0.654   9.369  0.0152 -0.0945  0.5535
   69SLPC  H12R 5895   2.877   0.749   9.320  2.3682 -1.3831 -0.7348
   69SLPC  C213 5896   2.851   0.548   9.281  0.0076 -1.0132 -0.2487
   69SLPC  H13R 5897   2.853   0.567   9.173  0.8622 -1.5367 -0.3324
   69SLPC  C214 5898   2.832   0.397   9.310 -0.1078 -0.3008  0.4023
   69SLPC  H14R 5899   2.869   0.369   9.410 -1.2310  0.4222  1.0451
   69SLPC  H14S 5900   2.881   0.337   9.230  0.6324  0.9887 -0.1511
   69SLPC  C215 5901   2.677   0.360   9.327 -0.3025  0.6364 -0.5504
   69SLPC  H15R 5902   2.632   0.432   9.399 -1.8757  1.7990 -2.6018
   69SLPC  H15S 5903   2.679   0.264   9.382 -1.8509  1.1196  0.4259
   69SLPC  C216 5904   2.606   0.356   9.196 -0.1150 -0.3684  0.8362
   69SLPC  H16R 5905   2.571   0.454   9.158  0.6017 -1.3208 -2.6716
   69SLPC  H16S 5906   2.509   0.313   9.230 -0.4214 -0.5990 -0.2938
   69SLPC  C217 5907   2.667   0.268   9.085 -0.7624  0.6409 -0.3139
   69SLPC  H17R 5908   2.749   0.199   9.113 -1.7971 -0.8766 -0.8581
   69SLPC  H17S 5909   2.704   0.336   9.005  0.8912 -0.5026 -0.5757
   69SLPC  C218 5910   2.556   0.180   9.019  0.0240  0.0440 -0.7322
   69SLPC  H18R 5911   2.606   0.087   8.985  3.0023  1.4608 -0.5751
   69SLPC  H18S 5912   2.496   0.224   8.936 -0.0598 -1.7971 -1.7037
   69SLPC  H18T 5913   2.486   0.142   9.096  0.6600 -1.3862 -0.8363
   69SLPC   C33 5914   3.213   0.589  10.260 -0.3594  0.1648 -0.0058
   69SLPC   H3X 5915   3.312   0.634  10.281  1.6378 -4.2993  1.3158
   69SLPC   H3Y 5916   3.126   0.658  10.263  1.7640  2.9901  1.4877
   69SLPC   C34 5917   3.221   0.529  10.118  0.2842  0.3006  0.5181
   69SLPC   H4X 5918   3.122   0.488  10.089  0.4879 -0.2447  0.5889
   69SLPC   H4Y 5919   3.298   0.449  10.112  1.0429  0.9762  0.9938
   69SLPC   C35 5920   3.252   0.642  10.012  0.6691 -0.0187 -0.5419
   69SLPC   H5X 5921   3.360   0.660  10.032  0.3915  0.4452  0.6275
   69SLPC   H5Y 5922   3.192   0.732  10.036  1.6047  0.2515  0.9383
   69SLPC   C36 5923   3.221   0.592   9.869 -0.2530  0.0535  0.2071
   69SLPC   H6X 5924   3.226   0.673   9.794  1.2081 -1.1029 -1.0121
   69SLPC   H6Y 5925   3.117   0.553   9.859  0.7017 -2.7589  0.2746
   69SLPC   C37 5926   3.339   0.504   9.817  0.1118 -0.0785 -0.4959
   69SLPC   H7X 5927   3.350   0.402   9.862 -2.1344  0.2975  1.0801
   69SLPC   H7Y 5928   3.431   0.558   9.846  0.5389 -1.6527  1.3550
   69SLPC   C38 5929   3.331   0.494   9.665 -0.0647  0.1550 -0.2448
   69SLPC   H8X 5930   3.415   0.432   9.626  2.7179  1.5611  2.9233
   69SLPC   H8Y 5931   3.356   0.596   9.629 -3.9889  2.0337  1.8056
   69SLPC   C39 5932   3.197   0.465   9.594  0.8668  0.0840 -0.2863
   69SLPC   H9X 5933   3.120   0.538   9.628 -0.0591 -0.7966 -0.4792
   69SLPC   H9Y 5934   3.168   0.362   9.623  1.1023 -0.2034 -1.0477
   69SLPC  C310 5935   3.208   0.470   9.440 -0.1811  0.4425 -0.7978
   69SLPC  H10X 5936   3.105   0.449   9.402 -0.4071 -0.7576  0.4098
   69SLPC  H10Y 5937   3.283   0.395   9.408  0.2970  0.3007  0.5983
   69SLPC  C311 5938   3.252   0.610   9.380  0.1118 -0.6830  0.4916
   69SLPC  H11X 5939   3.360   0.630   9.393  0.0642  0.9648 -1.2256
   69SLPC  H11Y 5940   3.204   0.695   9.433 -1.1584 -0.3558 -1.1166
   69SLPC  C312 5941   3.216   0.616   9.228 -0.6922  0.1255 -0.1187
   69SLPC  H12X 5942   3.230   0.719   9.187 -0.0765 -0.2483 -0.8698
   69SLPC  H12Y 5943   3.108   0.594   9.213 -0.6580  0.5989 -1.1875
   69SLPC  C313 5944   3.303   0.521   9.139 -0.6590  0.4550  0.2801
   69SLPC  H13X 5945   3.289   0.413   9.162  3.0705 -0.1600  0.2579
   69SLPC  H13Y 5946   3.408   0.548   9.161 -0.4822  1.2933 -1.4053
   69SLPC  C314 5947   3.282   0.535   8.983 -0.3925 -0.1555  0.7110
   69SLPC  H14X 5948   3.252   0.641   8.974  0.2652 -0.0956 -1.3096
   69SLPC  H14Y 5949   3.193   0.477   8.950 -0.2453  0.7557 -1.5155
   69SLPC  C315 5950   3.403   0.488   8.898 -0.1068 -0.0083  0.2374
   69SLPC  H15X 5951   3.411   0.381   8.926 -2.4281 -0.4526 -0.5945
   69SLPC  H15Y 5952   3.502   0.531   8.924  1.5257 -3.3703  0.1145
   69SLPC  C316 5953   3.372   0.499   8.744  0.2121 -0.1808 -0.4515
   69SLPC  H16X 5954   3.391   0.604   8.712 -0.2159 -0.0047 -0.1326
   69SLPC  H16Y 5955   3.268   0.467   8.723 -0.1673  0.9266 -0.3090
   69SLPC  C317 5956   3.461   0.402   8.661 -0.0050  0.0675 -0.0292
   69SLPC  H17X 5957   3.433   0.300   8.694 -0.3535  0.6881  1.7095
   69SLPC  H17Y 5958   3.567   0.414   8.693  0.6524 -1.0475 -1.6434
   69SLPC  C318 5959   3.462   0.412   8.515  0.5083 -0.1752 -0.1218
   69SLPC  H18X 5960   3.541   0.343   8.479 -1.5225 -1.2152 -3.0636
   69SLPC  H18Y 5961   3.489   0.513   8.476  3.5300 -0.7778  0.1825
   69SLPC  H18Z 5962   3.361   0.385   8.475 -0.6989  1.9479  1.3102
   70SLPC     N 5963   3.698   4.035  11.133 -0.5595 -0.0253  0.0759
   70SLPC   C13 5964   3.624   3.965  11.232  0.1834  0.6161 -0.6879
   70SLPC  H13A 5965   3.671   3.956  11.329  0.4959 -2.7975 -1.0391
   70SLPC  H13B 5966   3.534   4.022  11.251  0.0868  0.8412 -1.7530
   70SLPC  H13C 5967   3.585   3.871  11.194 -2.2695  1.4656 -0.4859
   70SLPC   C14 5968   3.833   3.973  11.117  0.3046  0.3715  0.0091
   70SLPC  H14A 5969   3.816   3.873  11.080 -1.4429  0.5512  0.2417
   70SLPC  H14B 5970   3.904   4.018  11.050  1.8315 -1.7560  0.0655
   70SLPC  H14C 5971   3.880   3.963  11.214 -1.1003 -1.5107  0.5605
   70SLPC   C15 5972   3.723   4.178  11.172  0.1654  0.0329  0.2576
   70SLPC  H15A 5973   3.774   4.185  11.268  1.3779 -2.4182 -0.1167
   70SLPC  H15B 5974   3.795   4.227  11.108 -0.4003 -0.1135 -0.5053
   70SLPC  H15C 5975   3.634   4.237  11.182  0.8659  1.0072  0.9792
   70SLPC   C12 5976   3.616   4.032  11.004 -0.1231 -0.4741 -0.4523
   70SLPC  H12A 5977   3.650   4.114  10.942 -0.8383  0.4134  0.3004
   70SLPC  H12B 5978   3.520   4.072  11.031  1.5637  2.6770  1.4989
   70SLPC   C11 5979   3.595   3.908  10.919  0.3486 -0.5206  0.0953
   70SLPC  H11A 5980   3.696   3.876  10.885 -0.1661 -0.0824 -2.0318
   70SLPC  H11B 5981   3.545   3.933  10.823 -0.9679 -0.0075  0.8956
   70SLPC     P 5982   3.377   3.769  10.953  0.1277  0.5848 -0.1521
   70SLPC   O13 5983   3.343   3.634  11.009 -0.2693  0.2987 -0.2872
   70SLPC   O14 5984   3.293   3.884  11.000  0.2899  0.2851  0.5425
   70SLPC   O12 5985   3.526   3.799  10.984 -0.7717  0.0803  0.3819
   70SLPC   O11 5986   3.362   3.768  10.796 -0.1176  0.1540 -0.3999
   70SLPC    C1 5987   3.420   3.669  10.710  0.2186  0.1595 -1.0574
   70SLPC    HA 5988   3.530   3.680  10.704  0.5199 -0.5689  1.6661
   70SLPC    HB 5989   3.402   3.563  10.739  0.5998  0.4723  0.4451
   70SLPC    C2 5990   3.363   3.689  10.571 -0.1728  0.3540 -0.2273
   70SLPC    HS 5991   3.398   3.607  10.505  1.3078  0.8373 -0.0623
   70SLPC   O21 5992   3.405   3.814  10.511 -0.1126 -0.8644  0.0093
   70SLPC   C21 5993   3.535   3.799  10.464 -0.9902 -0.6110 -0.7754
   70SLPC   O22 5994   3.595   3.695  10.455 -0.0420  0.0725  0.1859
   70SLPC   C22 5995   3.580   3.940  10.427  0.4212  0.4612  0.1818
   70SLPC   H2R 5996   3.518   3.979  10.344 -1.0432 -0.9481  0.5620
   70SLPC   H2S 5997   3.579   4.000  10.521  0.9159 -1.1980  1.2915
   70SLPC    C3 5998   3.214   3.679  10.577 -0.4090 -0.5371 -0.5726
   70SLPC    HX 5999   3.172   3.762  10.636  0.2615 -1.5008  1.3349
   70SLPC    HY 6000   3.180   3.603  10.650 -0.4387  1.7706  1.9555
   70SLPC   O31 6001   3.162   3.660  10.442  0.0126 -0.3970 -0.7037
   70SLPC   C31 6002   3.123   3.541  10.416  0.5377 -0.4518  1.0145
   70SLPC   O32 6003   3.144   3.439  10.474 -0.1467  0.5266  0.0719
   70SLPC   C32 6004   3.049   3.559  10.276  0.4534 -0.1930 -0.0219
   70SLPC   H2X 6005   3.136   3.586  10.213 -0.5862  2.8777 -0.3178
   70SLPC   H2Y 6006   2.968   3.635  10.286 -0.9814 -1.9311  2.9447
   70SLPC   C23 6007   3.726   3.955  10.385  0.4392 -0.5722 -0.0549
   70SLPC   H3R 6008   3.793   3.903  10.457  0.1251 -1.2801 -0.2756
   70SLPC   H3S 6009   3.765   4.059  10.392 -1.2940 -0.0024  3.1239
   70SLPC   C24 6010   3.759   3.906  10.244 -0.7313  0.4990 -0.3356
   70SLPC   H4R 6011   3.716   3.804  10.245 -0.7021  0.4891  0.1764
   70SLPC   H4S 6012   3.870   3.905  10.234 -0.7857  0.8948 -1.1078
   70SLPC   C25 6013   3.708   3.983  10.119 -0.1828  0.0338  0.2774
   70SLPC   H5R 6014   3.737   4.089  10.129 -1.5903  0.9683 -3.7073
   70SLPC   H5S 6015   3.598   3.986  10.103 -0.0595 -1.4859 -1.2265
   70SLPC   C26 6016   3.756   3.919   9.985  0.1189  0.7162 -0.8914
   70SLPC   H6R 6017   3.728   3.812   9.995 -2.3100  1.4735  1.7038
   70SLPC   H6S 6018   3.867   3.916   9.988  0.1169 -2.7870  0.6389
   70SLPC   C27 6019   3.699   3.979   9.861  0.2698 -0.1975 -0.8276
   70SLPC   H7R 6020   3.711   4.089   9.877 -1.0079 -0.1559 -0.0195
   70SLPC   H7S 6021   3.589   3.965   9.858  0.5948 -3.3136 -1.5843
   70SLPC   C28 6022   3.753   3.941   9.720 -0.4540 -0.2290  0.2542
   70SLPC   H8R 6023   3.762   3.830   9.716  1.4386 -0.2097  2.1994
   70SLPC   H8S 6024   3.862   3.963   9.713  0.0696 -2.2249  1.2295
   70SLPC   C29 6025   3.682   4.010   9.611 -0.3661  0.0768 -0.3390
   70SLPC   H9R 6026   3.589   4.061   9.640  0.7075  1.0747  1.4760
   70SLPC  C210 6027   3.714   3.994   9.481  0.7795 -0.1571 -0.8759
   70SLPC  H10R 6028   3.653   4.047   9.407 -0.6416 -0.7022 -0.1340
   70SLPC  C211 6029   3.838   3.927   9.423  0.7545  0.1300 -0.3191
   70SLPC  H11R 6030   3.817   3.837   9.361 -1.5742 -0.0790  0.6800
   70SLPC  H11S 6031   3.888   3.869   9.503 -1.2471 -3.6573 -1.5613
   70SLPC  C212 6032   3.931   4.031   9.360 -0.3056  0.1549 -0.3347
   70SLPC  H12R 6033   3.965   4.108   9.430 -0.0369  0.5188 -0.8585
   70SLPC  C213 6034   3.963   4.042   9.229 -0.5777  0.2716  0.4044
   70SLPC  H13R 6035   4.030   4.120   9.192  0.1136 -1.3168 -1.8625
   70SLPC  C214 6036   3.920   3.939   9.127  0.9089 -0.1237  0.1917
   70SLPC  H14R 6037   3.827   3.891   9.163  2.7400 -2.7965  1.7485
   70SLPC  H14S 6038   4.004   3.868   9.112 -0.5292 -1.6679 -0.7847
   70SLPC  C215 6039   3.894   4.014   9.000  0.3915  1.1946  0.3709
   70SLPC  H15R 6040   3.988   4.062   8.964  0.7990  0.3002  0.2378
   70SLPC  H15S 6041   3.822   4.097   9.018  0.6935  1.1660  1.8346
   70SLPC  C216 6042   3.827   3.925   8.899 -0.4274  0.8170  0.3873
   70SLPC  H16R 6043   3.732   3.907   8.955  0.1268  1.6544  1.6611
   70SLPC  H16S 6044   3.876   3.828   8.875 -0.6015  1.1501 -1.4408
   70SLPC  C217 6045   3.793   3.989   8.765  0.6639  0.4213  0.1034
   70SLPC  H17R 6046   3.800   3.906   8.692 -2.1727 -1.5008  1.7936
   70SLPC  H17S 6047   3.854   4.074   8.728  0.3553  1.1475  1.1956
   70SLPC  C218 6048   3.649   4.044   8.763 -0.3835  0.5832  0.0890
   70SLPC  H18R 6049   3.626   4.078   8.660 -1.3049 -0.7723 -0.1769
   70SLPC  H18S 6050   3.625   4.132   8.826 -1.1504 -0.3452  1.1394
   70SLPC  H18T 6051   3.587   3.956   8.790  3.5846 -1.5735  3.4044
   70SLPC   C33 6052   2.992   3.429  10.217  0.8905 -0.0412  0.5069
   70SLPC   H3X 6053   2.933   3.370  10.290  0.7883  0.2203  0.6366
   70SLPC   H3Y 6054   3.077   3.369  10.180  1.9699  0.6570  1.7608
   70SLPC   C34 6055   2.905   3.458  10.088  0.5137 -0.0852  0.2492
   70SLPC   H4X 6056   2.826   3.523  10.131 -0.7121 -0.5315 -1.2563
   70SLPC   H4Y 6057   2.859   3.359  10.069  2.0152 -0.6905 -0.4453
   70SLPC   C35 6058   2.990   3.519   9.972 -0.0022  0.2116 -0.2927
   70SLPC   H5X 6059   3.069   3.449   9.937  1.4241  0.7452  1.6816
   70SLPC   H5Y 6060   3.030   3.620   9.996 -0.1799  0.0858  0.5623
   70SLPC   C36 6061   2.898   3.546   9.853  0.5998  0.1623 -0.0386
   70SLPC   H6X 6062   2.834   3.636   9.863 -0.0326 -0.1625 -1.0405
   70SLPC   H6Y 6063   2.828   3.462   9.839 -0.4127  1.0956 -0.7436
   70SLPC   C37 6064   2.981   3.562   9.728  0.0535  0.1001 -0.1007
   70SLPC   H7X 6065   3.046   3.474   9.713 -0.1506 -0.1090  0.2509
   70SLPC   H7Y 6066   3.035   3.658   9.742 -1.4434  1.5367 -3.0578
   70SLPC   C38 6067   2.898   3.576   9.601 -0.0094  0.3238 -0.2883
   70SLPC   H8X 6068   2.807   3.638   9.616 -0.0315 -0.2036  2.2040
   70SLPC   H8Y 6069   2.860   3.479   9.562  1.2576  0.1809 -1.2486
   70SLPC   C39 6070   2.985   3.650   9.496  0.3515  0.6522  0.5056
   70SLPC   H9X 6071   3.086   3.604   9.480 -0.3651 -0.7708 -0.1222
   70SLPC   H9Y 6072   3.002   3.756   9.524  3.1190  0.6930 -0.8902
   70SLPC  C310 6073   2.911   3.657   9.360  0.7964 -0.2553 -0.1101
   70SLPC  H10X 6074   2.817   3.714   9.372 -0.6422 -3.0058  3.3695
   70SLPC  H10Y 6075   2.879   3.555   9.331  2.0450 -0.0770 -2.3619
   70SLPC  C311 6076   2.998   3.708   9.245  0.2995  0.0294 -0.6364
   70SLPC  H11X 6077   3.086   3.641   9.247 -0.0897 -0.5620 -2.0620
   70SLPC  H11Y 6078   3.029   3.813   9.267  0.0502 -0.0011 -0.1313
   70SLPC  C312 6079   2.937   3.692   9.104 -0.7480  0.0465  0.3213
   70SLPC  H12X 6080   2.867   3.769   9.066 -1.0598 -0.6577 -0.5757
   70SLPC  H12Y 6081   2.874   3.601   9.098 -3.0313  1.3761  2.4222
   70SLPC  C313 6082   3.049   3.656   9.012  0.2690  0.3912 -0.1699
   70SLPC  H13X 6083   3.109   3.571   9.050  1.2476  1.5898  1.0742
   70SLPC  H13Y 6084   3.123   3.739   9.011  0.8623 -0.1137  0.6389
   70SLPC  C314 6085   3.012   3.619   8.866  0.4035  0.4868  0.1555
   70SLPC  H14X 6086   2.937   3.688   8.822 -0.4358 -0.3249  0.2975
   70SLPC  H14Y 6087   2.967   3.518   8.860 -0.4583  0.9024 -0.6410
   70SLPC  C315 6088   3.137   3.623   8.774  0.3499 -0.1532  0.5045
   70SLPC  H15X 6089   3.212   3.546   8.801  1.4483  1.1340  1.2238
   70SLPC  H15Y 6090   3.183   3.723   8.789 -2.9386  1.3075  1.8748
   70SLPC  C316 6091   3.097   3.612   8.623 -0.1315 -0.3322  0.2791
   70SLPC  H16X 6092   3.180   3.647   8.558  0.9621  1.5358  2.5581
   70SLPC  H16Y 6093   3.006   3.675   8.610 -0.4298 -0.8296 -0.1127
   70SLPC  C317 6094   3.043   3.471   8.587 -0.4940  0.8331 -0.0305
   70SLPC  H17X 6095   2.999   3.480   8.486  1.7989 -1.4335 -1.3587
   70SLPC  H17Y 6096   2.959   3.447   8.657 -1.1093  2.5293 -0.1363
   70SLPC  C318 6097   3.153   3.366   8.558  0.4666 -0.6484  0.1416
   70SLPC  H18X 6098   3.224   3.345   8.641  1.7062  3.8753  0.5311
   70SLPC  H18Y 6099   3.207   3.396   8.466 -0.0382  0.1106  0.0795
   70SLPC  H18Z 6100   3.098   3.274   8.531 -3.2265  1.6628 -1.0071
   71SLPC     N 6101   2.047   2.500  11.151  0.0962 -0.5283  0.0727
   71SLPC   C13 6102   2.131   2.606  11.218 -0.1311 -0.3915 -0.5630
   71SLPC  H13A 6103   2.074   2.698  11.214  0.2941 -0.1356 -0.7979
   71SLPC  H13B 6104   2.145   2.572  11.319  1.0109  0.0574 -0.5524
   71SLPC  H13C 6105   2.230   2.610  11.174 -0.0426 -2.0702 -0.5979
   71SLPC   C14 6106   1.913   2.522  11.205 -0.3602  0.3295 -0.6181
   71SLPC  H14A 6107   1.835   2.473  11.148 -0.7964 -1.1091  1.1247
   71SLPC  H14B 6108   1.915   2.497  11.310  0.3873  1.4345 -0.3473
   71SLPC  H14C 6109   1.884   2.626  11.201 -2.1516 -0.1641 -1.1089
   71SLPC   C15 6110   2.103   2.361  11.164 -0.0300 -0.5496 -0.0383
   71SLPC  H15A 6111   2.205   2.364  11.129  0.0916 -2.1528  0.1201
   71SLPC  H15B 6112   2.110   2.329  11.267  0.4452  2.5457  1.0207
   71SLPC  H15C 6113   2.056   2.291  11.098 -2.9974  2.0430 -0.9466
   71SLPC   C12 6114   2.039   2.533  11.003  0.8553 -0.2575 -0.1887
   71SLPC  H12A 6115   1.995   2.631  10.993  1.1026  0.0811  1.6216
   71SLPC  H12B 6116   1.983   2.452  10.960  0.3080 -0.6853  1.2744
   71SLPC   C11 6117   2.168   2.544  10.913  0.1422  0.8091 -0.2833
   71SLPC  H11A 6118   2.246   2.609  10.957  0.2079  1.5628 -1.4575
   71SLPC  H11B 6119   2.129   2.592  10.821  1.7251 -1.4018 -2.2369
   71SLPC     P 6120   2.172   2.318  10.768 -0.2138  0.1119  0.3842
   71SLPC   O13 6121   2.267   2.212  10.762  0.3447 -0.1552  0.0245
   71SLPC   O14 6122   2.034   2.281  10.804 -0.1931  0.3571  0.1944
   71SLPC   O12 6123   2.225   2.419  10.872  0.5919 -0.8568 -0.4396
   71SLPC   O11 6124   2.161   2.407  10.640  0.3553  0.5066  0.1554
   71SLPC    C1 6125   2.273   2.451  10.566 -0.2670 -0.3626 -0.1786
   71SLPC    HA 6126   2.367   2.415  10.614 -0.3440 -0.7232 -0.2982
   71SLPC    HB 6127   2.270   2.405  10.465 -0.9173 -0.6171 -0.0515
   71SLPC    C2 6128   2.266   2.603  10.545 -0.0783 -0.1225 -0.1073
   71SLPC    HS 6129   2.234   2.652  10.639  0.8426 -0.3555  0.3335
   71SLPC   O21 6130   2.162   2.630  10.443  0.1526  0.1193  0.6299
   71SLPC   C21 6131   2.125   2.744  10.416 -0.3607 -0.6487 -0.3384
   71SLPC   O22 6132   2.157   2.846  10.478 -0.2905 -0.0734 -0.4776
   71SLPC   C22 6133   2.050   2.745  10.280  0.4938 -0.1207  0.6121
   71SLPC   H2R 6134   2.116   2.699  10.203  2.9523  0.3178  2.3169
   71SLPC   H2S 6135   1.971   2.669  10.301  1.6026 -0.5209  3.9987
   71SLPC    C3 6136   2.400   2.667  10.505  0.3382 -0.1315  0.1843
   71SLPC    HX 6137   2.463   2.652  10.595  1.2175 -1.2569 -0.6081
   71SLPC    HY 6138   2.399   2.778  10.493  4.5164  0.0186 -0.3200
   71SLPC   O31 6139   2.454   2.598  10.390 -0.0821 -0.3405 -0.8281
   71SLPC   C31 6140   2.435   2.659  10.273 -0.3261  0.5311 -0.7890
   71SLPC   O32 6141   2.393   2.769  10.256 -0.7405 -0.2329  0.5228
   71SLPC   C32 6142   2.492   2.579  10.157  0.1227  0.5428  0.2656
   71SLPC   H2X 6143   2.435   2.484  10.159 -1.1484  1.2800  0.4347
   71SLPC   H2Y 6144   2.596   2.564  10.193  0.6842  1.2756 -0.9775
   71SLPC   C23 6145   1.984   2.872  10.229 -0.4031  0.3369 -0.2869
   71SLPC   H3R 6146   2.042   2.966  10.244 -1.0810  0.7537 -0.2227
   71SLPC   H3S 6147   1.895   2.892  10.293 -0.3019  1.9761 -0.6060
   71SLPC   C24 6148   1.938   2.875  10.087  0.2313  0.1148  0.3796
   71SLPC   H4R 6149   1.868   2.960  10.072  1.0780  0.7221 -0.2393
   71SLPC   H4S 6150   1.879   2.785  10.059 -0.6390  1.2145 -1.5409
   71SLPC   C25 6151   2.052   2.903   9.989  0.1267  0.0125 -0.2355
   71SLPC   H5R 6152   2.142   2.838  10.004  0.7130  0.3222 -2.1234
   71SLPC   H5S 6153   2.094   3.003  10.011  1.0148 -0.8895  2.6815
   71SLPC   C26 6154   1.996   2.905   9.847 -0.5182 -0.0184  0.3769
   71SLPC   H6R 6155   1.921   2.824   9.835  0.6344 -1.2809  1.3798
   71SLPC   H6S 6156   2.082   2.888   9.779 -0.2732 -0.9588  0.9001
   71SLPC   C27 6157   1.934   3.041   9.806  0.4313 -0.2097  0.2268
   71SLPC   H7R 6158   2.004   3.121   9.838 -1.2386  1.8747 -1.0934
   71SLPC   H7S 6159   1.835   3.054   9.856  0.2568 -0.5462 -0.0286
   71SLPC   C28 6160   1.909   3.066   9.656  0.3782  0.0599 -0.0104
   71SLPC   H8R 6161   2.006   3.095   9.611  0.0835  2.4742  0.7781
   71SLPC   H8S 6162   1.841   3.153   9.642  1.9652  1.3450 -0.0312
   71SLPC   C29 6163   1.846   2.958   9.572 -0.5118 -0.1560  0.4437
   71SLPC   H9R 6164   1.845   2.862   9.625 -0.0675 -0.1270  0.5078
   71SLPC  C210 6165   1.794   2.958   9.447 -0.8219 -0.1638 -0.3364
   71SLPC  H10R 6166   1.761   2.862   9.405  0.0519 -0.6342  0.0540
   71SLPC  C211 6167   1.793   3.079   9.353  0.2797  0.7020  0.4730
   71SLPC  H11R 6168   1.818   3.051   9.248 -2.5489 -1.4513  0.2492
   71SLPC  H11S 6169   1.878   3.142   9.387  0.2363  2.4717 -2.3883
   71SLPC  C212 6170   1.667   3.155   9.352  0.3552 -0.3620  0.9835
   71SLPC  H12R 6171   1.591   3.133   9.429 -1.7187  0.0823 -0.8627
   71SLPC  C213 6172   1.628   3.246   9.271 -0.0443 -0.0486  0.4416
   71SLPC  H13R 6173   1.531   3.294   9.294 -0.7579 -1.3545  0.2269
   71SLPC  C214 6174   1.710   3.305   9.159  0.2374  0.1585  0.5515
   71SLPC  H14R 6175   1.818   3.287   9.177  0.3889  0.8409  0.3448
   71SLPC  H14S 6176   1.686   3.412   9.147 -2.0008 -0.3008  0.4409
   71SLPC  C215 6177   1.672   3.244   9.024  0.1640  0.0309  0.4051
   71SLPC  H15R 6178   1.562   3.261   9.014  0.0925 -0.4632  0.3064
   71SLPC  H15S 6179   1.681   3.133   9.017 -0.7382 -0.0669  0.6562
   71SLPC  C216 6180   1.754   3.308   8.910  0.6624 -1.3163  0.5114
   71SLPC  H16R 6181   1.858   3.284   8.941  0.7731  0.0786  1.2884
   71SLPC  H16S 6182   1.725   3.415   8.917  1.1977 -1.2294  1.6237
   71SLPC  C217 6183   1.705   3.262   8.768 -0.1941  0.2098  0.3867
   71SLPC  H17R 6184   1.722   3.348   8.700 -1.5184 -1.5500 -2.2967
   71SLPC  H17S 6185   1.597   3.245   8.749  0.3475 -1.1894 -1.7237
   71SLPC  C218 6186   1.802   3.156   8.705  0.0378  0.4066 -0.0471
   71SLPC  H18R 6187   1.790   3.049   8.736 -0.3873  0.3821 -0.2850
   71SLPC  H18S 6188   1.904   3.180   8.741  0.1608  2.9125 -1.8375
   71SLPC  H18T 6189   1.803   3.156   8.594  1.0605 -1.6792 -0.0966
   71SLPC   C33 6190   2.484   2.635  10.019  0.2625 -0.1851  0.2973
   71SLPC   H3X 6191   2.561   2.587   9.953 -0.1214 -2.9921  1.7423
   71SLPC   H3Y 6192   2.484   2.745  10.009 -0.3718  0.0761  2.7299
   71SLPC   C34 6193   2.356   2.595   9.941 -0.2359  0.2510  0.0633
   71SLPC   H4X 6194   2.272   2.613  10.011  0.1793 -0.0837  0.6564
   71SLPC   H4Y 6195   2.356   2.489   9.910  0.1509 -0.3094  1.8397
   71SLPC   C35 6196   2.326   2.679   9.815 -0.7297  0.0395  0.0123
   71SLPC   H5X 6197   2.323   2.787   9.839  1.0585  0.3426 -1.0002
   71SLPC   H5Y 6198   2.225   2.647   9.778 -0.8559  1.2386 -0.7485
   71SLPC   C36 6199   2.423   2.665   9.688  0.6875 -0.1536  0.3158
   71SLPC   H6X 6200   2.461   2.562   9.706 -2.5978 -1.1298  2.5857
   71SLPC   H6Y 6201   2.513   2.725   9.711  0.8663 -0.5412  0.6476
   71SLPC   C37 6202   2.360   2.667   9.549 -0.9757  0.3309 -0.3820
   71SLPC   H7X 6203   2.447   2.624   9.493  0.3073  1.3137  0.7910
   71SLPC   H7Y 6204   2.341   2.768   9.507 -1.1260  0.6674  0.4783
   71SLPC   C38 6205   2.234   2.584   9.529  0.3341  0.1796  0.2446
   71SLPC   H8X 6206   2.144   2.640   9.559  1.7981  2.7927  0.0309
   71SLPC   H8Y 6207   2.244   2.503   9.605  2.1496 -1.9423 -2.0559
   71SLPC   C39 6208   2.213   2.515   9.385  0.0780 -0.3085  0.4621
   71SLPC   H9X 6209   2.107   2.499   9.358  0.6293 -0.6157 -1.6711
   71SLPC   H9Y 6210   2.269   2.419   9.382  1.5083  0.5005  0.4824
   71SLPC  C310 6211   2.265   2.615   9.275 -0.2361 -0.3827  0.2473
   71SLPC  H10X 6212   2.374   2.618   9.294 -0.6047 -1.6966  3.1150
   71SLPC  H10Y 6213   2.225   2.719   9.280 -2.3028 -1.1290  0.3745
   71SLPC  C311 6214   2.242   2.556   9.141  0.3646 -0.5305 -0.2409
   71SLPC  H11X 6215   2.139   2.521   9.117  0.3458 -0.2643 -0.5658
   71SLPC  H11Y 6216   2.305   2.465   9.141  1.2343  0.0585 -0.0931
   71SLPC  C312 6217   2.274   2.663   9.025 -0.8562 -0.3297 -0.0313
   71SLPC  H12X 6218   2.376   2.699   9.052 -0.8283 -0.1642 -0.3529
   71SLPC  H12Y 6219   2.196   2.742   9.033 -1.8283 -1.0370 -2.0602
   71SLPC  C313 6220   2.267   2.596   8.892 -0.4230 -0.5874 -0.1509
   71SLPC  H13X 6221   2.338   2.511   8.887 -0.1069 -0.2743 -1.2785
   71SLPC  H13Y 6222   2.317   2.668   8.823  1.7446 -1.1511  0.7490
   71SLPC  C314 6223   2.130   2.569   8.840  0.3079  0.1383  0.3889
   71SLPC  H14X 6224   2.062   2.656   8.849  1.5213  1.1679 -0.0269
   71SLPC  H14Y 6225   2.070   2.491   8.892 -1.0912 -0.8074 -2.4697
   71SLPC  C315 6226   2.137   2.527   8.693 -0.1141 -0.1306  0.3807
   71SLPC  H15X 6227   2.165   2.615   8.631 -0.4128 -0.2832  0.0271
   71SLPC  H15Y 6228   2.029   2.505   8.680 -0.4355  2.0127 -1.1629
   71SLPC  C316 6229   2.222   2.405   8.662  0.6369 -0.7243  0.2666
   71SLPC  H16X 6230   2.214   2.349   8.758 -1.3758  2.2797  2.0107
   71SLPC  H16Y 6231   2.330   2.431   8.649  1.1504 -3.0738 -0.6116
   71SLPC  C317 6232   2.178   2.315   8.549 -0.2526  0.2651 -0.2434
   71SLPC  H17X 6233   2.237   2.221   8.548 -1.5675 -0.5925  0.3726
   71SLPC  H17Y 6234   2.179   2.366   8.450 -1.9978 -0.8570 -0.8810
   71SLPC  C318 6235   2.032   2.265   8.557 -0.3041 -0.3179  0.8959
   71SLPC  H18X 6236   2.021   2.192   8.475 -0.3486 -0.3248  0.9074
   71SLPC  H18Y 6237   1.956   2.345   8.543 -1.1749 -1.0148  1.4647
   71SLPC  H18Z 6238   2.001   2.217   8.653 -0.8093 -0.9358  0.4340
   72SLPC     N 6239   5.491   2.524  10.933 -0.7462  0.4892  0.8353
   72SLPC   C13 6240   5.560   2.410  10.997 -0.4361  0.5983  0.3666
   72SLPC  H13A 6241   5.667   2.421  11.006 -0.4383  0.2294  0.8676
   72SLPC  H13B 6242   5.510   2.386  11.089  1.4455  0.7261  1.4555
   72SLPC  H13C 6243   5.545   2.325  10.931 -0.7495 -0.2784  1.5447
   72SLPC   C14 6244   5.533   2.638  11.019  0.6757  0.5506 -1.3155
   72SLPC  H14A 6245   5.525   2.732  10.965  2.1990  0.8592 -1.0508
   72SLPC  H14B 6246   5.468   2.643  11.106 -0.4106 -1.9534 -1.9044
   72SLPC  H14C 6247   5.638   2.628  11.039  0.7810  1.2227 -1.5103
   72SLPC   C15 6248   5.336   2.482  10.961 -0.1728 -0.3722 -0.2839
   72SLPC  H15A 6249   5.298   2.408  10.892 -0.0497 -1.6422  0.9799
   72SLPC  H15B 6250   5.330   2.449  11.063 -0.3043  1.5071  0.3629
   72SLPC  H15C 6251   5.275   2.569  10.937 -0.3158 -0.0194  1.2416
   72SLPC   C12 6252   5.525   2.548  10.787 -0.6363  0.6969 -0.6301
   72SLPC  H12A 6253   5.484   2.640  10.746 -1.3549 -0.4292 -2.5682
   72SLPC  H12B 6254   5.484   2.469  10.726 -0.4035 -0.1603  0.3022
   72SLPC   C11 6255   5.677   2.545  10.744  1.0422 -0.3890 -0.2566
   72SLPC  H11A 6256   5.722   2.628  10.804  0.4616  0.1629 -0.5679
   72SLPC  H11B 6257   5.685   2.584  10.640  0.6493  0.3154 -0.0302
   72SLPC     P 6258   5.697   2.293  10.683 -0.4837 -0.1906  0.2812
   72SLPC   O13 6259   5.821   2.229  10.632  0.0512 -0.2925 -0.6073
   72SLPC   O14 6260   5.609   2.211  10.763  0.3759 -0.2229  0.7151
   72SLPC   O12 6261   5.738   2.421  10.763  0.0990  0.0326  0.2809
   72SLPC   O11 6262   5.608   2.350  10.572 -0.6588 -0.1400 -0.1804
   72SLPC    C1 6263   5.599   2.292  10.437 -0.3735 -0.5143  0.1186
   72SLPC    HA 6264   5.674   2.345  10.375 -0.3010 -0.5622  0.1652
   72SLPC    HB 6265   5.615   2.182  10.431 -0.7336 -0.6189  0.9196
   72SLPC    C2 6266   5.464   2.311  10.365 -0.1083  0.3163 -0.0281
   72SLPC    HS 6267   5.396   2.228  10.391 -0.7598  0.2156 -1.9124
   72SLPC   O21 6268   5.492   2.327  10.223 -0.6622  0.0039  0.0131
   72SLPC   C21 6269   5.395   2.265  10.149 -0.2383  0.5342  0.3830
   72SLPC   O22 6270   5.306   2.196  10.189 -0.2009  0.3144  0.0117
   72SLPC   C22 6271   5.397   2.337  10.012  0.2971  0.5114  0.4536
   72SLPC   H2R 6272   5.376   2.443  10.036  0.7106  1.3350 -2.3764
   72SLPC   H2S 6273   5.502   2.333   9.975  0.6620  0.4795  1.4607
   72SLPC    C3 6274   5.385   2.438  10.409  0.2684  0.3086 -0.1278
   72SLPC    HX 6275   5.442   2.529  10.380  0.4022  0.7592  1.4579
   72SLPC    HY 6276   5.388   2.435  10.520  0.8655 -0.7924 -0.1511
   72SLPC   O31 6277   5.247   2.424  10.358 -0.3378 -0.2237  0.1726
   72SLPC   C31 6278   5.174   2.537  10.388  0.0234 -0.2734  1.1488
   72SLPC   O32 6279   5.214   2.636  10.447  0.7671  0.7715 -0.3471
   72SLPC   C32 6280   5.027   2.506  10.347 -0.3320  0.4626 -0.0981
   72SLPC   H2X 6281   4.972   2.507  10.443 -0.3879  0.7738 -0.1330
   72SLPC   H2Y 6282   5.007   2.402  10.315 -0.4934  0.6926 -0.7769
   72SLPC   C23 6283   5.313   2.261   9.900 -0.1316  0.2268 -0.7807
   72SLPC   H3R 6284   5.211   2.262   9.943 -0.2627 -0.4255 -1.0590
   72SLPC   H3S 6285   5.361   2.161   9.901  1.9996  1.1873  0.3260
   72SLPC   C24 6286   5.326   2.324   9.762 -0.1030  0.4787 -0.3703
   72SLPC   H4R 6287   5.431   2.321   9.728  0.4387 -0.7676  1.2946
   72SLPC   H4S 6288   5.307   2.432   9.782 -0.6176  0.1955  0.7708
   72SLPC   C25 6289   5.231   2.253   9.672 -0.7597  0.1583  0.9007
   72SLPC   H5R 6290   5.130   2.277   9.712  0.5701  0.5892  4.3375
   72SLPC   H5S 6291   5.254   2.145   9.670  2.7899  0.7973 -1.1315
   72SLPC   C26 6292   5.247   2.295   9.519  1.0018 -0.2542  0.7239
   72SLPC   H6R 6293   5.353   2.302   9.488 -0.1287  1.0519 -3.4949
   72SLPC   H6S 6294   5.202   2.396   9.518  2.2662  0.3626  2.3027
   72SLPC   C27 6295   5.170   2.195   9.429  0.6294 -0.4554 -0.0098
   72SLPC   H7R 6296   5.061   2.195   9.446  0.3448 -0.5892 -1.6773
   72SLPC   H7S 6297   5.202   2.098   9.473  0.2970 -0.8378 -0.5994
   72SLPC   C28 6298   5.208   2.183   9.277 -0.3631 -0.4070 -0.4215
   72SLPC   H8R 6299   5.147   2.100   9.236 -0.5514 -0.7107  0.4560
   72SLPC   H8S 6300   5.317   2.163   9.268 -0.2234 -0.0298  0.3288
   72SLPC   C29 6301   5.195   2.301   9.197  0.5790 -0.1295 -0.2155
   72SLPC   H9R 6302   5.265   2.383   9.215  0.9620 -0.6876  0.9187
   72SLPC  C210 6303   5.106   2.314   9.103 -0.1121  0.3048  0.7298
   72SLPC  H10R 6304   5.121   2.403   9.039  0.0130  0.3882  0.8747
   72SLPC  C211 6305   5.000   2.218   9.048 -0.0729 -0.0393 -0.2533
   72SLPC  H11R 6306   4.910   2.276   9.019 -0.9072 -1.3927 -0.4941
   72SLPC  H11S 6307   4.946   2.166   9.130  4.1182 -1.9451  1.6196
   72SLPC  C212 6308   5.030   2.112   8.947  0.0247  0.4962  0.1335
   72SLPC  H12R 6309   5.030   2.008   8.982  0.8747  0.7610  0.9809
   72SLPC  C213 6310   5.056   2.133   8.817  0.4692  0.1625  0.2488
   72SLPC  H13R 6311   5.087   2.051   8.751  0.0741  0.4991 -0.3697
   72SLPC  C214 6312   5.065   2.266   8.747 -0.6077  0.1841 -0.1423
   72SLPC  H14R 6313   5.168   2.273   8.705 -1.1768 -0.9640 -1.8369
   72SLPC  H14S 6314   5.040   2.337   8.829 -0.6833  0.0915 -0.0853
   72SLPC  C215 6315   4.962   2.276   8.638  0.2920  0.8683 -0.2230
   72SLPC  H15R 6316   4.956   2.182   8.579  2.9594  0.2568  0.3362
   72SLPC  H15S 6317   4.979   2.369   8.580 -0.3002  1.8938  1.1874
   72SLPC  C216 6318   4.814   2.297   8.687 -0.5377  0.1881  0.0875
   72SLPC  H16R 6319   4.801   2.374   8.766  2.1401  0.7093  0.1421
   72SLPC  H16S 6320   4.779   2.200   8.727 -0.8670  0.5986  0.8169
   72SLPC  C217 6321   4.726   2.338   8.568 -0.2154  0.0544  0.0553
   72SLPC  H17R 6322   4.742   2.447   8.554 -0.7331  0.6037  2.9239
   72SLPC  H17S 6323   4.624   2.330   8.611 -0.8121 -1.7824 -1.6125
   72SLPC  C218 6324   4.728   2.262   8.435 -0.1285 -0.4914 -0.2289
   72SLPC  H18R 6325   4.646   2.274   8.361 -0.3779 -0.1849  0.0918
   72SLPC  H18S 6326   4.733   2.152   8.450 -2.2851 -0.1808  4.2196
   72SLPC  H18T 6327   4.826   2.289   8.390  2.3191  0.5653  4.9916
   72SLPC   C33 6328   4.981   2.595  10.233  0.2877  0.8940  0.1753
   72SLPC   H3X 6329   4.999   2.704  10.248  2.9963  1.1178 -3.3757
   72SLPC   H3Y 6330   4.878   2.571  10.200  0.5243  1.8456 -1.3527
   72SLPC   C34 6331   5.065   2.573  10.107 -0.0584  0.7719  0.1433
   72SLPC   H4X 6332   5.069   2.464  10.084 -0.9910  0.6178  0.6380
   72SLPC   H4Y 6333   5.167   2.615  10.126  1.6225 -3.2501  1.1082
   72SLPC   C35 6334   4.995   2.649   9.985 -0.2890  0.1673 -0.2495
   72SLPC   H5X 6335   4.969   2.754  10.011 -1.6867 -0.7799  2.6806
   72SLPC   H5Y 6336   4.899   2.596   9.971  0.3993 -0.5335 -2.7065
   72SLPC   C36 6337   5.067   2.620   9.853 -0.0227 -0.0041 -0.5654
   72SLPC   H6X 6338   5.058   2.512   9.828  0.4394 -0.5693  1.4595
   72SLPC   H6Y 6339   5.169   2.661   9.862 -0.3157  0.3061  2.7658
   72SLPC   C37 6340   5.005   2.683   9.726  0.0996 -0.6431 -0.2512
   72SLPC   H7X 6341   4.991   2.793   9.734  1.4088 -0.2607 -2.2728
   72SLPC   H7Y 6342   4.907   2.634   9.710  0.3424 -0.8887 -1.0598
   72SLPC   C38 6343   5.084   2.653   9.595 -0.2725 -0.1267 -0.7101
   72SLPC   H8X 6344   5.086   2.542   9.581 -0.8655 -0.6716  2.5773
   72SLPC   H8Y 6345   5.185   2.696   9.612  0.1776 -1.2687 -0.4151
   72SLPC   C39 6346   5.039   2.735   9.478 -0.5116  0.2433  0.7604
   72SLPC   H9X 6347   5.048   2.844   9.498  0.9953 -0.0796  2.0463
   72SLPC   H9Y 6348   4.932   2.719   9.453  0.1720 -1.2408 -1.6308
   72SLPC  C310 6349   5.129   2.693   9.356  0.3118 -0.1877 -0.0095
   72SLPC  H10X 6350   5.132   2.584   9.337  3.4273  0.2375 -3.1157
   72SLPC  H10Y 6351   5.238   2.705   9.371  0.1202 -0.1203  1.5410
   72SLPC  C311 6352   5.088   2.767   9.229  0.3275  0.6616  0.2558
   72SLPC  H11X 6353   5.160   2.767   9.144  0.5529 -0.9958  0.4118
   72SLPC  H11Y 6354   5.052   2.868   9.259 -1.9755  0.3382 -1.1035
   72SLPC  C312 6355   4.974   2.686   9.156 -0.3610  0.2149  0.3526
   72SLPC  H12X 6356   4.880   2.697   9.214 -1.5293  1.5657 -1.6467
   72SLPC  H12Y 6357   5.003   2.581   9.139  1.7853  0.9813 -1.2629
   72SLPC  C313 6358   4.939   2.724   9.000  0.1943  0.6040  0.2160
   72SLPC  H13X 6359   4.979   2.825   8.980  1.3572  0.3655  1.1823
   72SLPC  H13Y 6360   4.831   2.707   8.980  0.3592  0.8924 -0.9812
   72SLPC  C314 6361   5.026   2.642   8.898 -0.7521  0.1483  0.5030
   72SLPC  H14X 6362   4.996   2.535   8.903  0.5876 -0.2673 -0.0628
   72SLPC  H14Y 6363   5.133   2.649   8.926 -0.9919  0.9052  1.2498
   72SLPC  C315 6364   5.018   2.699   8.752 -0.0513  0.1260 -0.4732
   72SLPC  H15X 6365   5.098   2.641   8.702 -0.6066 -2.0957  1.0785
   72SLPC  H15Y 6366   5.048   2.807   8.754 -0.4436  0.2387  1.6396
   72SLPC  C316 6367   4.868   2.685   8.691  0.0101 -0.5228 -0.8752
   72SLPC  H16X 6368   4.799   2.735   8.763  1.3464  0.1487 -0.0209
   72SLPC  H16Y 6369   4.856   2.575   8.685 -1.5119 -0.3698 -1.0188
   72SLPC  C317 6370   4.862   2.768   8.562  0.4019  0.1512 -0.1046
   72SLPC  H17X 6371   4.901   2.870   8.583  3.0726 -1.2417  2.3938
   72SLPC  H17Y 6372   4.755   2.772   8.532  0.4049  1.7912 -0.0274
   72SLPC  C318 6373   4.937   2.690   8.451  0.1768 -0.3038  0.9167
   72SLPC  H18X 6374   5.043   2.670   8.478  1.4416  2.8466 -1.0707
   72SLPC  H18Y 6375   4.934   2.749   8.356 -2.3349  4.0601  3.3638
   72SLPC  H18Z 6376   4.887   2.592   8.441 -1.1059  0.5414 -2.4800
   73SLPC     N 6377   4.605   0.104  11.044  0.1085  0.5089  0.3442
   73SLPC   C13 6378   4.586  -0.043  11.019 -0.2498  0.0767  0.5952
   73SLPC  H13A 6379   4.600  -0.101  11.110  0.6480 -1.0032 -0.2083
   73SLPC  H13B 6380   4.491  -0.067  10.974  1.1929 -0.9714 -2.0951
   73SLPC  H13C 6381   4.664  -0.075  10.952 -0.7498  0.5259 -0.2148
   73SLPC   C14 6382   4.654   0.160  10.916  0.0065  0.0796  0.0442
   73SLPC  H14A 6383   4.667   0.267  10.919 -0.3748  0.1048  2.0155
   73SLPC  H14B 6384   4.741   0.104  10.885  0.7476  0.8538  0.7049
   73SLPC  H14C 6385   4.570   0.146  10.848  1.4245 -1.2324 -1.5169
   73SLPC   C15 6386   4.712   0.124  11.151 -0.2528  0.4194 -0.2660
   73SLPC  H15A 6387   4.725   0.226  11.183 -1.4805  0.2843  0.7089
   73SLPC  H15B 6388   4.685   0.073  11.242  1.7174 -1.9311 -0.8807
   73SLPC  H15C 6389   4.809   0.084  11.125 -0.0912 -0.7593  1.9304
   73SLPC   C12 6390   4.479   0.164  11.093 -0.0000  0.3697  0.6727
   73SLPC  H12A 6391   4.498   0.267  11.123 -0.2022  1.0217 -1.3121
   73SLPC  H12B 6392   4.447   0.124  11.188 -0.2540  0.1324  0.4871
   73SLPC   C11 6393   4.362   0.160  10.998  0.1445 -0.2158  0.6944
   73SLPC  H11A 6394   4.266   0.185  11.047 -0.0734  0.5483 -0.0945
   73SLPC  H11B 6395   4.353   0.057  10.958 -0.4467 -0.3424  1.1424
   73SLPC     P 6396   4.315   0.386  10.887  0.0643 -0.0456  0.2542
   73SLPC   O13 6397   4.304   0.438  11.026  0.2903  0.6872 -0.2218
   73SLPC   O14 6398   4.396   0.462  10.786 -0.1785 -0.3592 -0.2444
   73SLPC   O12 6399   4.379   0.243  10.884 -0.0150  0.4735 -0.1714
   73SLPC   O11 6400   4.182   0.352  10.818  0.3597  0.0795  0.0819
   73SLPC    C1 6401   4.154   0.256  10.712 -0.5856  0.3030  0.7881
   73SLPC    HA 6402   4.174   0.152  10.746 -2.4799  0.0609  1.2924
   73SLPC    HB 6403   4.045   0.252  10.690 -0.4789 -3.2261  0.3303
   73SLPC    C2 6404   4.226   0.276  10.573 -0.5945 -0.3298  0.1505
   73SLPC    HS 6405   4.333   0.269  10.603  0.1882 -0.8412 -2.4731
   73SLPC   O21 6406   4.193   0.402  10.523  0.5977 -0.0381  0.9440
   73SLPC   C21 6407   4.280   0.469  10.448 -0.5595  0.1325  0.8608
   73SLPC   O22 6408   4.393   0.435  10.423 -0.0439  0.8740  0.0110
   73SLPC   C22 6409   4.212   0.588  10.394  0.1630  0.6136  0.2850
   73SLPC   H2R 6410   4.104   0.581  10.419  0.0306  1.3982 -0.0551
   73SLPC   H2S 6411   4.259   0.675  10.445 -1.0776  1.6047 -0.2392
   73SLPC    C3 6412   4.184   0.158  10.471  0.0278  0.6114  0.1860
   73SLPC    HX 6413   4.073   0.163  10.470 -0.1668 -2.1570  0.7479
   73SLPC    HY 6414   4.219   0.061  10.513 -0.0536  0.5560  0.1255
   73SLPC   O31 6415   4.223   0.175  10.328  0.5404  0.4698 -0.4852
   73SLPC   C31 6416   4.342   0.117  10.296 -0.6333  0.1028  0.6681
   73SLPC   O32 6417   4.397   0.028  10.361 -0.4265 -0.0369 -0.1154
   73SLPC   C32 6418   4.372   0.155  10.146  0.5020 -0.5254 -0.4447
   73SLPC   H2X 6419   4.327   0.253  10.119 -1.5650 -1.4724 -0.5533
   73SLPC   H2Y 6420   4.321   0.074  10.090  0.1617  0.0311 -0.9536
   73SLPC   C23 6421   4.221   0.605  10.237  0.1998 -0.1420 -0.1982
   73SLPC   H3R 6422   4.328   0.621  10.211  0.7980 -1.6134  1.2003
   73SLPC   H3S 6423   4.180   0.705  10.213 -0.2092  0.3509  2.2554
   73SLPC   C24 6424   4.145   0.503  10.153  0.4187  0.0589  0.7172
   73SLPC   H4R 6425   4.041   0.485  10.188  0.6588 -0.8244  0.9967
   73SLPC   H4S 6426   4.195   0.406  10.171  2.6664  1.2850  1.4879
   73SLPC   C25 6427   4.140   0.556  10.010  0.5805 -0.1314  0.1521
   73SLPC   H5R 6428   4.152   0.666  10.001 -0.0221 -0.1775 -1.7997
   73SLPC   H5S 6429   4.039   0.548   9.964 -0.0244 -1.1670  1.5921
   73SLPC   C26 6430   4.248   0.496   9.917  0.3405  0.9862 -0.8596
   73SLPC   H6R 6431   4.246   0.385   9.922 -1.6265  0.9641 -1.4770
   73SLPC   H6S 6432   4.350   0.528   9.947  0.8598 -0.5541 -0.9275
   73SLPC   C27 6433   4.263   0.542   9.770  0.6744  0.6395 -0.0112
   73SLPC   H7R 6434   4.352   0.491   9.727 -0.3506 -0.3187 -1.0677
   73SLPC   H7S 6435   4.278   0.652   9.778  0.0491  0.8398 -1.3364
   73SLPC   C28 6436   4.139   0.505   9.701  0.3237 -0.4389 -0.4415
   73SLPC   H8R 6437   4.131   0.575   9.616 -0.0047 -0.9300 -0.8204
   73SLPC   H8S 6438   4.052   0.542   9.761  0.7386  2.1411 -1.3216
   73SLPC   C29 6439   4.110   0.363   9.665  0.9369 -0.1511  0.3291
   73SLPC   H9R 6440   4.120   0.296   9.752  0.6966 -1.5302 -0.6702
   73SLPC  C210 6441   4.084   0.308   9.544  0.1239  0.2504 -0.2081
   73SLPC  H10R 6442   4.064   0.201   9.529 -0.3604  0.1708  0.9087
   73SLPC  C211 6443   4.076   0.380   9.407 -0.6401 -0.4959 -0.5879
   73SLPC  H11R 6444   3.995   0.455   9.424  0.4198  1.3176 -2.9198
   73SLPC  H11S 6445   4.046   0.306   9.331 -0.5315 -1.7791  0.5807
   73SLPC  C212 6446   4.206   0.454   9.367 -0.0545 -0.0909  0.0842
   73SLPC  H12R 6447   4.300   0.414   9.409 -0.3753 -1.8158 -0.7343
   73SLPC  C213 6448   4.214   0.555   9.281 -0.7154 -0.9268  0.2186
   73SLPC  H13R 6449   4.305   0.617   9.280 -1.3469  0.0824  1.8487
   73SLPC  C214 6450   4.106   0.613   9.199  0.0662 -0.1540  0.0848
   73SLPC  H14R 6451   4.018   0.633   9.264 -0.2890 -3.1829  0.6968
   73SLPC  H14S 6452   4.075   0.548   9.115  1.2390  1.5884 -1.7697
   73SLPC  C215 6453   4.154   0.741   9.135 -0.3621 -0.7833  0.4603
   73SLPC  H15R 6454   4.179   0.807   9.221  0.2824  0.2079 -0.4410
   73SLPC  H15S 6455   4.064   0.787   9.089 -0.0312  0.2241  0.7847
   73SLPC  C216 6456   4.262   0.734   9.016 -0.6502 -0.0016  0.5779
   73SLPC  H16R 6457   4.353   0.683   9.055 -0.8225 -2.1563 -1.6148
   73SLPC  H16S 6458   4.294   0.837   8.991 -0.2094 -0.7032 -1.9610
   73SLPC  C217 6459   4.211   0.650   8.895  0.6722  1.0514 -0.2844
   73SLPC  H17R 6460   4.110   0.667   8.853  0.5506  2.3871  0.5116
   73SLPC  H17S 6461   4.215   0.548   8.938  1.4068  0.8256 -0.8460
   73SLPC  C218 6462   4.314   0.640   8.774 -0.0131 -0.1700 -0.6020
   73SLPC  H18R 6463   4.353   0.738   8.740  0.1261  0.6061  1.6497
   73SLPC  H18S 6464   4.269   0.586   8.688 -0.2909 -2.3947  0.8389
   73SLPC  H18T 6465   4.397   0.574   8.806 -0.3985 -0.4430 -0.1497
   73SLPC   C33 6466   4.525   0.151  10.100 -0.2347  0.2687  0.3520
   73SLPC   H3X 6467   4.582   0.084  10.167  1.2473 -1.4636 -2.4808
   73SLPC   H3Y 6468   4.567   0.254  10.103 -1.7529  0.9269  0.4855
   73SLPC   C34 6469   4.545   0.095   9.960 -0.5239 -0.0986 -0.0882
   73SLPC   H4X 6470   4.535  -0.016   9.956  0.3539 -0.3132  2.3449
   73SLPC   H4Y 6471   4.653   0.108   9.940 -0.2935 -0.2440  1.0352
   73SLPC   C35 6472   4.456   0.167   9.857  0.3069 -0.2555  0.7337
   73SLPC   H5X 6473   4.429   0.272   9.885 -0.8249 -0.4112  0.2852
   73SLPC   H5Y 6474   4.364   0.105   9.857  0.2071 -0.1496 -0.7836
   73SLPC   C36 6475   4.506   0.169   9.708  0.0279 -0.5553 -0.0023
   73SLPC   H6X 6476   4.417   0.199   9.648  0.7883  0.5645 -0.6149
   73SLPC   H6Y 6477   4.535   0.065   9.682 -0.6113 -0.8101  0.3094
   73SLPC   C37 6478   4.624   0.268   9.678  0.5888  0.8025 -0.1706
   73SLPC   H7X 6479   4.714   0.241   9.737  0.5771  3.7700  1.3635
   73SLPC   H7Y 6480   4.611   0.369   9.723  3.6041  1.4491 -0.6090
   73SLPC   C38 6481   4.655   0.291   9.532 -0.0973 -0.1691 -0.6014
   73SLPC   H8X 6482   4.558   0.330   9.494 -0.9364 -0.6547  0.9560
   73SLPC   H8Y 6483   4.679   0.193   9.486  1.7051  0.8526 -1.9522
   73SLPC   C39 6484   4.779   0.381   9.504  0.5785  0.4590 -0.9215
   73SLPC   H9X 6485   4.874   0.326   9.516  0.8069  1.3730  2.7938
   73SLPC   H9Y 6486   4.780   0.458   9.584  2.4212 -1.2347  0.7955
   73SLPC  C310 6487   4.779   0.433   9.362 -0.2351  0.1833 -0.4291
   73SLPC  H10X 6488   4.787   0.345   9.294 -1.1100 -0.9700  0.9064
   73SLPC  H10Y 6489   4.876   0.487   9.354 -1.4815  2.2909 -2.4880
   73SLPC  C311 6490   4.670   0.524   9.310 -0.4317 -0.6646  0.7942
   73SLPC  H11X 6491   4.697   0.623   9.351  3.2967 -2.3860  3.0899
   73SLPC  H11Y 6492   4.574   0.506   9.361 -1.0336 -0.0732 -0.1061
   73SLPC  C312 6493   4.642   0.503   9.160 -0.6941  0.2326 -0.5469
   73SLPC  H12X 6494   4.738   0.470   9.115 -0.6464  0.4788 -0.6288
   73SLPC  H12Y 6495   4.614   0.605   9.124 -0.3698 -0.2734 -2.2842
   73SLPC  C313 6496   4.529   0.408   9.131  0.1540  0.1324 -0.1485
   73SLPC  H13X 6497   4.439   0.470   9.151  0.5804  0.6114  0.3277
   73SLPC  H13Y 6498   4.523   0.321   9.200  1.2384  1.5379  1.8295
   73SLPC  C314 6499   4.521   0.365   8.985  0.1304 -0.3355  0.5492
   73SLPC  H14X 6500   4.617   0.318   8.954  0.5484  1.3427 -0.8466
   73SLPC  H14Y 6501   4.512   0.457   8.924  2.0685  1.0870  2.2468
   73SLPC  C315 6502   4.410   0.257   8.967  0.2339 -0.0789 -0.6742
   73SLPC  H15X 6503   4.322   0.301   9.020  0.9449  0.5906 -0.0197
   73SLPC  H15Y 6504   4.425   0.167   9.031 -3.2473 -0.1028  0.3161
   73SLPC  C316 6505   4.386   0.231   8.814 -0.6468  0.3362 -0.3898
   73SLPC  H16X 6506   4.489   0.235   8.772  0.4735  0.2173  2.1871
   73SLPC  H16Y 6507   4.323   0.314   8.775 -0.2306  1.1323  0.5908
   73SLPC  C317 6508   4.325   0.093   8.796 -0.2514 -0.1306  0.3093
   73SLPC  H17X 6509   4.220   0.105   8.833  0.3982  1.3836  1.8020
   73SLPC  H17Y 6510   4.380   0.024   8.863 -0.2935 -0.9174 -0.4547
   73SLPC  C318 6511   4.321   0.050   8.644  0.3678  0.5417  0.0521
   73SLPC  H18X 6512   4.315  -0.060   8.630  1.4036  0.5294 -0.3266
   73SLPC  H18Y 6513   4.413   0.080   8.590 -0.9029  0.3369 -2.3480
   73SLPC  H18Z 6514   4.230   0.096   8.601 -1.0631  0.5351  2.8197
   74SLPC     N 6515   5.934   1.299  10.735  0.0975  0.1657  0.5364
   74SLPC   C13 6516   5.921   1.346  10.885 -0.3694 -0.0018  0.5264
   74SLPC  H13A 6517   6.015   1.391  10.914 -0.9636  1.3942  0.3750
   74SLPC  H13B 6518   5.846   1.423  10.891  1.0257  1.2563  3.1500
   74SLPC  H13C 6519   5.886   1.268  10.950 -0.4099  0.5901  1.2228
   74SLPC   C14 6520   5.803   1.246  10.692  0.5157  0.4090  0.2145
   74SLPC  H14A 6521   5.805   1.201  10.593 -2.0668  0.2952  0.1431
   74SLPC  H14B 6522   5.774   1.169  10.762  0.0505 -1.7441 -2.1872
   74SLPC  H14C 6523   5.724   1.319  10.679  0.1136 -0.4126 -2.6668
   74SLPC   C15 6524   6.031   1.185  10.724  0.3252 -0.9546  0.1623
   74SLPC  H15A 6525   6.127   1.225  10.755 -0.6415  1.0297  0.7518
   74SLPC  H15B 6526   5.997   1.105  10.788 -1.8123 -0.4480 -0.2897
   74SLPC  H15C 6527   6.025   1.155  10.620 -4.1986  1.6425 -0.5397
   74SLPC   C12 6528   5.974   1.417  10.651  0.0258  0.3493  0.6682
   74SLPC  H12A 6529   5.899   1.490  10.675 -0.9982 -0.2820 -0.4697
   74SLPC  H12B 6530   5.962   1.386  10.548  0.6275 -0.1112  0.7295
   74SLPC   C11 6531   6.121   1.479  10.678 -0.7905 -0.1635  0.1903
   74SLPC  H11A 6532   6.133   1.499  10.787  1.6146  0.5170 -0.1364
   74SLPC  H11B 6533   6.134   1.579  10.633  1.3783 -0.3944  0.1717
   74SLPC     P 6534   6.258   1.390  10.476  0.2835 -0.1453  0.0181
   74SLPC   O13 6535   6.403   1.415  10.454  0.2532  0.0730  0.0478
   74SLPC   O14 6536   6.209   1.267  10.416 -0.7030  0.2266 -1.1952
   74SLPC   O12 6537   6.226   1.386  10.636 -0.3562 -0.8491  0.6453
   74SLPC   O11 6538   6.167   1.513  10.420  0.3706 -0.0156 -0.0076
   74SLPC    C1 6539   6.224   1.590  10.313 -0.2063  0.4807 -0.9117
   74SLPC    HA 6540   6.163   1.682  10.301 -0.4795  0.4326  0.0577
   74SLPC    HB 6541   6.318   1.647  10.330 -0.3029  0.5206 -0.5157
   74SLPC    C2 6542   6.217   1.522  10.173 -0.2943 -0.2587  0.0466
   74SLPC    HS 6543   6.289   1.437  10.167 -1.7418 -1.6224  1.1844
   74SLPC   O21 6544   6.248   1.626  10.076 -0.2915 -0.0890 -0.3095
   74SLPC   C21 6545   6.336   1.596   9.982 -0.1563 -0.2019 -0.4634
   74SLPC   O22 6546   6.398   1.492   9.975  0.2507 -0.2654 -0.1408
   74SLPC   C22 6547   6.350   1.724   9.898  0.8578  0.0687 -0.7638
   74SLPC   H2R 6548   6.255   1.748   9.846  0.2179  3.0939  1.5698
   74SLPC   H2S 6549   6.381   1.802   9.970 -0.4672 -0.6091  0.6034
   74SLPC    C3 6550   6.079   1.474  10.140 -0.0202  0.3305 -0.5709
   74SLPC    HX 6551   6.014   1.563  10.158  1.4480  0.9680  1.9643
   74SLPC    HY 6552   6.049   1.387  10.202 -1.3852  0.6512 -0.7341
   74SLPC   O31 6553   6.067   1.442   9.998  0.0608  0.1433 -0.1261
   74SLPC   C31 6554   6.084   1.314   9.968  0.4320 -0.3000  0.5643
   74SLPC   O32 6555   6.111   1.219  10.042 -0.4361  0.1937  0.5102
   74SLPC   C32 6556   6.051   1.290   9.820 -0.6998 -0.4428 -0.3066
   74SLPC   H2X 6557   5.985   1.372   9.785 -1.8135 -0.2938  1.9512
   74SLPC   H2Y 6558   5.994   1.199   9.794  0.3200 -0.2426 -3.6075
   74SLPC   C23 6559   6.463   1.712   9.790 -0.0504  0.2484  0.5050
   74SLPC   H3R 6560   6.556   1.699   9.849 -0.7002 -1.5981  1.2267
   74SLPC   H3S 6561   6.466   1.803   9.727  1.3922 -0.5741 -0.6555
   74SLPC   C24 6562   6.448   1.584   9.693  0.7510 -0.4089 -0.1734
   74SLPC   H4R 6563   6.343   1.589   9.657  0.2290 -1.8935  1.0366
   74SLPC   H4S 6564   6.465   1.486   9.742 -1.1875 -0.9037 -0.4016
   74SLPC   C25 6565   6.546   1.583   9.573 -0.1777  0.6500  0.8970
   74SLPC   H5R 6566   6.534   1.675   9.511  0.1520  0.1937  0.1374
   74SLPC   H5S 6567   6.526   1.495   9.507  2.2334  1.3850 -0.9843
   74SLPC   C26 6568   6.690   1.566   9.617  0.0461 -0.5606  0.2888
   74SLPC   H6R 6569   6.697   1.470   9.674  1.8465 -0.3179  0.5416
   74SLPC   H6S 6570   6.723   1.636   9.696  2.8109 -0.7467 -0.5805
   74SLPC   C27 6571   6.801   1.577   9.509  0.0721 -0.0870  0.1266
   74SLPC   H7R 6572   6.899   1.564   9.560 -1.7041 -1.1160  3.6010
   74SLPC   H7S 6573   6.783   1.682   9.476 -0.0832 -0.4879 -1.1483
   74SLPC   C28 6574   6.800   1.485   9.384 -0.1654 -0.0526 -0.2859
   74SLPC   H8R 6575   6.786   1.378   9.412 -0.0634 -0.3174 -1.2129
   74SLPC   H8S 6576   6.897   1.480   9.330 -0.2579  2.2095 -0.7753
   74SLPC   C29 6577   6.699   1.526   9.282 -0.5799 -0.2416 -0.3164
   74SLPC   H9R 6578   6.597   1.517   9.322 -0.6470 -0.6569 -0.5673
   74SLPC  C210 6579   6.726   1.554   9.151 -0.1696 -0.1240 -0.6668
   74SLPC  H10R 6580   6.648   1.577   9.077  0.6172  0.5694 -1.3037
   74SLPC  C211 6581   6.865   1.563   9.091  0.2604  0.1375 -0.5076
   74SLPC  H11R 6582   6.946   1.530   9.159 -1.4209 -1.7669  0.6770
   74SLPC  H11S 6583   6.888   1.670   9.070  0.0508  0.6188  1.5278
   74SLPC  C212 6584   6.882   1.471   8.971 -0.6056 -0.6485 -0.2201
   74SLPC  H12R 6585   6.833   1.374   8.987 -2.5671  0.3658  0.2426
   74SLPC  C213 6586   6.950   1.492   8.860  0.4441  0.5722 -0.2120
   74SLPC  H13R 6587   6.973   1.404   8.799  0.3317  0.3623  0.0427
   74SLPC  C214 6588   7.031   1.614   8.828  0.4592 -0.3718 -0.3519
   74SLPC  H14R 6589   7.010   1.708   8.884 -1.1081 -0.8822 -0.0341
   74SLPC  H14S 6590   7.006   1.637   8.722  3.3199 -0.1545 -1.0552
   74SLPC  C215 6591   7.183   1.573   8.860 -0.2580  0.2042  0.3602
   74SLPC  H15R 6592   7.224   1.510   8.779  0.2528  0.7797  0.1683
   74SLPC  H15S 6593   7.193   1.522   8.958 -0.1255 -2.6476 -1.0597
   74SLPC  C216 6594   7.272   1.692   8.865 -0.4433  0.6870 -0.1980
   74SLPC  H16R 6595   7.375   1.664   8.894 -1.3650 -0.2980  2.4473
   74SLPC  H16S 6596   7.238   1.750   8.953  0.7018 -2.1786  2.2779
   74SLPC  C217 6597   7.283   1.777   8.735  0.4371 -0.0607 -0.9181
   74SLPC  H17R 6598   7.183   1.822   8.723  0.7986  1.1535  0.3941
   74SLPC  H17S 6599   7.310   1.709   8.651 -1.0065 -0.6578 -0.9235
   74SLPC  C218 6600   7.395   1.891   8.749  0.5489 -0.8033  0.2102
   74SLPC  H18R 6601   7.494   1.858   8.786  1.2575 -0.3138 -1.1696
   74SLPC  H18S 6602   7.354   1.963   8.823 -1.1598 -0.4573 -1.0136
   74SLPC  H18T 6603   7.415   1.943   8.652  0.6018  0.7243  1.0142
   74SLPC   C33 6604   6.179   1.271   9.733 -0.5791 -0.4528 -0.1557
   74SLPC   H3X 6605   6.225   1.170   9.741  0.9172 -0.2228 -3.8091
   74SLPC   H3Y 6606   6.257   1.347   9.753  0.5585 -1.5921 -0.1280
   74SLPC   C34 6607   6.147   1.273   9.580 -0.0864  0.1441 -0.2929
   74SLPC   H4X 6608   6.150   1.377   9.542 -0.1650 -0.1368 -1.1097
   74SLPC   H4Y 6609   6.043   1.243   9.552 -0.1214 -0.3325  0.3319
   74SLPC   C35 6610   6.260   1.193   9.508  0.6916 -0.0246 -0.0844
   74SLPC   H5X 6611   6.258   1.087   9.542 -2.5433 -0.2908 -0.7210
   74SLPC   H5Y 6612   6.359   1.241   9.522  0.9822  0.4578 -3.0029
   74SLPC   C36 6613   6.239   1.185   9.357  0.1723 -0.8983  0.6244
   74SLPC   H6X 6614   6.130   1.177   9.337  0.4194  1.2213 -2.3496
   74SLPC   H6Y 6615   6.299   1.106   9.307 -0.9094 -0.6311 -1.1923
   74SLPC   C37 6616   6.290   1.315   9.285 -0.5820 -0.5621  0.1294
   74SLPC   H7X 6617   6.398   1.329   9.309 -0.6162 -2.0070  1.2788
   74SLPC   H7Y 6618   6.235   1.408   9.310 -0.3453 -0.3385 -0.1739
   74SLPC   C38 6619   6.281   1.309   9.132 -0.4448 -0.8759  0.3116
   74SLPC   H8X 6620   6.183   1.301   9.080  0.7280  1.2876 -2.5428
   74SLPC   H8Y 6621   6.334   1.217   9.099 -0.1788  0.2638 -2.7458
   74SLPC   C39 6622   6.349   1.423   9.063  0.4853 -0.5495  0.3628
   74SLPC   H9X 6623   6.460   1.426   9.075  0.5345 -0.4197 -0.1304
   74SLPC   H9Y 6624   6.308   1.516   9.108 -0.2959 -1.1247  0.8604
   74SLPC  C310 6625   6.314   1.418   8.912 -0.1216  0.0791 -0.1845
   74SLPC  H10X 6626   6.203   1.413   8.910 -0.3223  2.1026  2.0444
   74SLPC  H10Y 6627   6.360   1.322   8.879  1.0806  0.2811  0.8389
   74SLPC  C311 6628   6.360   1.541   8.828  0.2323  0.1590 -0.2205
   74SLPC  H11X 6629   6.322   1.640   8.861  4.8196  1.4172  2.1757
   74SLPC  H11Y 6630   6.320   1.517   8.728 -0.5463  0.6872 -0.0415
   74SLPC  C312 6631   6.509   1.545   8.808 -0.2016 -0.0988  0.1012
   74SLPC  H12X 6632   6.531   1.437   8.793 -0.4463  0.0005 -1.0233
   74SLPC  H12Y 6633   6.551   1.581   8.905  1.0865  2.7282 -1.3696
   74SLPC  C313 6634   6.541   1.637   8.684 -0.2371  0.4519  0.1025
   74SLPC  H13X 6635   6.511   1.743   8.697 -1.0319  0.6051 -2.4881
   74SLPC  H13Y 6636   6.489   1.593   8.596 -1.6322  0.6641  0.7945
   74SLPC  C314 6637   6.693   1.636   8.664 -0.4637  0.4079 -0.3107
   74SLPC  H14X 6638   6.720   1.533   8.633 -2.1700 -0.2029  0.1231
   74SLPC  H14Y 6639   6.744   1.670   8.756  2.7432  2.0036 -2.5084
   74SLPC  C315 6640   6.739   1.738   8.557 -0.9160 -0.0482 -0.9177
   74SLPC  H15X 6641   6.849   1.746   8.573 -1.1021 -1.2255  1.3541
   74SLPC  H15Y 6642   6.697   1.837   8.583  0.0461  0.2006 -0.2404
   74SLPC  C316 6643   6.699   1.701   8.413 -0.2049 -1.2076  0.9311
   74SLPC  H16X 6644   6.591   1.707   8.388 -0.0880 -1.6647  0.2976
   74SLPC  H16Y 6645   6.736   1.599   8.391  1.1462 -0.9502  1.8751
   74SLPC  C317 6646   6.768   1.805   8.321 -0.2632  0.8848  0.3986
   74SLPC  H17X 6647   6.878   1.791   8.330  0.0758  2.2049 -1.2684
   74SLPC  H17Y 6648   6.746   1.912   8.342  0.5017  1.5466 -1.8340
   74SLPC  C318 6649   6.738   1.778   8.171 -0.1395 -0.0249 -0.2745
   74SLPC  H18X 6650   6.630   1.800   8.160 -0.2473 -0.1156  0.5431
   74SLPC  H18Y 6651   6.757   1.670   8.157 -0.3475  0.1388 -2.1136
   74SLPC  H18Z 6652   6.807   1.837   8.107  0.1096 -0.7131 -0.6526
   75SLPC     N 6653   2.753   5.023   6.435 -0.7631 -0.3225  0.2949
   75SLPC   C13 6654   2.802   4.906   6.354 -0.7229  0.2187  0.3762
   75SLPC  H13A 6655   2.718   4.842   6.331  0.2509 -1.3082  0.9509
   75SLPC  H13B 6656   2.845   4.933   6.258  0.4837  0.8762  1.0823
   75SLPC  H13C 6657   2.883   4.860   6.409 -1.0003 -0.2013  0.4389
   75SLPC   C14 6658   2.652   5.093   6.355  0.6982 -0.6263  0.4598
   75SLPC  H14A 6659   2.690   5.131   6.261 -0.0108 -1.9529 -0.3993
   75SLPC  H14B 6660   2.574   5.021   6.334  0.5904  0.0974 -1.9350
   75SLPC  H14C 6661   2.608   5.180   6.400  1.1196  0.2403 -0.7547
   75SLPC   C15 6662   2.869   5.109   6.458 -0.0502  0.3083 -0.0764
   75SLPC  H15A 6663   2.937   5.123   6.376  2.3472  0.6703  1.8554
   75SLPC  H15B 6664   2.845   5.211   6.485  0.9453  0.6193 -0.3442
   75SLPC  H15C 6665   2.924   5.072   6.543  0.0957  2.5604  0.8822
   75SLPC   C12 6666   2.696   4.978   6.567 -0.2878  0.0416 -0.4980
   75SLPC  H12A 6667   2.657   5.061   6.623  1.3626 -0.4179  1.4933
   75SLPC  H12B 6668   2.779   4.941   6.626 -0.3615  0.2112 -0.2890
   75SLPC   C11 6669   2.576   4.865   6.574 -0.3330 -0.6056  0.4183
   75SLPC  H11A 6670   2.561   4.852   6.683  1.0034  0.6348  0.7875
   75SLPC  H11B 6671   2.633   4.783   6.525  0.1191  0.6950 -1.3318
   75SLPC     P 6672   2.340   4.978   6.557 -0.2823 -0.2860 -0.0129
   75SLPC   O13 6673   2.383   5.117   6.598  1.0636 -0.0049  0.2687
   75SLPC   O14 6674   2.235   4.971   6.452 -0.5437 -0.5904  0.3391
   75SLPC   O12 6675   2.458   4.895   6.498  0.2407  0.1542 -0.4743
   75SLPC   O11 6676   2.301   4.898   6.678 -0.4835  0.1229  0.1896
   75SLPC    C1 6677   2.257   4.762   6.658 -0.3296 -0.5315 -0.3670
   75SLPC    HA 6678   2.183   4.753   6.575 -1.0641  0.2219  0.1897
   75SLPC    HB 6679   2.342   4.699   6.621  0.4455  0.9652 -1.2290
   75SLPC    C2 6680   2.199   4.707   6.793  0.8073  0.3804  0.0668
   75SLPC    HS 6681   2.140   4.613   6.781 -1.4028  1.2721  2.8963
   75SLPC   O21 6682   2.122   4.799   6.870 -0.4427 -0.1103  0.2021
   75SLPC   C21 6683   2.010   4.845   6.813  0.6486  0.5306  0.2203
   75SLPC   O22 6684   1.980   4.821   6.697 -0.1194  0.3144  0.2412
   75SLPC   C22 6685   1.917   4.908   6.915  0.1574 -0.1865 -0.3213
   75SLPC   H2R 6686   1.983   4.966   6.983 -0.5979  1.0978 -0.6664
   75SLPC   H2S 6687   1.859   4.975   6.849 -2.3631 -1.7127  0.2327
   75SLPC    C3 6688   2.315   4.662   6.887  0.6332 -0.0619 -0.7589
   75SLPC    HX 6689   2.379   4.751   6.905 -0.3152  0.1993  1.6606
   75SLPC    HY 6690   2.374   4.592   6.823 -0.2578 -3.4817  1.8873
   75SLPC   O31 6691   2.247   4.604   7.004  0.1359  0.4006 -0.4165
   75SLPC   C31 6692   2.238   4.677   7.112 -0.7993  0.1356 -0.0274
   75SLPC   O32 6693   2.301   4.779   7.125  0.0214  0.3372  0.2236
   75SLPC   C32 6694   2.129   4.625   7.209 -0.2666  0.0779 -1.1669
   75SLPC   H2X 6695   2.101   4.519   7.197 -2.2287  0.3643  0.4601
   75SLPC   H2Y 6696   2.034   4.678   7.186 -0.3357  1.2646  1.4548
   75SLPC   C23 6697   1.828   4.810   6.993 -0.3956  0.3240 -0.0419
   75SLPC   H3R 6698   1.889   4.736   7.050 -2.2466 -1.3688 -0.1576
   75SLPC   H3S 6699   1.755   4.759   6.926 -0.0202 -2.1714  1.2997
   75SLPC   C24 6700   1.744   4.884   7.103 -0.4093 -0.2936 -0.7335
   75SLPC   H4R 6701   1.670   4.946   7.048 -1.4751 -0.9143 -0.0334
   75SLPC   H4S 6702   1.816   4.950   7.156  1.6614 -1.9934 -1.3254
   75SLPC   C25 6703   1.678   4.802   7.208  0.6197  0.2311  0.5832
   75SLPC   H5R 6704   1.764   4.750   7.255 -0.6324  0.8716  3.8515
   75SLPC   H5S 6705   1.610   4.729   7.158 -0.5784  2.2783 -0.9095
   75SLPC   C26 6706   1.595   4.878   7.313 -0.0465 -0.5075 -0.1128
   75SLPC   H6R 6707   1.504   4.933   7.279 -0.9382 -2.7558 -1.6501
   75SLPC   H6S 6708   1.665   4.947   7.365  1.5521 -3.2298  1.6163
   75SLPC   C27 6709   1.538   4.791   7.426 -0.0594  0.7456 -0.0934
   75SLPC   H7R 6710   1.619   4.727   7.468  0.4363  0.7777 -0.9861
   75SLPC   H7S 6711   1.460   4.724   7.382 -1.0373 -0.5561  3.2348
   75SLPC   C28 6712   1.465   4.864   7.536  0.2814 -0.6630  0.4511
   75SLPC   H8R 6713   1.400   4.791   7.588  0.2313 -1.5021 -0.7564
   75SLPC   H8S 6714   1.391   4.928   7.484 -0.2823 -1.4684  0.2571
   75SLPC   C29 6715   1.561   4.936   7.633 -0.0639 -0.5181 -0.9385
   75SLPC   H9R 6716   1.609   5.029   7.596 -0.8473  0.3608  0.1831
   75SLPC  C210 6717   1.585   4.898   7.758  0.6645 -0.2026 -0.3727
   75SLPC  H10R 6718   1.655   4.960   7.814  2.5330 -1.6597 -0.9797
   75SLPC  C211 6719   1.539   4.780   7.833 -0.5072 -0.4960 -0.5239
   75SLPC  H11R 6720   1.503   4.700   7.766  0.9967 -1.5393 -0.1187
   75SLPC  H11S 6721   1.456   4.821   7.895  0.4948 -0.0818  0.5700
   75SLPC  C212 6722   1.638   4.724   7.927 -0.5827  0.2984  0.3485
   75SLPC  H12R 6723   1.707   4.650   7.882 -0.6100 -0.2857  1.2536
   75SLPC  C213 6724   1.645   4.738   8.060 -0.5823  0.1239 -0.4367
   75SLPC  H13R 6725   1.730   4.686   8.108 -1.2333 -0.7452 -0.1844
   75SLPC  C214 6726   1.563   4.804   8.176  0.5557  0.0179  0.8387
   75SLPC  H14R 6727   1.475   4.855   8.132 -1.6151 -2.7356  1.6684
   75SLPC  H14S 6728   1.624   4.877   8.233  1.0373  1.0831 -0.9437
   75SLPC  C215 6729   1.498   4.703   8.268  0.6972 -0.7769  0.2880
   75SLPC  H15R 6730   1.580   4.650   8.322  0.4218 -1.7605 -0.2309
   75SLPC  H15S 6731   1.436   4.629   8.212  1.1066  0.7507 -2.3565
   75SLPC  C216 6732   1.403   4.780   8.358  0.3098  0.5017  0.1005
   75SLPC  H16R 6733   1.326   4.825   8.291  0.1597  0.9920  0.6035
   75SLPC  H16S 6734   1.459   4.862   8.408 -0.4532  2.3122 -1.8640
   75SLPC  C217 6735   1.337   4.685   8.456  0.3379  0.8269 -0.0621
   75SLPC  H17R 6736   1.418   4.654   8.524 -0.5386 -0.1595  0.5745
   75SLPC  H17S 6737   1.296   4.593   8.408  3.1933 -1.8662  2.2667
   75SLPC  C218 6738   1.230   4.764   8.533  0.0402  0.2879  0.5675
   75SLPC  H18R 6739   1.150   4.813   8.473  0.0688 -0.1814  0.1428
   75SLPC  H18S 6740   1.275   4.835   8.606  0.3055  2.0334 -1.2044
   75SLPC  H18T 6741   1.189   4.676   8.587  2.1671 -0.5749  0.8938
   75SLPC   C33 6742   2.170   4.658   7.352  0.0279  0.1830 -0.6007
   75SLPC   H3X 6743   2.235   4.575   7.387 -2.2127 -1.1395  0.6130
   75SLPC   H3Y 6744   2.229   4.752   7.366 -0.1711  0.6757 -2.7540
   75SLPC   C34 6745   2.051   4.646   7.445 -0.9274 -0.8553 -0.0938
   75SLPC   H4X 6746   2.001   4.547   7.438 -0.5839 -0.9687 -1.0340
   75SLPC   H4Y 6747   1.981   4.732   7.434  0.6513  0.7544  1.5952
   75SLPC   C35 6748   2.093   4.646   7.590 -0.3071  0.5369 -0.6504
   75SLPC   H5X 6749   2.150   4.739   7.610  0.0619  0.4653 -1.3336
   75SLPC   H5Y 6750   2.163   4.562   7.611 -0.4868  0.3995 -0.5999
   75SLPC   C36 6751   1.982   4.640   7.694  0.2747  0.0301 -0.4897
   75SLPC   H6X 6752   1.908   4.557   7.685  0.1954  0.1360 -0.7995
   75SLPC   H6Y 6753   1.910   4.720   7.668 -0.4862  0.3307  2.2170
   75SLPC   C37 6754   2.028   4.650   7.832  0.8720  0.3209 -0.0548
   75SLPC   H7X 6755   1.942   4.686   7.891  3.2655  1.2016  3.1681
   75SLPC   H7Y 6756   2.094   4.739   7.846  0.3948  0.4392  1.7130
   75SLPC   C38 6757   2.084   4.524   7.898  0.5850  1.0275 -0.2178
   75SLPC   H8X 6758   2.170   4.486   7.840  1.4364 -0.3352  1.8186
   75SLPC   H8Y 6759   2.005   4.446   7.890  0.4933  0.7908  2.2078
   75SLPC   C39 6760   2.125   4.554   8.041 -0.0240  0.0539 -0.7764
   75SLPC   H9X 6761   2.050   4.617   8.091  0.5114  0.3261 -0.3028
   75SLPC   H9Y 6762   2.219   4.614   8.038 -1.0725  1.7560 -0.6502
   75SLPC  C310 6763   2.147   4.422   8.120  0.3604 -0.4058 -0.0699
   75SLPC  H10X 6764   2.200   4.443   8.215  1.3144  0.5722 -0.7791
   75SLPC  H10Y 6765   2.214   4.366   8.051 -1.6022 -0.7437 -1.7803
   75SLPC  C311 6766   2.027   4.342   8.155  0.8412 -0.0812  0.0738
   75SLPC  H11X 6767   1.965   4.330   8.063 -1.4491 -2.2437  1.7625
   75SLPC  H11Y 6768   1.961   4.402   8.222  0.6000 -0.0634 -0.1769
   75SLPC  C312 6769   2.049   4.206   8.226  0.9548  0.4412 -0.4461
   75SLPC  H12X 6770   1.946   4.167   8.243  0.7501 -0.0493 -2.5451
   75SLPC  H12Y 6771   2.111   4.224   8.317  1.7130  1.0551 -1.0729
   75SLPC  C313 6772   2.123   4.105   8.136 -0.7829 -0.1269  0.1270
   75SLPC  H13X 6773   2.145   4.010   8.189 -0.9626 -1.1659 -1.5996
   75SLPC  H13Y 6774   2.223   4.147   8.115  0.7248 -3.0548  0.8829
   75SLPC  C314 6775   2.054   4.069   8.001 -0.3313  0.0082 -0.2699
   75SLPC  H14X 6776   2.130   4.078   7.921 -0.5281 -1.4462 -0.6571
   75SLPC  H14Y 6777   1.985   4.152   7.976  1.1477  1.0458 -1.0626
   75SLPC  C315 6778   1.994   3.930   7.997  0.2090 -0.1746 -0.4910
   75SLPC  H15X 6779   1.914   3.932   8.073  1.2256 -2.3788  0.7382
   75SLPC  H15Y 6780   2.065   3.852   8.033 -2.6011 -2.3111  0.8370
   75SLPC  C316 6781   1.923   3.891   7.866  0.6052 -0.2661  0.3837
   75SLPC  H16X 6782   1.845   3.968   7.849  0.5720 -0.3096  0.3377
   75SLPC  H16Y 6783   1.868   3.796   7.884 -0.4614  0.7089  2.7892
   75SLPC  C317 6784   2.032   3.882   7.750  0.2358  0.3648  0.2258
   75SLPC  H17X 6785   2.105   3.812   7.797 -1.2729  0.1849  2.4630
   75SLPC  H17Y 6786   2.082   3.978   7.729  0.4313 -0.0191 -1.1393
   75SLPC  C318 6787   1.983   3.828   7.620  0.2512  0.2719 -0.1510
   75SLPC  H18X 6788   1.922   3.900   7.561 -0.7293 -0.7245 -0.3784
   75SLPC  H18Y 6789   1.922   3.736   7.630 -0.5533  0.7505 -0.5692
   75SLPC  H18Z 6790   2.074   3.795   7.566  2.1475  1.4058  2.1456
   76SLPC     N 6791   3.986   4.026   6.287 -0.0804  0.1138 -0.0601
   76SLPC   C13 6792   3.892   3.907   6.297  0.1648 -0.1211 -0.5833
   76SLPC  H13A 6793   3.839   3.895   6.204  0.0772 -1.3514 -0.3874
   76SLPC  H13B 6794   3.946   3.815   6.315 -0.6881 -0.6217 -0.5500
   76SLPC  H13C 6795   3.806   3.927   6.359  1.7438  3.3449  0.7702
   76SLPC   C14 6796   4.053   4.050   6.415 -0.1963  0.1400  0.3049
   76SLPC  H14A 6797   4.107   4.143   6.424  2.3095 -1.4356  3.2350
   76SLPC  H14B 6798   3.987   4.047   6.500  1.4194  0.3845  1.6262
   76SLPC  H14C 6799   4.132   3.977   6.426 -1.0331 -0.6191  1.4632
   76SLPC   C15 6800   3.897   4.144   6.261  0.2049  0.6288  0.3307
   76SLPC  H15A 6801   3.958   4.232   6.271  0.8141  0.3611 -0.8519
   76SLPC  H15B 6802   3.867   4.140   6.157  1.1687 -0.7936  0.0840
   76SLPC  H15C 6803   3.813   4.153   6.328 -1.2991 -3.1743 -0.7689
   76SLPC   C12 6804   4.090   4.016   6.187  0.5452  0.7533  0.3661
   76SLPC  H12A 6805   4.153   4.103   6.184 -0.5622  1.5514 -0.3784
   76SLPC  H12B 6806   4.040   4.010   6.091  1.4135 -2.5061 -0.0162
   76SLPC   C11 6807   4.194   3.899   6.184  0.5232  0.4298  0.4508
   76SLPC  H11A 6808   4.239   3.893   6.083  1.0351 -0.8937  0.7326
   76SLPC  H11B 6809   4.138   3.803   6.187 -0.6794  1.0919  0.0931
   76SLPC     P 6810   4.432   3.834   6.268 -0.4947  0.5267 -0.4520
   76SLPC   O13 6811   4.414   3.688   6.276 -0.0011  0.0133 -0.5069
   76SLPC   O14 6812   4.498   3.873   6.144  0.0988 -0.1796 -0.0635
   76SLPC   O12 6813   4.300   3.918   6.277  0.0981  0.3463 -0.4964
   76SLPC   O11 6814   4.522   3.877   6.392  0.3892  0.3042 -0.1507
   76SLPC    C1 6815   4.482   3.974   6.485 -0.9385  0.3101 -0.2180
   76SLPC    HA 6816   4.579   4.015   6.520  0.7257 -2.1161 -1.7289
   76SLPC    HB 6817   4.428   4.060   6.440  0.8843  1.3714 -0.4650
   76SLPC    C2 6818   4.410   3.909   6.607  0.4246 -0.0895  0.4357
   76SLPC    HS 6819   4.307   3.874   6.589  0.4407 -0.4034  0.9138
   76SLPC   O21 6820   4.410   4.001   6.716  0.1378  0.0716  0.2388
   76SLPC   C21 6821   4.297   4.066   6.736 -0.3871 -0.4600  0.1174
   76SLPC   O22 6822   4.192   4.054   6.676  0.0192 -0.1412  0.5130
   76SLPC   C22 6823   4.341   4.177   6.839  0.0543  0.2970  0.0993
   76SLPC   H2R 6824   4.441   4.203   6.798  0.3039 -1.0113 -0.1466
   76SLPC   H2S 6825   4.267   4.261   6.838  0.2651  0.4820 -0.2875
   76SLPC    C3 6826   4.493   3.782   6.647 -0.4240 -0.5420  0.2420
   76SLPC    HX 6827   4.602   3.806   6.647 -0.7133  0.8757  1.0238
   76SLPC    HY 6828   4.475   3.707   6.568  0.7916 -1.5152  0.8497
   76SLPC   O31 6829   4.449   3.729   6.775 -0.3436  0.6290  0.5475
   76SLPC   C31 6830   4.330   3.665   6.778  0.2404 -0.3129 -0.1759
   76SLPC   O32 6831   4.266   3.641   6.681 -0.7047  0.1153 -0.8153
   76SLPC   C32 6832   4.289   3.645   6.929 -0.1685  0.4985  0.0404
   76SLPC   H2X 6833   4.207   3.718   6.949 -0.1110  0.6838 -0.3883
   76SLPC   H2Y 6834   4.367   3.672   7.004 -0.9094  1.2677  0.5515
   76SLPC   C23 6835   4.359   4.111   6.977 -0.1012 -0.2683 -0.9924
   76SLPC   H3R 6836   4.432   4.169   7.037 -2.7518  1.5909  0.6447
   76SLPC   H3S 6837   4.394   4.007   6.954 -3.3127 -0.8216 -4.4528
   76SLPC   C24 6838   4.232   4.110   7.064  0.3245  1.5720 -0.3277
   76SLPC   H4R 6839   4.157   4.074   6.991  2.5162 -3.0915 -0.6508
   76SLPC   H4S 6840   4.202   4.212   7.096 -1.9247  0.0818  2.7650
   76SLPC   C25 6841   4.236   4.026   7.183  0.0863  0.1442  0.0350
   76SLPC   H5R 6842   4.262   3.926   7.143 -1.0352  0.4914 -1.7104
   76SLPC   H5S 6843   4.135   4.034   7.228  0.0929 -0.1032  0.0911
   76SLPC   C26 6844   4.334   4.078   7.291  0.2001 -0.2521 -0.1030
   76SLPC   H6R 6845   4.333   4.188   7.277  2.2648 -0.1608  0.1275
   76SLPC   H6S 6846   4.428   4.026   7.263 -0.5629 -1.1406 -1.0895
   76SLPC   C27 6847   4.310   4.053   7.441 -0.5255  0.4929  0.7121
   76SLPC   H7R 6848   4.305   3.942   7.450  1.5510  0.4468  2.2003
   76SLPC   H7S 6849   4.217   4.099   7.481 -1.4011 -1.2201  0.7683
   76SLPC   C28 6850   4.441   4.083   7.529 -0.1085 -0.1446  0.0064
   76SLPC   H8R 6851   4.520   4.015   7.491 -0.1821 -0.2226 -0.0084
   76SLPC   H8S 6852   4.486   4.182   7.508  1.2646 -0.9513 -1.0119
   76SLPC   C29 6853   4.406   4.055   7.675  0.7891 -0.1731 -0.5435
   76SLPC   H9R 6854   4.371   3.953   7.695 -0.1448  0.5372  1.9586
   76SLPC  C210 6855   4.407   4.138   7.785  0.1451  0.1998 -0.6380
   76SLPC  H10R 6856   4.374   4.096   7.881  0.5293  0.3267 -0.4476
   76SLPC  C211 6857   4.444   4.283   7.787  0.2789  0.1901 -0.3817
   76SLPC  H11R 6858   4.451   4.318   7.682 -0.4950 -3.9955 -2.0361
   76SLPC  H11S 6859   4.547   4.285   7.829 -0.1514 -0.5437  0.7414
   76SLPC  C212 6860   4.343   4.374   7.850  0.3461 -0.0369 -0.3791
   76SLPC  H12R 6861   4.266   4.402   7.777 -0.6860  0.9578  1.0524
   76SLPC  C213 6862   4.315   4.404   7.981  0.0394  0.0489  0.7890
   76SLPC  H13R 6863   4.221   4.460   7.990 -0.7943 -0.6393 -2.4244
   76SLPC  C214 6864   4.379   4.353   8.104 -0.4066  0.1883  0.3671
   76SLPC  H14R 6865   4.426   4.434   8.164  1.3384 -0.7399  0.3079
   76SLPC  H14S 6866   4.455   4.276   8.082 -1.5845 -0.1401 -3.0717
   76SLPC  C215 6867   4.285   4.282   8.196 -0.7736 -0.0758 -0.2965
   76SLPC  H15R 6868   4.230   4.206   8.137  2.2493 -1.1580 -1.9234
   76SLPC  H15S 6869   4.213   4.356   8.238 -0.1575  0.5172 -0.2660
   76SLPC  C216 6870   4.354   4.201   8.306  0.1934 -0.5519  0.5483
   76SLPC  H16R 6871   4.397   4.277   8.375 -0.0721 -0.1581  0.2867
   76SLPC  H16S 6872   4.434   4.137   8.264  0.8547 -0.5354  1.7525
   76SLPC  C217 6873   4.255   4.112   8.375  0.6547  0.0383 -0.6837
   76SLPC  H17R 6874   4.235   4.029   8.304  0.6183 -0.3042 -0.2811
   76SLPC  H17S 6875   4.164   4.176   8.380  0.4113 -0.3576  0.1554
   76SLPC  C218 6876   4.308   4.074   8.513 -0.7382  0.8306  0.4912
   76SLPC  H18R 6877   4.225   4.036   8.576 -0.9847 -0.2227 -0.4396
   76SLPC  H18S 6878   4.352   4.162   8.564  0.4439 -0.2293  1.3768
   76SLPC  H18T 6879   4.384   3.992   8.514 -2.0058 -0.3935  1.4300
   76SLPC   C33 6880   4.240   3.498   6.959  0.1894  0.1267  0.2884
   76SLPC   H3X 6881   4.321   3.432   6.920  0.0213 -0.2595  0.5834
   76SLPC   H3Y 6882   4.146   3.478   6.902  0.9964 -1.0568 -0.6778
   76SLPC   C34 6883   4.204   3.470   7.107 -0.2983  0.7368 -0.2841
   76SLPC   H4X 6884   4.169   3.365   7.116  1.6370 -0.1152 -1.8601
   76SLPC   H4Y 6885   4.118   3.531   7.141 -1.9565 -1.0255 -1.0930
   76SLPC   C35 6886   4.318   3.468   7.213  0.0850  0.6037  0.1936
   76SLPC   H5X 6887   4.381   3.556   7.186 -0.7678  1.1712  0.0381
   76SLPC   H5Y 6888   4.380   3.375   7.212 -1.9742 -0.8392 -1.2368
   76SLPC   C36 6889   4.264   3.484   7.357  0.2726  0.3773  0.2636
   76SLPC   H6X 6890   4.212   3.390   7.384 -0.4190  0.7856  0.3835
   76SLPC   H6Y 6891   4.197   3.573   7.354  2.0843  1.7905 -2.5132
   76SLPC   C37 6892   4.379   3.519   7.458  0.9667 -0.4432 -0.3569
   76SLPC   H7X 6893   4.450   3.592   7.414  0.9700 -0.8448 -1.0451
   76SLPC   H7Y 6894   4.440   3.426   7.453  1.9908  0.0239  2.0749
   76SLPC   C38 6895   4.329   3.547   7.603 -0.1890  0.5734  0.9867
   76SLPC   H8X 6896   4.429   3.545   7.652  0.3205  0.9375 -0.0048
   76SLPC   H8Y 6897   4.258   3.471   7.641 -3.7606  3.3779  0.4724
   76SLPC   C39 6898   4.263   3.683   7.635 -0.1660  0.5095  0.4077
   76SLPC   H9X 6899   4.184   3.703   7.561 -1.2089  0.3258  1.4392
   76SLPC   H9Y 6900   4.346   3.756   7.622  0.3855  0.2451  2.1472
   76SLPC  C310 6901   4.211   3.703   7.778  0.2119  0.4593 -0.2522
   76SLPC  H10X 6902   4.155   3.612   7.808  3.6127 -1.7348 -0.0575
   76SLPC  H10Y 6903   4.150   3.796   7.780  1.3699  1.2639 -0.7670
   76SLPC  C311 6904   4.322   3.711   7.877  0.0634  0.0155 -0.3167
   76SLPC  H11X 6905   4.408   3.773   7.846 -0.9231  1.3561 -0.4518
   76SLPC  H11Y 6906   4.349   3.605   7.899  0.7774 -0.2098 -2.1304
   76SLPC  C312 6907   4.265   3.775   8.004  0.6308 -0.2284 -0.6687
   76SLPC  H12X 6908   4.181   3.712   8.042  0.7290 -0.5111 -0.9169
   76SLPC  H12Y 6909   4.230   3.879   7.989  1.1541 -0.4788 -4.6210
   76SLPC  C313 6910   4.364   3.764   8.115  0.2231 -0.3476  0.2488
   76SLPC  H13X 6911   4.391   3.657   8.128  1.8505  0.2306  2.1780
   76SLPC  H13Y 6912   4.315   3.798   8.209 -1.3400 -0.4586 -0.4965
   76SLPC  C314 6913   4.498   3.840   8.095 -0.1720  0.1829 -0.3942
   76SLPC  H14X 6914   4.467   3.943   8.064 -0.4174 -0.0106 -0.8106
   76SLPC  H14Y 6915   4.559   3.798   8.012 -0.2791 -1.2594  0.2430
   76SLPC  C315 6916   4.577   3.850   8.225  0.0484  0.1058 -0.0363
   76SLPC  H15X 6917   4.503   3.861   8.307 -0.2824  1.4542 -0.4850
   76SLPC  H15Y 6918   4.628   3.949   8.231 -1.7769  1.0480  0.5285
   76SLPC  C316 6919   4.678   3.734   8.239  0.0608  0.1627 -0.1270
   76SLPC  H16X 6920   4.768   3.758   8.178  0.6568 -2.2502 -0.2893
   76SLPC  H16Y 6921   4.641   3.632   8.213  0.9474  0.4025 -2.6078
   76SLPC  C317 6922   4.731   3.721   8.389  0.3742 -0.0997  0.6243
   76SLPC  H17X 6923   4.638   3.704   8.447 -0.5117  1.6064 -0.2189
   76SLPC  H17Y 6924   4.776   3.815   8.427 -2.3643  1.6351 -0.1676
   76SLPC  C318 6925   4.828   3.607   8.409 -0.0692 -0.2876  0.3448
   76SLPC  H18X 6926   4.909   3.610   8.334  1.2735  0.4546  1.7617
   76SLPC  H18Y 6927   4.766   3.515   8.399  0.9650 -1.0205  0.5550
   76SLPC  H18Z 6928   4.877   3.607   8.509  1.8627 -1.1085 -0.5563
   77SLPC     N 6929   3.434   3.300   6.428 -0.0632 -0.0135 -0.4989
   77SLPC   C13 6930   3.555   3.265   6.361 -0.3827  0.3370 -0.3134
   77SLPC  H13A 6931   3.640   3.319   6.400  1.0874 -1.2333 -1.2254
   77SLPC  H13B 6932   3.583   3.162   6.377 -0.2176 -0.2793 -3.8212
   77SLPC  H13C 6933   3.580   3.278   6.257  0.9492 -1.1414 -0.2162
   77SLPC   C14 6934   3.433   3.256   6.578  0.1635  0.2960 -0.4395
   77SLPC  H14A 6935   3.514   3.301   6.633  1.6539 -0.9897 -1.4960
   77SLPC  H14B 6936   3.345   3.291   6.630 -0.3211 -1.3367 -0.0807
   77SLPC  H14C 6937   3.435   3.148   6.580  1.8530  0.2890  2.0634
   77SLPC   C15 6938   3.316   3.228   6.360  0.0450 -0.5844 -0.2337
   77SLPC  H15A 6939   3.227   3.268   6.406  0.7101 -0.4696  1.0164
   77SLPC  H15B 6940   3.306   3.248   6.255 -1.9687  2.0639  0.3607
   77SLPC  H15C 6941   3.337   3.123   6.373 -1.5651 -0.9589 -0.4402
   77SLPC   C12 6942   3.413   3.450   6.418 -0.5168  0.3841 -0.1403
   77SLPC  H12A 6943   3.493   3.502   6.468 -0.7903  0.3282  0.3654
   77SLPC  H12B 6944   3.323   3.484   6.467 -2.1336 -1.5998 -1.5277
   77SLPC   C11 6945   3.403   3.509   6.278  0.4552  0.1844  0.4367
   77SLPC  H11A 6946   3.482   3.471   6.209 -1.0747 -2.2034 -0.1106
   77SLPC  H11B 6947   3.425   3.618   6.269  3.2805 -0.2873  0.7477
   77SLPC     P 6948   3.155   3.597   6.244 -0.5697  0.0619 -0.2722
   77SLPC   O13 6949   3.175   3.716   6.163  0.7300  0.4335 -0.0630
   77SLPC   O14 6950   3.027   3.530   6.249  0.5327  0.8836 -0.2582
   77SLPC   O12 6951   3.268   3.481   6.224  0.1310 -0.8770 -0.5671
   77SLPC   O11 6952   3.181   3.649   6.391 -0.3731  0.2618  0.3400
   77SLPC    C1 6953   3.077   3.702   6.480 -1.2429 -1.3051  0.8839
   77SLPC    HA 6954   3.102   3.806   6.510 -1.7861 -1.1796  0.9208
   77SLPC    HB 6955   2.977   3.699   6.432 -1.0001  0.5861  0.1733
   77SLPC    C2 6956   3.063   3.611   6.609 -0.5733  0.2776  0.2554
   77SLPC    HS 6957   2.977   3.654   6.665  1.2453  1.4585  2.3223
   77SLPC   O21 6958   3.181   3.614   6.695  0.0716  0.5588  0.0775
   77SLPC   C21 6959   3.189   3.729   6.766 -0.8278  0.7535 -0.0056
   77SLPC   O22 6960   3.095   3.798   6.795 -0.3516 -0.4409  0.3715
   77SLPC   C22 6961   3.328   3.749   6.826 -0.6135 -0.4796  0.4349
   77SLPC   H2R 6962   3.388   3.795   6.745 -1.5388 -0.9871 -0.5558
   77SLPC   H2S 6963   3.326   3.823   6.909 -0.6374 -0.9154  0.8283
   77SLPC    C3 6964   3.039   3.465   6.577  0.2620 -0.2158  0.8022
   77SLPC    HX 6965   3.134   3.419   6.542 -0.3511 -1.1068  0.2509
   77SLPC    HY 6966   2.974   3.446   6.489  0.7448 -0.2147  0.4353
   77SLPC   O31 6967   2.975   3.392   6.681  0.7176 -0.2624  0.1453
   77SLPC   C31 6968   3.056   3.328   6.768 -0.0796  0.2823  0.2235
   77SLPC   O32 6969   3.173   3.301   6.756  1.4726 -0.1152  0.0050
   77SLPC   C32 6970   2.973   3.269   6.885  0.3267 -0.0976  0.1628
   77SLPC   H2X 6971   2.916   3.176   6.863 -0.8673  0.2313  1.6086
   77SLPC   H2Y 6972   2.910   3.357   6.912  0.4298  0.2468 -0.7115
   77SLPC   C23 6973   3.403   3.615   6.862 -0.8581  0.2533 -0.2942
   77SLPC   H3R 6974   3.507   3.641   6.890 -0.4431  0.4556 -1.9406
   77SLPC   H3S 6975   3.420   3.554   6.771  3.1087 -1.2752  1.2435
   77SLPC   C24 6976   3.349   3.532   6.976  0.2606  0.1600 -0.5051
   77SLPC   H4R 6977   3.424   3.452   6.994 -0.6992 -0.7596 -0.4532
   77SLPC   H4S 6978   3.254   3.487   6.939 -0.4654  1.2553 -0.0133
   77SLPC   C25 6979   3.311   3.607   7.103 -0.8701 -0.3630  0.2850
   77SLPC   H5R 6980   3.227   3.675   7.078 -1.5776 -0.6283  1.8201
   77SLPC   H5S 6981   3.399   3.664   7.140  0.6933 -2.2349 -0.3765
   77SLPC   C26 6982   3.260   3.522   7.214 -0.7987  0.7322  1.1189
   77SLPC   H6R 6983   3.317   3.427   7.216  2.4419  2.4772 -0.5412
   77SLPC   H6S 6984   3.153   3.504   7.189 -0.0498 -0.1346 -1.8384
   77SLPC   C27 6985   3.293   3.583   7.354 -0.1792  0.3183 -0.2351
   77SLPC   H7R 6986   3.236   3.678   7.362 -1.5465 -0.4587 -0.3100
   77SLPC   H7S 6987   3.402   3.594   7.367 -0.2070  1.5278 -0.8570
   77SLPC   C28 6988   3.248   3.496   7.479 -0.2809 -0.9699  1.0279
   77SLPC   H8R 6989   3.139   3.485   7.464 -0.2223 -0.4521  0.1587
   77SLPC   H8S 6990   3.275   3.547   7.573  1.5791 -2.8976  1.6182
   77SLPC   C29 6991   3.311   3.366   7.464 -0.1533  0.2652  0.0956
   77SLPC   H9R 6992   3.254   3.306   7.391  1.0994  0.8962 -1.4581
   77SLPC  C210 6993   3.400   3.307   7.545  0.1852  0.3745  0.2401
   77SLPC  H10R 6994   3.423   3.203   7.518 -0.7902  0.4919 -1.1161
   77SLPC  C211 6995   3.465   3.364   7.661  0.2923 -0.2102 -0.6373
   77SLPC  H11R 6996   3.416   3.460   7.687  0.1866 -0.6296  0.7962
   77SLPC  H11S 6997   3.570   3.378   7.627 -0.1731  1.0284 -1.6319
   77SLPC  C212 6998   3.471   3.285   7.792  0.1510 -0.0779  0.1457
   77SLPC  H12R 6999   3.542   3.201   7.787 -0.6832 -0.7530 -0.6994
   77SLPC  C213 7000   3.405   3.311   7.907  0.1912  0.6150  0.1555
   77SLPC  H13R 7001   3.423   3.244   7.992 -1.3058  1.3332  1.0838
   77SLPC  C214 7002   3.303   3.418   7.937 -0.2330 -0.0315 -0.1327
   77SLPC  H14R 7003   3.219   3.367   7.989  0.5495 -0.3996  0.8072
   77SLPC  H14S 7004   3.277   3.463   7.839  0.1186  0.8555  0.1631
   77SLPC  C215 7005   3.367   3.530   8.015  0.2534  0.2086 -0.1556
   77SLPC  H15R 7006   3.461   3.566   7.966 -1.0019  1.1553 -1.9775
   77SLPC  H15S 7007   3.394   3.507   8.120 -0.4452 -1.1322 -0.2535
   77SLPC  C216 7008   3.269   3.650   8.038 -0.0163 -0.3472  0.0889
   77SLPC  H16R 7009   3.233   3.682   7.938 -2.0544 -0.3009  0.7896
   77SLPC  H16S 7010   3.329   3.728   8.089  0.0489 -2.1970  3.1296
   77SLPC  C217 7011   3.152   3.598   8.123  0.5413 -0.0749 -0.6972
   77SLPC  H17R 7012   3.179   3.551   8.219  1.7141 -1.9878 -1.9110
   77SLPC  H17S 7013   3.107   3.510   8.072  1.5119 -0.4105 -1.0006
   77SLPC  C218 7014   3.031   3.698   8.137 -0.2296 -0.5437 -0.1412
   77SLPC  H18R 7015   2.965   3.656   8.215 -1.2544  1.6228  0.2189
   77SLPC  H18S 7016   2.969   3.702   8.046  1.3858  0.3734 -1.2586
   77SLPC  H18T 7017   3.072   3.797   8.166 -1.4960  0.3679 -1.3513
   77SLPC   C33 7018   3.058   3.241   7.011  0.2754  0.0497 -0.1338
   77SLPC   H3X 7019   3.127   3.323   7.039  0.2948 -0.2048  0.5972
   77SLPC   H3Y 7020   3.125   3.154   6.997  0.2645  0.4097 -2.8689
   77SLPC   C34 7021   2.951   3.214   7.123  0.1080 -0.8902 -0.5612
   77SLPC   H4X 7022   2.912   3.120   7.078  1.8685 -1.5865 -0.7277
   77SLPC   H4Y 7023   2.878   3.298   7.118  1.1212 -0.0346 -1.1696
   77SLPC   C35 7024   2.998   3.203   7.270  0.5366 -0.0797  0.4894
   77SLPC   H5X 7025   3.046   3.297   7.305  0.0966 -0.5006  2.3415
   77SLPC   H5Y 7026   3.082   3.131   7.273  1.2711  0.6922 -0.5303
   77SLPC   C36 7027   2.900   3.177   7.385  0.6449 -0.9761  0.3490
   77SLPC   H6X 7028   2.846   3.082   7.369 -0.7974 -0.0114 -0.7935
   77SLPC   H6Y 7029   2.823   3.258   7.382  0.2580 -1.3764 -1.0995
   77SLPC   C37 7030   2.975   3.182   7.517  0.3825  0.0911 -0.0668
   77SLPC   H7X 7031   3.027   3.279   7.533  0.1262  0.4922 -1.4763
   77SLPC   H7Y 7032   3.052   3.103   7.511 -1.3784 -1.6697 -0.5288
   77SLPC   C38 7033   2.884   3.184   7.636  0.2942  0.4315  0.2000
   77SLPC   H8X 7034   2.846   3.079   7.636  0.3056  0.4011 -1.2300
   77SLPC   H8Y 7035   2.789   3.240   7.626 -0.9520 -1.2539  1.7907
   77SLPC   C39 7036   2.961   3.222   7.764  0.1004 -0.2384  0.1778
   77SLPC   H9X 7037   3.002   3.325   7.761 -1.3244  0.4583  2.3387
   77SLPC   H9Y 7038   3.039   3.146   7.785 -1.2351 -2.5092 -2.4090
   77SLPC  C310 7039   2.860   3.209   7.879  0.6091  0.4356  0.3347
   77SLPC  H10X 7040   2.802   3.116   7.862  1.0627  0.2198 -0.0656
   77SLPC  H10Y 7041   2.782   3.288   7.883  1.3080  1.0992  1.2452
   77SLPC  C311 7042   2.938   3.210   8.009 -0.2246 -0.5786 -0.4689
   77SLPC  H11X 7043   3.001   3.299   8.030 -1.7161  0.2081  0.8477
   77SLPC  H11Y 7044   3.001   3.118   8.010  1.0278  0.2255 -1.3634
   77SLPC  C312 7045   2.836   3.198   8.128 -0.0987 -0.4248  0.5239
   77SLPC  H12X 7046   2.893   3.174   8.220  0.1891 -0.2931  0.3837
   77SLPC  H12Y 7047   2.764   3.115   8.114  0.5887 -0.6419 -2.4981
   77SLPC  C313 7048   2.762   3.332   8.162 -0.0299  0.4665  0.0344
   77SLPC  H13X 7049   2.692   3.345   8.077  2.7044  1.5261 -2.2159
   77SLPC  H13Y 7050   2.833   3.417   8.170 -0.9738  1.1305  2.0366
   77SLPC  C314 7051   2.693   3.322   8.303 -0.3099  0.0540 -0.2475
   77SLPC  H14X 7052   2.762   3.294   8.386 -0.8932  0.4390  0.3780
   77SLPC  H14Y 7053   2.611   3.249   8.283 -0.9271  1.4331 -3.2343
   77SLPC  C315 7054   2.638   3.460   8.353 -0.1243 -0.3949  0.5613
   77SLPC  H15X 7055   2.622   3.452   8.463 -1.8287 -1.2101  0.2858
   77SLPC  H15Y 7056   2.537   3.476   8.308 -1.1526 -0.2227  2.7592
   77SLPC  C316 7057   2.719   3.587   8.336  0.4493 -0.6689  0.4755
   77SLPC  H16X 7058   2.724   3.620   8.230 -0.2483 -2.8366 -0.2868
   77SLPC  H16Y 7059   2.820   3.586   8.380  1.2589 -0.9216 -1.3020
   77SLPC  C317 7060   2.647   3.706   8.412  0.4601 -0.0758 -0.0796
   77SLPC  H17X 7061   2.540   3.686   8.392 -0.3156  2.2328  1.4239
   77SLPC  H17Y 7062   2.673   3.804   8.366 -1.3184  0.4655 -0.0113
   77SLPC  C318 7063   2.673   3.712   8.563  0.4813 -0.0710 -0.0442
   77SLPC  H18X 7064   2.631   3.800   8.617 -2.0767 -0.1098 -1.8030
   77SLPC  H18Y 7065   2.783   3.719   8.581  0.8017 -2.3347 -0.8160
   77SLPC  H18Z 7066   2.635   3.622   8.616  0.2695 -1.0162 -1.7292
   78SLPC     N 7067   1.963   3.177   6.368 -0.0550  0.2998 -0.2777
   78SLPC   C13 7068   1.966   3.078   6.259  0.4112  0.3312 -0.4140
   78SLPC  H13A 7069   2.041   3.003   6.280  3.0242  3.0754  0.6763
   78SLPC  H13B 7070   1.877   3.016   6.256  0.2506  0.5657 -0.4880
   78SLPC  H13C 7071   1.986   3.112   6.159  0.0806  0.5741 -0.3980
   78SLPC   C14 7072   1.946   3.091   6.488 -0.1000  1.1396 -0.0064
   78SLPC  H14A 7073   1.871   3.014   6.481  1.9474 -1.2356  2.1824
   78SLPC  H14B 7074   2.042   3.046   6.507  1.0297  2.3295 -2.3440
   78SLPC  H14C 7075   1.913   3.145   6.575 -0.1974  2.9843 -1.1277
   78SLPC   C15 7076   1.826   3.239   6.352  0.0146  0.2938 -0.1717
   78SLPC  H15A 7077   1.816   3.304   6.438  1.6604  3.0208 -1.8969
   78SLPC  H15B 7078   1.831   3.285   6.255  1.7467 -0.4715 -0.4760
   78SLPC  H15C 7079   1.751   3.162   6.364 -0.0373  0.3819  0.0795
   78SLPC   C12 7080   2.079   3.269   6.360 -0.0099  0.3366 -0.2132
   78SLPC  H12A 7081   2.077   3.331   6.272  1.4088  0.4229 -0.1993
   78SLPC  H12B 7082   2.156   3.194   6.351 -0.8447 -1.1357  3.2269
   78SLPC   C11 7083   2.101   3.370   6.473 -0.0462 -0.3893 -0.5033
   78SLPC  H11A 7084   2.196   3.422   6.450 -0.0639 -0.1201  0.0074
   78SLPC  H11B 7085   2.112   3.325   6.575  2.4332 -0.4383 -0.7404
   78SLPC     P 7086   1.956   3.583   6.383  0.0375 -0.3623 -0.3301
   78SLPC   O13 7087   2.007   3.538   6.250  0.3543 -0.4163  0.3934
   78SLPC   O14 7088   1.811   3.613   6.394 -0.0496  0.4640 -0.3242
   78SLPC   O12 7089   1.993   3.464   6.481 -0.2935 -0.3101 -0.2482
   78SLPC   O11 7090   2.040   3.702   6.439  0.3354  0.2863  0.0408
   78SLPC    C1 7091   2.021   3.780   6.557  0.5486  0.5643  1.2103
   78SLPC    HA 7092   2.054   3.884   6.535 -0.8752  0.9992  1.0385
   78SLPC    HB 7093   1.917   3.789   6.594  1.0187  2.5797  2.2327
   78SLPC    C2 7094   2.119   3.740   6.672  0.1425 -0.4413 -0.1671
   78SLPC    HS 7095   2.080   3.641   6.703 -0.4126 -0.1354  0.1128
   78SLPC   O21 7096   2.105   3.825   6.786  0.3619  0.1431  0.3576
   78SLPC   C21 7097   1.993   3.822   6.855 -0.3861  0.0660  0.1051
   78SLPC   O22 7098   1.903   3.739   6.854  0.0254 -0.0011 -0.5275
   78SLPC   C22 7099   1.999   3.956   6.940 -0.3099 -0.4373  0.2805
   78SLPC   H2R 7100   2.084   3.956   7.011 -1.2071 -0.4427  1.3915
   78SLPC   H2S 7101   2.020   4.033   6.863  1.9819 -1.4042 -0.1595
   78SLPC    C3 7102   2.267   3.724   6.633  0.3235 -0.6794  0.0634
   78SLPC    HX 7103   2.307   3.828   6.632  0.7388 -0.8190  1.2881
   78SLPC    HY 7104   2.284   3.676   6.534  0.4133 -0.8109  0.1432
   78SLPC   O31 7105   2.336   3.648   6.736 -0.0890 -0.2938 -0.2638
   78SLPC   C31 7106   2.466   3.670   6.735  0.1911 -0.1373 -0.7851
   78SLPC   O32 7107   2.532   3.734   6.650 -0.8597  0.5113 -0.0781
   78SLPC   C32 7108   2.520   3.616   6.871  0.3853 -0.2037 -0.4053
   78SLPC   H2X 7109   2.516   3.506   6.853  0.0045 -0.6521  2.0770
   78SLPC   H2Y 7110   2.446   3.630   6.953  0.7970 -2.5969  0.4529
   78SLPC   C23 7111   1.862   3.971   7.020  0.0070  0.2016 -0.0817
   78SLPC   H3R 7112   1.797   3.880   7.019  1.6925 -1.1016  1.2897
   78SLPC   H3S 7113   1.811   4.061   6.979  2.1132  1.7318  0.5251
   78SLPC   C24 7114   1.883   3.993   7.172 -0.1761 -0.4380 -0.3743
   78SLPC   H4R 7115   1.781   3.985   7.218 -0.9972 -0.5236 -2.1331
   78SLPC   H4S 7116   1.910   4.100   7.182 -0.7726 -0.3252  0.1165
   78SLPC   C25 7117   1.972   3.890   7.249  0.0295  0.0072  0.0375
   78SLPC   H5R 7118   1.975   3.936   7.350 -1.2317  2.9286 -1.1256
   78SLPC   H5S 7119   2.076   3.892   7.212  0.0581  5.1335 -0.2942
   78SLPC   C26 7120   1.904   3.748   7.251 -0.1648 -0.7506  0.4364
   78SLPC   H6R 7121   1.978   3.678   7.296  1.5152 -0.4799 -1.7313
   78SLPC   H6S 7122   1.893   3.719   7.144  0.3430 -2.7698  0.8920
   78SLPC   C27 7123   1.767   3.748   7.327  0.4403  0.0061  0.2566
   78SLPC   H7R 7124   1.700   3.824   7.284  0.7878 -0.8346 -1.9121
   78SLPC   H7S 7125   1.787   3.784   7.430 -1.6588  2.9664 -0.2378
   78SLPC   C28 7126   1.716   3.605   7.313 -0.0206  0.1067 -0.1415
   78SLPC   H8R 7127   1.643   3.607   7.396 -0.0037  0.7050 -0.1359
   78SLPC   H8S 7128   1.789   3.526   7.340  0.1197  1.0541  2.5479
   78SLPC   C29 7129   1.643   3.592   7.185 -0.1921 -0.3500  0.4646
   78SLPC   H9R 7130   1.677   3.657   7.103 -0.6624 -0.4989  0.1489
   78SLPC  C210 7131   1.545   3.500   7.160  0.0189 -0.5739 -0.1118
   78SLPC  H10R 7132   1.506   3.488   7.058  0.9505 -1.8192 -0.3403
   78SLPC  C211 7133   1.501   3.403   7.264 -0.6882 -0.3800 -0.1580
   78SLPC  H11R 7134   1.408   3.439   7.312 -1.6794  0.5005 -2.5765
   78SLPC  H11S 7135   1.576   3.384   7.344  0.6439 -1.3083 -1.5778
   78SLPC  C212 7136   1.481   3.269   7.192 -0.1686  0.1940  0.1760
   78SLPC  H12R 7137   1.575   3.215   7.174 -0.5702  0.1247 -2.1280
   78SLPC  C213 7138   1.366   3.208   7.156  0.4428 -0.1845 -0.3810
   78SLPC  H13R 7139   1.373   3.118   7.093  0.6287  0.0788 -0.7418
   78SLPC  C214 7140   1.223   3.253   7.175  0.5669 -0.1905 -0.7476
   78SLPC  H14R 7141   1.162   3.233   7.084  1.4975 -1.9921 -1.0347
   78SLPC  H14S 7142   1.211   3.361   7.198  1.7076 -0.3567  0.7628
   78SLPC  C215 7143   1.176   3.173   7.299  0.2275 -1.0073  0.1316
   78SLPC  H15R 7144   1.250   3.175   7.382  0.3326 -0.1457  0.0283
   78SLPC  H15S 7145   1.167   3.066   7.272  2.1611 -0.8431 -1.3045
   78SLPC  C216 7146   1.035   3.209   7.347 -0.9833  0.5430  0.7332
   78SLPC  H16R 7147   0.962   3.184   7.267  0.7683 -0.1655 -0.7217
   78SLPC  H16S 7148   1.027   3.320   7.347  1.4444  0.7823  1.3549
   78SLPC  C217 7149   1.006   3.149   7.490 -0.1042  0.4287  0.1892
   78SLPC  H17R 7150   0.997   3.039   7.489  0.6834  0.3207 -2.1766
   78SLPC  H17S 7151   0.913   3.201   7.521  0.0801  0.4422  0.7267
   78SLPC  C218 7152   1.114   3.166   7.600  0.0815  0.4952  0.3250
   78SLPC  H18R 7153   1.127   3.276   7.600 -0.4532  0.5590  0.1040
   78SLPC  H18S 7154   1.207   3.111   7.572 -1.4353 -1.0429 -2.0059
   78SLPC  H18T 7155   1.083   3.130   7.700  0.8551 -2.3443 -0.3612
   78SLPC   C33 7156   2.660   3.660   6.897 -0.3237  0.2815 -0.4916
   78SLPC   H3X 7157   2.732   3.648   6.813  0.3194  2.9413 -0.3928
   78SLPC   H3Y 7158   2.693   3.590   6.977 -0.1885  2.5828  1.5561
   78SLPC   C34 7159   2.661   3.807   6.941 -0.2493  0.1250  0.4904
   78SLPC   H4X 7160   2.601   3.813   7.034  0.2704  2.0066  0.7383
   78SLPC   H4Y 7161   2.608   3.872   6.868  0.5598 -0.5261 -0.6953
   78SLPC   C35 7162   2.799   3.861   6.962  0.1133  0.1025  0.5192
   78SLPC   H5X 7163   2.858   3.867   6.868 -0.5052 -0.5325  0.0766
   78SLPC   H5Y 7164   2.860   3.789   7.021  2.3740  1.0861 -0.5003
   78SLPC   C36 7165   2.822   3.998   7.028  0.2501  0.0665  0.3614
   78SLPC   H6X 7166   2.759   4.076   6.981  0.3622 -0.0659 -0.0051
   78SLPC   H6Y 7167   2.931   4.010   7.010  0.3708 -2.0640 -0.5673
   78SLPC   C37 7168   2.797   3.995   7.182 -0.1906  0.3874 -0.2580
   78SLPC   H7X 7169   2.853   3.902   7.205 -1.0671 -0.4340 -1.3281
   78SLPC   H7Y 7170   2.690   3.975   7.200  0.2554 -2.0604 -0.0097
   78SLPC   C38 7171   2.864   4.116   7.250 -0.9507  0.0473  0.0679
   78SLPC   H8X 7172   2.819   4.210   7.210 -3.0654 -1.0493 -0.2791
   78SLPC   H8Y 7173   2.974   4.109   7.235 -0.7268  0.9957  1.1029
   78SLPC   C39 7174   2.852   4.127   7.402  0.2727 -0.0776  0.0736
   78SLPC   H9X 7175   2.887   4.043   7.465 -3.3138 -1.9908 -0.2228
   78SLPC   H9Y 7176   2.744   4.117   7.427  0.6563 -2.1844  1.0250
   78SLPC  C310 7177   2.893   4.262   7.453  0.1212 -0.4852  0.4880
   78SLPC  H10X 7178   2.835   4.335   7.392  0.2008 -0.7264  0.1224
   78SLPC  H10Y 7179   2.994   4.293   7.420 -0.6792  0.1873 -1.5267
   78SLPC  C311 7180   2.859   4.290   7.599  0.0589  0.2657 -0.0371
   78SLPC  H11X 7181   2.902   4.199   7.646 -1.1761 -1.4073 -1.9519
   78SLPC  H11Y 7182   2.749   4.294   7.619  0.1291 -0.5062  0.5382
   78SLPC  C312 7183   2.916   4.427   7.648 -0.5207  0.1981  0.1228
   78SLPC  H12X 7184   2.861   4.513   7.603  1.8492  1.4240 -0.5797
   78SLPC  H12Y 7185   3.018   4.437   7.607 -0.2880 -1.9162  0.0683
   78SLPC  C313 7186   2.905   4.451   7.798  0.5113 -0.3000  0.2143
   78SLPC  H13X 7187   2.932   4.365   7.864  1.6590  0.6796  1.0603
   78SLPC  H13Y 7188   2.796   4.462   7.820  0.5259  1.5357 -0.5203
   78SLPC  C314 7189   2.985   4.580   7.835 -0.6938 -0.2893 -0.2959
   78SLPC  H14X 7190   2.932   4.631   7.918 -1.1156 -1.7759  0.3982
   78SLPC  H14Y 7191   2.980   4.648   7.748  0.7042 -0.9976 -0.9704
   78SLPC  C315 7192   3.129   4.544   7.876  0.3465 -0.4644 -0.2290
   78SLPC  H15X 7193   3.181   4.642   7.882 -1.2536  0.4478 -0.4948
   78SLPC  H15Y 7194   3.167   4.482   7.792 -1.1909  1.7074 -2.6966
   78SLPC  C316 7195   3.149   4.480   8.016  0.1543 -0.0116  0.5942
   78SLPC  H16X 7196   3.067   4.408   8.036  0.5574 -0.0735  2.1643
   78SLPC  H16Y 7197   3.145   4.544   8.106  1.3013  0.0682  0.5975
   78SLPC  C317 7198   3.285   4.403   8.033 -0.0754  0.2763  0.2571
   78SLPC  H17X 7199   3.359   4.486   8.023  0.0836  1.1943  5.8257
   78SLPC  H17Y 7200   3.291   4.328   7.952 -2.3272 -0.2275  0.4811
   78SLPC  C318 7201   3.302   4.327   8.164 -0.1429  0.6759 -0.9849
   78SLPC  H18X 7202   3.398   4.274   8.185 -0.3222  0.4864 -0.6352
   78SLPC  H18Y 7203   3.225   4.248   8.169 -0.2517  0.8528  0.3281
   78SLPC  H18Z 7204   3.286   4.386   8.257 -1.1410 -1.2640  0.1397
   79SLPC     N 7205   0.928   6.061   6.242 -0.6700  0.4644 -0.0039
   79SLPC   C13 7206   1.058   6.014   6.296  0.8875 -0.0614 -0.5241
   79SLPC  H13A 7207   1.130   6.094   6.305 -0.3514  1.2354 -1.7020
   79SLPC  H13B 7208   1.046   5.961   6.390  1.8036 -1.8574 -1.3698
   79SLPC  H13C 7209   1.099   5.939   6.230  0.0522 -1.4067  0.4167
   79SLPC   C14 7210   0.849   5.936   6.216  0.6461 -0.5736  0.2066
   79SLPC  H14A 7211   0.850   5.870   6.301  1.0962 -1.0590 -0.1713
   79SLPC  H14B 7212   0.743   5.953   6.202  0.3062 -1.1542  1.8908
   79SLPC  H14C 7213   0.878   5.888   6.124 -3.3238  0.6232 -1.8931
   79SLPC   C15 7214   0.937   6.145   6.118  0.2390  0.1973  0.1530
   79SLPC  H15A 7215   0.966   6.244   6.149 -0.6925 -0.0797  2.0577
   79SLPC  H15B 7216   1.009   6.104   6.048 -1.0383 -1.6619 -0.1605
   79SLPC  H15C 7217   0.842   6.147   6.067  1.2019 -0.7211 -1.8030
   79SLPC   C12 7218   0.854   6.144   6.343  0.3497 -0.1419 -0.6431
   79SLPC  H12A 7219   0.839   6.079   6.428 -2.0945 -0.0869 -0.9695
   79SLPC  H12B 7220   0.751   6.155   6.313 -0.7213 -1.1084  2.3203
   79SLPC   C11 7221   0.901   6.286   6.388 -0.3423 -0.2999  0.1062
   79SLPC  H11A 7222   1.007   6.269   6.415  0.4177  0.9288 -1.8786
   79SLPC  H11B 7223   0.849   6.313   6.483 -1.3043 -0.0909 -0.4654
   79SLPC     P 7224   0.723   6.420   6.265  0.1893  0.3208 -0.1258
   79SLPC   O13 7225   0.720   6.504   6.139  0.0756  0.6730 -0.0575
   79SLPC   O14 7226   0.634   6.302   6.265  0.0602 -0.1673  0.1103
   79SLPC   O12 7227   0.878   6.385   6.289 -0.0829  0.0094 -0.9726
   79SLPC   O11 7228   0.708   6.503   6.397  0.0227 -0.4582 -0.3773
   79SLPC    C1 7229   0.580   6.541   6.455 -0.5070  0.1514 -0.1971
   79SLPC    HA 7230   0.580   6.652   6.456 -2.1228  0.2853  3.6826
   79SLPC    HB 7231   0.494   6.521   6.389 -1.2266  0.8422  0.5070
   79SLPC    C2 7232   0.557   6.488   6.601  0.4436  0.1996  0.2066
   79SLPC    HS 7233   0.513   6.571   6.659  2.5731  0.5624  1.4108
   79SLPC   O21 7234   0.684   6.455   6.651 -0.3385  0.2086  0.3980
   79SLPC   C21 7235   0.763   6.549   6.689 -0.1192  0.3591 -0.6817
   79SLPC   O22 7236   0.738   6.669   6.693 -0.0726 -0.1615 -0.0785
   79SLPC   C22 7237   0.896   6.498   6.749  0.4932 -0.3327 -0.6494
   79SLPC   H2R 7238   0.946   6.444   6.666 -2.3030 -0.0227 -2.6521
   79SLPC   H2S 7239   0.949   6.592   6.776 -0.1586  0.5858 -2.4087
   79SLPC    C3 7240   0.458   6.364   6.617  0.2523  0.0988  0.3411
   79SLPC    HX 7241   0.488   6.284   6.545 -1.1456  0.2949 -0.4981
   79SLPC    HY 7242   0.358   6.401   6.588  1.0560 -0.2542 -3.4347
   79SLPC   O31 7243   0.453   6.306   6.751  0.2137 -0.0195  0.6727
   79SLPC   C31 7244   0.399   6.379   6.843  0.8037 -0.7812  0.2499
   79SLPC   O32 7245   0.356   6.498   6.830 -0.4048  0.4754  0.0585
   79SLPC   C32 7246   0.435   6.320   6.970 -0.0878  0.6809 -0.3351
   79SLPC   H2X 7247   0.540   6.286   6.980 -0.5208 -1.0513 -1.2291
   79SLPC   H2Y 7248   0.370   6.232   6.990 -2.2496  2.4232  0.8788
   79SLPC   C23 7249   0.890   6.398   6.866 -0.7450  0.5219  0.0903
   79SLPC   H3R 7250   0.980   6.337   6.888 -1.4344 -0.2585  0.8733
   79SLPC   H3S 7251   0.816   6.320   6.838  1.3481 -1.2532 -0.7423
   79SLPC   C24 7252   0.841   6.463   6.994  0.0796  0.2544 -0.5736
   79SLPC   H4R 7253   0.749   6.523   6.980 -0.1713 -0.1019 -0.4758
   79SLPC   H4S 7254   0.928   6.528   7.020 -0.5998  1.3690 -1.0183
   79SLPC   C25 7255   0.820   6.362   7.103 -0.4804 -0.0783  0.0639
   79SLPC   H5R 7256   0.913   6.300   7.102  0.1572  0.8521 -1.0408
   79SLPC   H5S 7257   0.731   6.299   7.083 -1.1578  0.6402  0.7492
   79SLPC   C26 7258   0.795   6.432   7.240 -0.3951 -0.7766 -0.2732
   79SLPC   H6R 7259   0.714   6.507   7.241 -0.0041 -0.3497  0.9303
   79SLPC   H6S 7260   0.889   6.482   7.272  0.3500 -1.8432 -0.7293
   79SLPC   C27 7261   0.782   6.337   7.363  0.1825 -0.0602 -0.1294
   79SLPC   H7R 7262   0.859   6.257   7.368 -1.0874 -1.2674  0.6298
   79SLPC   H7S 7263   0.689   6.279   7.347  0.2685 -0.7736  1.7712
   79SLPC   C28 7264   0.764   6.400   7.502  0.3842 -0.2622  0.0067
   79SLPC   H8R 7265   0.715   6.328   7.571 -2.8373  2.7498  1.1458
   79SLPC   H8S 7266   0.685   6.477   7.490  0.3688 -0.3084 -0.2024
   79SLPC   C29 7267   0.888   6.475   7.554  0.4087  0.6123 -1.2922
   79SLPC   H9R 7268   0.937   6.538   7.478  2.7031  0.3821 -0.0970
   79SLPC  C210 7269   0.940   6.464   7.679  0.1389 -0.5538 -0.4319
   79SLPC  H10R 7270   1.032   6.518   7.702  0.3863 -1.4247  0.7338
   79SLPC  C211 7271   0.880   6.386   7.800  0.2894  0.2162 -0.0982
   79SLPC  H11R 7272   0.771   6.375   7.782  0.5319  1.1279 -2.3472
   79SLPC  H11S 7273   0.885   6.459   7.884 -1.4895 -0.7173  0.8753
   79SLPC  C212 7274   0.937   6.250   7.823  0.7691  0.5433 -0.3535
   79SLPC  H12R 7275   0.962   6.189   7.735  1.3293 -1.7340  1.2777
   79SLPC  C213 7276   0.971   6.198   7.950  0.0079 -0.1675 -0.2114
   79SLPC  H13R 7277   1.014   6.097   7.947  0.1933 -0.1064  0.3805
   79SLPC  C214 7278   0.952   6.263   8.080  0.0214 -0.2365  0.2077
   79SLPC  H14R 7279   0.842   6.278   8.089  0.0455 -0.1664  0.3971
   79SLPC  H14S 7280   0.995   6.365   8.087  1.0467 -0.7455  2.2746
   79SLPC  C215 7281   1.001   6.193   8.206  0.0288 -0.2823  0.6772
   79SLPC  H15R 7282   1.103   6.156   8.182  0.2176  1.2123 -0.9594
   79SLPC  H15S 7283   0.943   6.103   8.238 -0.1504  0.6627  3.2933
   79SLPC  C216 7284   0.994   6.286   8.331 -0.8202  0.4380  0.0157
   79SLPC  H16R 7285   0.885   6.296   8.347 -1.1933 -1.2160 -1.2957
   79SLPC  H16S 7286   1.032   6.390   8.318 -0.1222  0.2211  0.2663
   79SLPC  C217 7287   1.055   6.213   8.455 -0.4640  0.4766 -0.1164
   79SLPC  H17R 7288   1.060   6.285   8.540 -1.1645  0.2491  0.1224
   79SLPC  H17S 7289   1.158   6.188   8.423 -0.4067  1.4033 -0.7175
   79SLPC  C218 7290   0.987   6.085   8.508 -0.3109 -1.2146 -0.9450
   79SLPC  H18R 7291   1.039   6.044   8.597  2.4527  1.4592 -1.1475
   79SLPC  H18S 7292   0.988   6.009   8.427  2.9125  0.5006 -2.7255
   79SLPC  H18T 7293   0.885   6.118   8.535  0.7379 -0.2629  2.3211
   79SLPC   C33 7294   0.403   6.414   7.089 -0.6297 -0.1161  0.3511
   79SLPC   H3X 7295   0.306   6.464   7.070  1.0201  2.5025 -2.0135
   79SLPC   H3Y 7296   0.487   6.486   7.083  0.3415 -1.2939 -1.1842
   79SLPC   C34 7297   0.405   6.343   7.226 -1.2786 -0.0489 -0.1682
   79SLPC   H4X 7298   0.502   6.293   7.248 -1.6626 -1.7153 -1.9960
   79SLPC   H4Y 7299   0.328   6.264   7.216  0.1492 -1.4131 -0.7752
   79SLPC   C35 7300   0.370   6.438   7.343  0.0269  0.7849 -0.4275
   79SLPC   H5X 7301   0.271   6.486   7.329 -1.5210 -1.7954  0.9904
   79SLPC   H5Y 7302   0.451   6.514   7.334  2.6194 -1.6633  0.4936
   79SLPC   C36 7303   0.372   6.362   7.479  0.0555 -1.1931  0.2330
   79SLPC   H6X 7304   0.479   6.337   7.497  0.9797  0.1964 -2.6891
   79SLPC   H6Y 7305   0.307   6.272   7.490 -2.5944  0.8835  6.0976
   79SLPC   C37 7306   0.310   6.450   7.589 -0.2904  0.4819 -0.1246
   79SLPC   H7X 7307   0.206   6.473   7.557 -0.9790 -1.9846  0.1498
   79SLPC   H7Y 7308   0.369   6.544   7.595  1.2899 -0.4840 -0.0947
   79SLPC   C38 7309   0.304   6.375   7.725  0.2092 -0.4010 -0.4168
   79SLPC   H8X 7310   0.276   6.269   7.706  0.1711 -0.3331 -0.7438
   79SLPC   H8Y 7311   0.230   6.430   7.785 -0.1589 -2.2460  0.9066
   79SLPC   C39 7312   0.440   6.372   7.806  0.4958  0.0695  0.2753
   79SLPC   H9X 7313   0.485   6.472   7.821 -0.1755  0.6188 -1.2078
   79SLPC   H9Y 7314   0.503   6.298   7.752  0.4672  0.4641 -0.3034
   79SLPC  C310 7315   0.406   6.325   7.948  0.2765  0.0287 -0.7341
   79SLPC  H10X 7316   0.324   6.250   7.946  0.2076  0.1158 -1.0744
   79SLPC  H10Y 7317   0.362   6.414   7.997  1.3660  0.3892 -0.3808
   79SLPC  C311 7318   0.524   6.273   8.028  0.0231 -0.0440  0.6752
   79SLPC  H11X 7319   0.608   6.342   8.005 -1.1281  1.6409  1.3226
   79SLPC  H11Y 7320   0.546   6.172   7.988  0.6087 -0.4928  2.0661
   79SLPC  C312 7321   0.508   6.261   8.180 -0.2102 -0.0822  0.0852
   79SLPC  H12X 7322   0.590   6.202   8.228 -1.3576  0.4019  2.8152
   79SLPC  H12Y 7323   0.409   6.218   8.203 -1.1371  1.1864 -1.3491
   79SLPC  C313 7324   0.516   6.405   8.240  0.3720 -0.2064 -0.2482
   79SLPC  H13X 7325   0.416   6.454   8.241  1.4449  2.1278  0.6948
   79SLPC  H13Y 7326   0.580   6.470   8.177 -1.4948  1.9949  0.0009
   79SLPC  C314 7327   0.547   6.395   8.391 -0.1831  0.8637 -1.3140
   79SLPC  H14X 7328   0.575   6.497   8.423 -0.1091  0.9572 -1.6814
   79SLPC  H14Y 7329   0.630   6.322   8.402 -2.4880 -1.9908 -1.5553
   79SLPC  C315 7330   0.428   6.347   8.473 -0.2670 -0.2701 -0.0811
   79SLPC  H15X 7331   0.380   6.259   8.425  2.6990 -2.2119  0.2038
   79SLPC  H15Y 7332   0.358   6.432   8.478 -1.2572 -1.0269 -0.7089
   79SLPC  C316 7333   0.457   6.316   8.624  0.2679  0.6919 -0.1012
   79SLPC  H16X 7334   0.359   6.276   8.659  0.3939  0.1160 -0.3980
   79SLPC  H16Y 7335   0.489   6.411   8.672 -0.0937  1.0482 -0.5552
   79SLPC  C317 7336   0.565   6.202   8.646  0.3830 -0.4387 -0.1036
   79SLPC  H17X 7337   0.660   6.258   8.641  0.1398 -0.0265 -0.1870
   79SLPC  H17Y 7338   0.556   6.141   8.554 -0.1969  2.0893 -1.8314
   79SLPC  C318 7339   0.556   6.120   8.774  0.2182 -0.5639 -0.4158
   79SLPC  H18X 7340   0.451   6.083   8.777 -0.3393  0.9472 -0.5076
   79SLPC  H18Y 7341   0.564   6.176   8.870 -0.3745 -1.7099  0.3348
   79SLPC  H18Z 7342   0.627   6.035   8.766  1.0692 -0.3208  2.9834
   80SLPC     N 7343   1.401   2.572   6.119  0.2097 -0.2468 -0.0031
   80SLPC   C13 7344   1.468   2.699   6.069  0.7992  0.0369 -0.0085
   80SLPC  H13A 7345   1.563   2.704   6.122  0.1004 -1.2758  1.4343
   80SLPC  H13B 7346   1.494   2.686   5.965  1.0397  2.7235 -0.3708
   80SLPC  H13C 7347   1.404   2.780   6.101  0.9311  0.0364  0.2634
   80SLPC   C14 7348   1.494   2.459   6.102  0.1571  0.0229  0.7371
   80SLPC  H14A 7349   1.454   2.365   6.138 -0.3699 -0.2380 -0.4613
   80SLPC  H14B 7350   1.522   2.437   6.000  0.0219 -0.4781  0.8057
   80SLPC  H14C 7351   1.588   2.475   6.153  0.2614 -0.0919  0.5828
   80SLPC   C15 7352   1.275   2.545   6.040  0.2963  0.6353  0.7996
   80SLPC  H15A 7353   1.280   2.532   5.933 -0.5578 -1.3682  0.9665
   80SLPC  H15B 7354   1.225   2.462   6.087 -0.2606  1.0985  1.0406
   80SLPC  H15C 7355   1.209   2.629   6.058 -1.0705 -0.2174 -0.0296
   80SLPC   C12 7356   1.365   2.585   6.269 -0.0177 -0.0281 -0.2057
   80SLPC  H12A 7357   1.276   2.646   6.269 -0.4221 -0.5744 -1.6777
   80SLPC  H12B 7358   1.441   2.638   6.323 -1.4279  0.7180  1.0998
   80SLPC   C11 7359   1.344   2.449   6.348  0.5875 -0.2779  0.3481
   80SLPC  H11A 7360   1.356   2.453   6.458  0.5405 -4.4304  0.6546
   80SLPC  H11B 7361   1.436   2.388   6.334 -0.0590 -1.0990 -0.4602
   80SLPC     P 7362   1.081   2.444   6.365 -0.3485  0.1695  0.0198
   80SLPC   O13 7363   1.089   2.593   6.351 -0.8839  0.1243  0.4230
   80SLPC   O14 7364   0.967   2.369   6.301 -0.7243 -0.4233 -0.0037
   80SLPC   O12 7365   1.220   2.385   6.315  0.3648  0.7546  0.7270
   80SLPC   O11 7366   1.078   2.414   6.524  0.2166  0.3764  0.9451
   80SLPC    C1 7367   1.063   2.280   6.566  0.8449  0.0119  1.0175
   80SLPC    HA 7368   1.104   2.216   6.485 -2.3571  1.4064 -1.9545
   80SLPC    HB 7369   1.121   2.267   6.660  0.8517  2.6392  1.4489
   80SLPC    C2 7370   0.907   2.250   6.596  0.0915 -1.1018 -0.5558
   80SLPC    HS 7371   0.843   2.309   6.526  1.8036  0.2303 -1.0608
   80SLPC   O21 7372   0.879   2.297   6.736 -0.0634 -0.0821  0.2203
   80SLPC   C21 7373   0.752   2.315   6.760 -0.2221 -0.1186 -0.2431
   80SLPC   O22 7374   0.660   2.302   6.679  0.5236  0.3807 -0.2032
   80SLPC   C22 7375   0.736   2.384   6.888  0.2932 -0.8813 -0.4769
   80SLPC   H2R 7376   0.793   2.336   6.970  0.1672  1.1273  0.8402
   80SLPC   H2S 7377   0.794   2.478   6.891  1.1614 -1.4105 -0.3443
   80SLPC    C3 7378   0.861   2.100   6.571  0.4465 -0.8949  0.3779
   80SLPC    HX 7379   0.907   2.078   6.472  2.5451  0.9808  0.8559
   80SLPC    HY 7380   0.751   2.111   6.561  0.5764 -1.3064 -2.1365
   80SLPC   O31 7381   0.894   2.013   6.674 -0.6546 -0.1849  0.1447
   80SLPC   C31 7382   1.013   1.963   6.669 -0.0978  0.2434 -0.1551
   80SLPC   O32 7383   1.093   1.970   6.576  0.0377 -0.9594  0.9320
   80SLPC   C32 7384   1.050   1.880   6.793 -0.4066 -0.1209 -0.1485
   80SLPC   H2X 7385   1.134   1.939   6.835 -0.1536  2.4938 -3.8215
   80SLPC   H2Y 7386   1.101   1.787   6.760 -0.5612 -0.2310 -0.0814
   80SLPC   C23 7387   0.596   2.405   6.931  0.1644 -0.2045 -0.2298
   80SLPC   H3R 7388   0.529   2.318   6.920 -0.5609  0.1152  1.3652
   80SLPC   H3S 7389   0.555   2.489   6.870 -0.9379 -0.3946  0.2294
   80SLPC   C24 7390   0.586   2.427   7.089  0.1869 -0.0123  0.1042
   80SLPC   H4R 7391   0.645   2.512   7.128  0.2322  0.8161 -1.6968
   80SLPC   H4S 7392   0.609   2.339   7.153 -0.7875  0.8468  1.6939
   80SLPC   C25 7393   0.439   2.453   7.129 -0.6275 -0.0947  0.6693
   80SLPC   H5R 7394   0.371   2.377   7.086 -1.3621 -0.2203  1.9934
   80SLPC   H5S 7395   0.406   2.550   7.086 -1.5148 -1.1194 -1.0514
   80SLPC   C26 7396   0.424   2.450   7.276  0.4394 -0.6397  0.0486
   80SLPC   H6R 7397   0.410   2.554   7.311 -1.3785 -0.3973 -1.2545
   80SLPC   H6S 7398   0.508   2.405   7.333  1.4307 -0.4019 -1.1796
   80SLPC   C27 7399   0.297   2.375   7.314  0.6463 -0.1076 -1.0442
   80SLPC   H7R 7400   0.308   2.266   7.298  0.8225 -0.7437  2.6267
   80SLPC   H7S 7401   0.210   2.411   7.255  0.7558  1.6606 -0.2154
   80SLPC   C28 7402   0.270   2.381   7.473  0.4265  0.1343  0.5263
   80SLPC   H8R 7403   0.186   2.310   7.493  0.3197 -0.8350 -2.7169
   80SLPC   H8S 7404   0.229   2.483   7.491  1.1726  0.7219 -0.9409
   80SLPC   C29 7405   0.382   2.342   7.561 -0.0228 -0.1645  0.3638
   80SLPC   H9R 7406   0.424   2.242   7.541 -0.6415 -0.4354  0.3693
   80SLPC  C210 7407   0.441   2.415   7.655 -0.5501 -0.1791  0.3379
   80SLPC  H10R 7408   0.521   2.362   7.709  0.4961 -0.0598 -1.0556
   80SLPC  C211 7409   0.415   2.553   7.702 -0.7134 -0.2171  0.0475
   80SLPC  H11R 7410   0.346   2.613   7.639  1.2463  1.9884 -0.1831
   80SLPC  H11S 7411   0.516   2.600   7.705 -0.1470 -1.3374 -0.7396
   80SLPC  C212 7412   0.357   2.537   7.832  0.1836 -0.0892  0.7199
   80SLPC  H12R 7413   0.273   2.467   7.847 -1.3696  1.0836 -1.7809
   80SLPC  C213 7414   0.391   2.609   7.944 -0.3651 -0.0564  0.4803
   80SLPC  H13R 7415   0.334   2.592   8.036 -1.8503 -1.7781 -0.7017
   80SLPC  C214 7416   0.494   2.723   7.942 -0.7697  0.3411  0.2448
   80SLPC  H14R 7417   0.449   2.809   7.996 -0.4711 -0.1981  1.3712
   80SLPC  H14S 7418   0.516   2.748   7.836  0.6207 -1.1476  0.1355
   80SLPC  C215 7419   0.636   2.708   7.998  0.8099  0.6985  0.0951
   80SLPC  H15R 7420   0.684   2.808   8.002 -0.2492  1.2292  0.0095
   80SLPC  H15S 7421   0.690   2.627   7.946  0.7804 -0.0498  1.1989
   80SLPC  C216 7422   0.630   2.667   8.143  0.5066  0.2632  0.4876
   80SLPC  H16R 7423   0.729   2.634   8.182  1.2299  2.3013  0.4756
   80SLPC  H16S 7424   0.561   2.580   8.155  2.4479 -1.9322 -2.6304
   80SLPC  C217 7425   0.577   2.779   8.231 -0.5880 -0.6179 -1.0884
   80SLPC  H17R 7426   0.475   2.816   8.205 -0.1421  1.5244  0.0201
   80SLPC  H17S 7427   0.640   2.869   8.221 -1.0847  0.0480  1.1886
   80SLPC  C218 7428   0.595   2.734   8.379 -0.4969 -0.0012  0.4841
   80SLPC  H18R 7429   0.528   2.646   8.392 -0.5620  0.0085  0.2176
   80SLPC  H18S 7430   0.572   2.821   8.445 -1.5176  0.2823 -0.2219
   80SLPC  H18T 7431   0.701   2.702   8.387  0.5736  2.4740 -2.0821
   80SLPC   C33 7432   0.939   1.842   6.887 -0.0470  0.3340  0.2617
   80SLPC   H3X 7433   0.872   1.764   6.845  0.9947 -0.9128  0.8500
   80SLPC   H3Y 7434   0.870   1.928   6.897 -0.0224  0.2639  1.1063
   80SLPC   C34 7435   1.004   1.790   7.014  0.6459 -1.1186  0.5547
   80SLPC   H4X 7436   1.074   1.865   7.058 -0.6203  0.6469 -0.3555
   80SLPC   H4Y 7437   1.073   1.713   6.972  2.0490  0.7782 -0.8378
   80SLPC   C35 7438   0.904   1.750   7.125  0.1641  0.2451 -0.2654
   80SLPC   H5X 7439   0.836   1.667   7.096 -0.2336 -0.3961  2.2053
   80SLPC   H5Y 7440   0.838   1.836   7.147 -0.5650 -0.7010  1.4677
   80SLPC   C36 7441   0.975   1.713   7.250 -0.6796 -0.0213 -0.6742
   80SLPC   H6X 7442   1.035   1.801   7.281 -0.5285 -0.3812  0.0685
   80SLPC   H6Y 7443   1.037   1.621   7.238 -0.9367 -0.1754 -0.8252
   80SLPC   C37 7444   0.886   1.696   7.383  0.5605  0.1482  0.0202
   80SLPC   H7X 7445   0.811   1.614   7.379 -0.9882  1.3335  2.2311
   80SLPC   H7Y 7446   0.827   1.790   7.392 -1.3318 -1.0220  0.4802
   80SLPC   C38 7447   0.980   1.682   7.507  0.6779  0.4369  0.6448
   80SLPC   H8X 7448   1.059   1.760   7.504  4.5352 -3.0218 -4.1189
   80SLPC   H8Y 7449   1.038   1.591   7.478 -2.8241 -0.9056 -2.9735
   80SLPC   C39 7450   0.910   1.667   7.638  0.0089  0.0761 -0.3150
   80SLPC   H9X 7451   0.852   1.576   7.612 -0.7058  0.7257 -1.0505
   80SLPC   H9Y 7452   0.839   1.751   7.654 -2.5406 -2.1704  0.8642
   80SLPC  C310 7453   1.008   1.658   7.755  0.6216 -0.3655 -0.0541
   80SLPC  H10X 7454   1.037   1.763   7.775  0.0455 -0.2707  0.2721
   80SLPC  H10Y 7455   1.104   1.612   7.722  1.3501 -0.2633  1.8042
   80SLPC  C311 7456   0.951   1.600   7.880 -0.6036  0.0232 -0.2215
   80SLPC  H11X 7457   1.016   1.611   7.970 -2.2171  0.5486  0.9217
   80SLPC  H11Y 7458   0.953   1.489   7.873  1.3291 -0.0530  0.7860
   80SLPC  C312 7459   0.815   1.656   7.926  0.4628 -0.6519  0.1294
   80SLPC  H12X 7460   0.744   1.615   7.850  0.0489  0.6709 -0.2180
   80SLPC  H12Y 7461   0.801   1.766   7.916 -0.2839 -0.8099 -0.6780
   80SLPC  C313 7462   0.784   1.622   8.074 -0.6579 -0.1596 -0.2890
   80SLPC  H13X 7463   0.872   1.641   8.139  0.1145 -0.0737 -1.3209
   80SLPC  H13Y 7464   0.764   1.513   8.079  1.3841 -0.7243 -2.4103
   80SLPC  C314 7465   0.665   1.690   8.141  1.2841  0.4441 -0.2156
   80SLPC  H14X 7466   0.573   1.667   8.083  0.4935 -0.1886  1.2426
   80SLPC  H14Y 7467   0.679   1.800   8.134  1.1295  0.5456  0.8834
   80SLPC  C315 7468   0.625   1.649   8.288 -0.1927  0.4256  0.0019
   80SLPC  H15X 7469   0.531   1.706   8.304  0.4150  1.6594 -0.6898
   80SLPC  H15Y 7470   0.709   1.681   8.353  0.3629  0.1980 -0.5928
   80SLPC  C316 7471   0.601   1.501   8.318  0.0454  0.0914 -0.5833
   80SLPC  H16X 7472   0.697   1.453   8.287 -1.1434 -2.5771 -0.4072
   80SLPC  H16Y 7473   0.524   1.490   8.240 -0.2997  0.2883 -0.2736
   80SLPC  C317 7474   0.566   1.465   8.462 -0.7356  0.1361  0.1574
   80SLPC  H17X 7475   0.608   1.545   8.526 -0.5798  0.7108 -0.6435
   80SLPC  H17Y 7476   0.615   1.372   8.500 -0.7601 -0.3544 -0.9808
   80SLPC  C318 7477   0.417   1.446   8.488  0.1129  0.5392 -0.4483
   80SLPC  H18X 7478   0.388   1.436   8.595 -1.0937 -1.2550 -0.8857
   80SLPC  H18Y 7479   0.377   1.355   8.437 -4.6145  1.3691  1.2819
   80SLPC  H18Z 7480   0.363   1.529   8.438  0.2049  0.2369 -1.0651
   81SAPS     N 7481   2.003   5.301  11.323 -0.1742  0.6647 -0.2848
   81SAPS   HN1 7482   2.100   5.337  11.335  0.5145 -1.0456 -0.5052
   81SAPS   HN2 7483   1.944   5.364  11.264 -0.9938 -0.8238 -1.1114
   81SAPS   HN3 7484   1.962   5.311  11.418 -0.5380 -0.7868 -0.2627
   81SAPS   C12 7485   2.042   5.163  11.278  0.5625 -0.9060  0.2477
   81SAPS  H12A 7486   2.130   5.179  11.218 -0.2151 -0.6070 -0.8363
   81SAPS   C13 7487   2.063   5.053  11.386  0.9494 -0.6158  0.3158
   81SAPS  O13A 7488   2.013   5.073  11.501 -0.4818  0.3468  0.4900
   81SAPS  O13B 7489   2.075   4.934  11.348  0.1211  0.2049 -0.1386
   81SAPS   C11 7490   1.932   5.119  11.172 -0.0880 -0.5037 -0.5156
   81SAPS  H11A 7491   1.834   5.107  11.223 -0.8636  1.1208 -1.5629
   81SAPS  H11B 7492   1.963   5.015  11.147 -1.8213 -1.8175  2.2550
   81SAPS     P 7493   1.800   5.187  10.960 -0.1818 -0.0375  0.2946
   81SAPS   O13 7494   1.671   5.170  11.031 -0.2205  0.7246  0.4018
   81SAPS   O14 7495   1.810   5.309  10.872 -0.4852 -0.2789 -0.3515
   81SAPS   O12 7496   1.921   5.208  11.064  0.3850 -0.4390 -0.3115
   81SAPS   O11 7497   1.837   5.056  10.879 -0.5136  0.4556  0.2687
   81SAPS    C1 7498   1.976   5.050  10.844  0.2723  0.2754  0.4137
   81SAPS    HA 7499   2.044   5.134  10.871  0.4482  0.0399  0.7096
   81SAPS    HB 7500   2.016   4.952  10.879  1.0354  0.0903 -0.9132
   81SAPS    C2 7501   1.975   5.031  10.684  0.2612  0.2744  0.9903
   81SAPS    HS 7502   2.079   5.023  10.646  0.3702  0.7098  1.1889
   81SAPS   O21 7503   1.914   5.149  10.627  0.2855 -0.3722 -0.5258
   81SAPS   C21 7504   1.991   5.251  10.610 -0.2673 -0.0336 -0.1285
   81SAPS   O22 7505   2.112   5.252  10.632 -0.3406  0.4724 -0.0726
   81SAPS   C22 7506   1.918   5.357  10.536  0.0133  0.2634 -0.0831
   81SAPS   H2R 7507   1.811   5.337  10.513  0.1148  0.5921 -0.8761
   81SAPS   H2S 7508   1.919   5.441  10.608 -2.7339  1.8037 -1.6815
   81SAPS    C3 7509   1.892   4.903  10.632 -0.2898 -0.1521 -1.3151
   81SAPS    HX 7510   1.783   4.914  10.649 -0.4009 -2.0387 -0.4649
   81SAPS    HY 7511   1.930   4.814  10.687 -0.0448  0.0677 -1.1252
   81SAPS   O31 7512   1.925   4.878  10.495  0.2206  0.4108 -0.2999
   81SAPS   C31 7513   1.824   4.914  10.414 -0.3803 -0.2243  0.0595
   81SAPS   O32 7514   1.730   4.981  10.446  0.5032  0.3621 -0.1821
   81SAPS   C32 7515   1.846   4.852  10.273  0.1868  0.2101 -0.2784
   81SAPS   H2X 7516   1.803   4.749  10.273 -2.2248  1.1439  0.0013
   81SAPS   H2Y 7517   1.956   4.849  10.258  0.2154 -2.1474  0.0225
   81SAPS   C23 7518   1.985   5.395  10.406 -0.0685 -0.1439  0.2859
   81SAPS   H3R 7519   2.093   5.416  10.420  0.5477 -3.0255  0.4235
   81SAPS   H3S 7520   1.937   5.487  10.366 -1.9154 -1.4852 -0.7650
   81SAPS   C24 7521   1.959   5.292  10.290  0.0073  0.0627  0.4874
   81SAPS   H4R 7522   1.850   5.302  10.271  0.1593 -0.6227 -0.8298
   81SAPS   H4S 7523   1.979   5.195  10.342 -1.1558  0.1247  1.0822
   81SAPS   C25 7524   2.035   5.320  10.172 -0.0017  0.3431  0.5986
   81SAPS   H5R 7525   2.141   5.290  10.176  0.1701  0.9640  0.8364
   81SAPS   C26 7526   1.991   5.372  10.049  0.6572 -0.2914  0.1989
   81SAPS   H6R 7527   2.071   5.381   9.974  0.3336  0.3437 -0.0729
   81SAPS   C27 7528   1.850   5.401   9.999 -0.9334 -0.2409 -0.1710
   81SAPS   H7R 7529   1.786   5.419  10.088  0.3638  2.1326  0.3694
   81SAPS   H7S 7530   1.814   5.311   9.945  1.4666 -0.1144 -2.1737
   81SAPS   C28 7531   1.850   5.526   9.916  0.6708  0.4731 -0.0376
   81SAPS   H8R 7532   1.861   5.618   9.975  3.1177  0.1020  0.1948
   81SAPS   C29 7533   1.869   5.545   9.781 -0.2656  0.8766  0.0789
   81SAPS   H9R 7534   1.872   5.646   9.737 -0.7629  1.3898  1.1803
   81SAPS  C210 7535   1.874   5.436   9.672 -0.0966 -0.6085 -0.0949
   81SAPS  H10R 7536   1.901   5.335   9.710  1.3931 -1.1326 -2.3210
   81SAPS  H10S 7537   1.957   5.464   9.603  1.0122 -0.1357  1.3856
   81SAPS  C211 7538   1.749   5.422   9.597 -0.4631 -0.4847 -0.1270
   81SAPS  H11R 7539   1.675   5.363   9.652 -0.5440 -0.3317 -0.0709
   81SAPS  C212 7540   1.730   5.457   9.467  0.0634  0.0892  0.0632
   81SAPS  H12R 7541   1.629   5.448   9.423  1.4731 -0.3602 -3.4315
   81SAPS  C213 7542   1.821   5.522   9.371  0.5898 -0.3732  0.3969
   81SAPS  H13R 7543   1.887   5.594   9.424 -0.0890  0.4911  0.1036
   81SAPS  H13S 7544   1.747   5.577   9.309 -0.5078 -1.3633  0.7885
   81SAPS  C214 7545   1.906   5.427   9.289  0.1017  0.6405 -0.1483
   81SAPS  H14R 7546   1.950   5.351   9.355  0.8289  0.0381 -1.3020
   81SAPS  C215 7547   1.914   5.427   9.156  0.3156  0.2666 -0.5991
   81SAPS  H15R 7548   1.964   5.340   9.110 -0.3705  0.1007 -1.0333
   81SAPS  C216 7549   1.861   5.523   9.063  0.3670 -0.0197  0.8641
   81SAPS  H16R 7550   1.927   5.612   9.065  1.1939 -0.5131 -1.4145
   81SAPS  H16S 7551   1.756   5.551   9.086 -0.1657 -0.0078 -1.4326
   81SAPS  C217 7552   1.861   5.455   8.926  0.8477  0.3079 -1.1476
   81SAPS  H17R 7553   1.806   5.360   8.932  1.3445  0.0197 -1.1003
   81SAPS  H17S 7554   1.968   5.436   8.902  0.8881  0.7378 -1.3188
   81SAPS  C218 7555   1.801   5.555   8.824 -0.0659  0.0041  0.0401
   81SAPS  H18R 7556   1.869   5.639   8.800 -0.7974 -0.0092 -2.3852
   81SAPS  H18S 7557   1.713   5.602   8.875 -1.0701 -1.5378 -0.2117
   81SAPS  C219 7558   1.756   5.491   8.693  0.5658 -0.3863 -0.3445
   81SAPS  H19R 7559   1.648   5.506   8.671  0.3397 -0.8796  0.4184
   81SAPS  H19S 7560   1.773   5.382   8.694  0.2409 -0.4362  0.8594
   81SAPS  C220 7561   1.842   5.550   8.580 -0.0619 -0.0441  0.1745
   81SAPS  H20R 7562   1.814   5.501   8.484  1.8784  2.6464 -1.9033
   81SAPS  H20S 7563   1.950   5.543   8.604  0.0597 -0.6896 -0.5141
   81SAPS  H20T 7564   1.818   5.657   8.566  1.1058  0.3627  1.1177
   81SAPS   C33 7565   1.790   4.945  10.167 -0.2229  0.0400  0.3305
   81SAPS   H3X 7566   1.830   5.047  10.184  2.7500 -1.0710  0.5597
   81SAPS   H3Y 7567   1.679   4.941  10.164 -0.1854 -0.5441 -1.1583
   81SAPS   C34 7568   1.831   4.902  10.024  0.3221  0.4354 -0.2746
   81SAPS   H4X 7569   1.788   4.804   9.992  0.7636 -0.5309  1.9409
   81SAPS   H4Y 7570   1.942   4.895  10.024  0.2862 -0.2413  0.0285
   81SAPS   C35 7571   1.792   5.001   9.919 -0.1390  0.9761  0.0667
   81SAPS   H5X 7572   1.854   5.093   9.927 -0.4080  1.3284 -1.5227
   81SAPS   H5Y 7573   1.685   5.028   9.936 -1.1971 -1.4900 -2.0830
   81SAPS   C36 7574   1.798   4.941   9.780 -0.2632 -0.1236 -0.2836
   81SAPS   H6X 7575   1.753   4.840   9.769 -0.7391  0.0171  0.2924
   81SAPS   H6Y 7576   1.903   4.919   9.751 -0.4015  1.3368 -2.1045
   81SAPS   C37 7577   1.723   5.024   9.669  0.2205 -0.5117 -0.0181
   81SAPS   H7X 7578   1.764   5.127   9.661 -0.8447 -0.0443  0.3361
   81SAPS   H7Y 7579   1.617   5.033   9.699  1.1909  1.5271  3.3890
   81SAPS   C38 7580   1.739   4.956   9.536  0.1971  0.4004  0.4627
   81SAPS   H8X 7581   1.647   4.982   9.479 -0.6049 -4.0414 -0.7182
   81SAPS   H8Y 7582   1.747   4.846   9.553 -0.2795  0.3959  0.6468
   81SAPS   C39 7583   1.865   5.005   9.459 -0.3881  0.4909  0.5727
   81SAPS   H9X 7584   1.955   4.979   9.517 -0.3834  1.0820  0.8400
   81SAPS   H9Y 7585   1.859   5.115   9.442 -1.4304  0.3122 -0.4234
   81SAPS  C310 7586   1.877   4.959   9.312  0.0017 -0.6526  0.1198
   81SAPS  H10X 7587   1.787   4.980   9.251 -0.3262  0.9129  1.0820
   81SAPS  H10Y 7588   1.893   4.849   9.311 -3.8206 -1.4054 -3.2030
   81SAPS  C311 7589   2.002   5.015   9.244  0.1735 -0.5911 -0.1675
   81SAPS  H11X 7590   2.098   4.960   9.254  0.1321 -0.3705  2.0325
   81SAPS  H11Y 7591   2.008   5.120   9.280 -1.9670  0.1976 -1.8333
   81SAPS  C312 7592   1.986   5.038   9.092  0.3724  0.3527 -0.2066
   81SAPS  H12X 7593   1.913   5.121   9.083 -0.0865  0.0337  0.4653
   81SAPS  H12Y 7594   1.928   4.955   9.047 -1.3207 -1.0672  4.0792
   81SAPS  C313 7595   2.119   5.062   9.011 -0.5209 -0.2730 -0.3910
   81SAPS  H13X 7596   2.184   4.974   9.031 -2.4025 -1.7662 -0.6347
   81SAPS  H13Y 7597   2.160   5.154   9.058 -2.2015  0.0584  0.4723
   81SAPS  C314 7598   2.086   5.070   8.862 -0.4144  0.2980  0.3663
   81SAPS  H14X 7599   2.021   5.158   8.845 -0.7519 -0.0095  0.0219
   81SAPS  H14Y 7600   2.031   4.979   8.830 -0.9366  0.6082  0.3750
   81SAPS  C315 7601   2.219   5.068   8.778  0.1434 -0.7759 -0.2199
   81SAPS  H15X 7602   2.185   5.100   8.678 -0.3973 -0.9025 -0.0805
   81SAPS  H15Y 7603   2.262   4.966   8.769  4.3579  0.8319 -0.4498
   81SAPS  C316 7604   2.319   5.170   8.836 -0.0220 -0.6622  0.3157
   81SAPS  H16X 7605   2.364   5.124   8.926 -2.0812 -1.7270  0.8637
   81SAPS  H16Y 7606   2.258   5.260   8.856 -3.7709 -1.8775 -3.8855
   81SAPS  C317 7607   2.432   5.208   8.745  0.2642  0.3092 -0.4739
   81SAPS  H17X 7608   2.388   5.281   8.674 -2.8407  0.5761  1.5356
   81SAPS  H17Y 7609   2.464   5.119   8.687  1.2622  0.7659 -0.6468
   81SAPS  C318 7610   2.549   5.280   8.821  0.3443  0.0843 -0.5833
   81SAPS  H18X 7611   2.604   5.214   8.891 -0.8778 -1.5154 -1.0565
   81SAPS  H18Y 7612   2.510   5.371   8.871 -1.3540  0.2926 -2.1529
   81SAPS  H18Z 7613   2.625   5.313   8.747  1.0221  1.9185  0.8738
   82SAPS     N 7614   1.698   4.262  11.312  0.0583  0.3866 -0.1573
   82SAPS   HN1 7615   1.666   4.238  11.408  2.1566 -0.6334  0.3680
   82SAPS   HN2 7616   1.716   4.170  11.267 -0.6443 -0.9664  2.1200
   82SAPS   HN3 7617   1.787   4.317  11.313  0.1586  0.2583  1.2737
   82SAPS   C12 7618   1.604   4.333  11.227 -0.3626 -0.1928 -0.1512
   82SAPS  H12A 7619   1.505   4.296  11.247 -0.2613 -2.0773 -2.6259
   82SAPS   C13 7620   1.621   4.490  11.247  0.3262 -0.1434 -0.2670
   82SAPS  O13A 7621   1.711   4.532  11.320 -0.0865 -0.3662 -0.0709
   82SAPS  O13B 7622   1.537   4.565  11.195  0.2955 -0.2093  0.5659
   82SAPS   C11 7623   1.637   4.289  11.083 -0.1361  0.3186 -0.2140
   82SAPS  H11A 7624   1.720   4.348  11.038  1.0920 -2.3247 -1.6265
   82SAPS  H11B 7625   1.547   4.319  11.024 -0.7345 -1.4270 -0.2461
   82SAPS     P 7626   1.655   4.095  10.923  0.1498 -0.0825  0.4465
   82SAPS   O13 7627   1.733   4.186  10.837  1.0716 -0.1959 -0.3804
   82SAPS   O14 7628   1.691   3.952  10.911  0.1117 -0.0457 -0.3406
   82SAPS   O12 7629   1.662   4.148  11.072  0.3771  0.2320 -0.2820
   82SAPS   O11 7630   1.495   4.111  10.899  0.4234  0.0890 -0.0403
   82SAPS    C1 7631   1.435   4.043  10.798  0.0468  0.0807  0.7792
   82SAPS    HA 7632   1.488   3.947  10.778  0.4684  0.5775 -0.5305
   82SAPS    HB 7633   1.331   4.013  10.822 -1.6337  2.7832 -2.4492
   82SAPS    C2 7634   1.405   4.125  10.666 -0.5552 -0.6859  0.2766
   82SAPS    HS 7635   1.320   4.076  10.614 -1.4165  2.2968 -1.3557
   82SAPS   O21 7636   1.518   4.128  10.580 -0.4850  0.6076  0.1086
   82SAPS   C21 7637   1.552   4.004  10.527 -0.1394  0.2425  0.2469
   82SAPS   O22 7638   1.496   3.899  10.542  0.0279 -0.0075 -0.5876
   82SAPS   C22 7639   1.686   4.021  10.455  0.1414  0.1911  0.5512
   82SAPS   H2R 7640   1.666   4.059  10.352  1.6625  0.3756  0.3096
   82SAPS   H2S 7641   1.752   4.088  10.513  0.3446  1.8102 -1.4276
   82SAPS    C3 7642   1.353   4.267  10.696  0.7736  0.5504 -1.2722
   82SAPS    HX 7643   1.439   4.311  10.750  1.1386 -1.0791 -0.4687
   82SAPS    HY 7644   1.265   4.275  10.764  0.3919  1.0993 -1.8154
   82SAPS   O31 7645   1.321   4.335  10.576  0.0095  0.4516  0.4284
   82SAPS   C31 7646   1.377   4.449  10.549  0.1022  0.5496  0.5422
   82SAPS   O32 7647   1.455   4.509  10.618  0.1346  0.2933  0.1986
   82SAPS   C32 7648   1.327   4.493  10.415 -0.5813 -0.0413 -0.4776
   82SAPS   H2X 7649   1.219   4.478  10.391 -0.3196  0.4092 -2.0920
   82SAPS   H2Y 7650   1.367   4.416  10.344  2.2733 -0.4714  1.4247
   82SAPS   C23 7651   1.759   3.891  10.425 -0.0517  0.0608 -0.7639
   82SAPS   H3R 7652   1.717   3.838  10.338  0.7620  0.1090 -1.1989
   82SAPS   H3S 7653   1.758   3.821  10.512 -0.4570  0.8057 -0.1571
   82SAPS   C24 7654   1.909   3.927  10.396  0.0616  0.4753 -0.0705
   82SAPS   H4R 7655   1.941   3.998  10.475 -3.2621  1.1261  0.8894
   82SAPS   H4S 7656   1.911   3.986  10.302  0.0833  0.3475 -0.1508
   82SAPS   C25 7657   1.993   3.807  10.370 -0.3321 -0.3478  0.5861
   82SAPS   H5R 7658   1.998   3.746  10.461 -0.5835 -2.8212 -0.9728
   82SAPS   C26 7659   2.061   3.767  10.258  0.1694 -0.1876  0.1175
   82SAPS   H6R 7660   2.111   3.670  10.258  0.6170  0.0241  1.2350
   82SAPS   C27 7661   2.056   3.849  10.126 -0.4916 -1.2636  0.7617
   82SAPS   H7R 7662   2.159   3.849  10.085 -0.9728  0.5939 -0.5780
   82SAPS   H7S 7663   2.028   3.955  10.143  0.6423 -0.9490  0.7479
   82SAPS   C28 7664   1.967   3.774  10.033 -0.1010  0.6823  0.3029
   82SAPS   H8R 7665   1.955   3.665  10.046  2.4276  0.0930 -1.3491
   82SAPS   C29 7666   1.898   3.830   9.931  0.2327 -0.2777 -0.3305
   82SAPS   H9R 7667   1.819   3.769   9.884  1.1637 -2.5484  0.8734
   82SAPS  C210 7668   1.906   3.968   9.876  0.0681 -0.3496 -0.4412
   82SAPS  H10R 7669   1.965   4.032   9.945 -1.5615 -1.3605  2.0468
   82SAPS  H10S 7670   1.812   4.026   9.889  0.5918  0.5414 -0.5007
   82SAPS  C211 7671   1.934   3.973   9.735  0.2816  0.2301  0.2338
   82SAPS  H11R 7672   2.040   3.982   9.708  0.1221 -1.5727 -1.1642
   82SAPS  C212 7673   1.845   3.944   9.635 -0.5207 -1.0433  0.7247
   82SAPS  H12R 7674   1.886   3.939   9.533  0.3974  1.6725  0.8821
   82SAPS  C213 7675   1.701   3.915   9.653 -0.4781  0.2531 -0.4543
   82SAPS  H13R 7676   1.673   3.908   9.760 -0.3973  1.9307 -0.2903
   82SAPS  H13S 7677   1.667   3.820   9.606 -0.9999  0.7343 -1.0817
   82SAPS  C214 7678   1.616   4.033   9.603  1.0836  0.2167 -1.1113
   82SAPS  H14R 7679   1.618   4.049   9.494 -0.9176 -0.9694 -1.3759
   82SAPS  C215 7680   1.525   4.097   9.678  0.4676 -0.5507  0.6854
   82SAPS  H15R 7681   1.458   4.168   9.629 -0.1645  0.2354  2.6149
   82SAPS  C216 7682   1.493   4.076   9.822 -0.6130 -0.2686  0.4351
   82SAPS  H16R 7683   1.516   3.984   9.880  0.5520  0.8700  1.8678
   82SAPS  H16S 7684   1.382   4.079   9.828 -0.7067 -1.0197 -0.5966
   82SAPS  C217 7685   1.552   4.194   9.910  0.2220 -0.2664 -0.0220
   82SAPS  H17R 7686   1.486   4.283   9.909  1.2828  0.5675  1.2018
   82SAPS  H17S 7687   1.655   4.225   9.884  0.7498 -1.4893  0.5254
   82SAPS  C218 7688   1.545   4.151  10.063 -0.1002  0.2740 -0.1068
   82SAPS  H18R 7689   1.608   4.221  10.120  0.2632 -0.2743  0.1741
   82SAPS  H18S 7690   1.591   4.051  10.082 -1.4196 -0.3098  0.1121
   82SAPS  C219 7691   1.400   4.155  10.126 -0.1817  0.8465  0.5186
   82SAPS  H19R 7692   1.331   4.081  10.080  0.9477 -0.4313  0.8115
   82SAPS  H19S 7693   1.357   4.255  10.105 -1.4081  0.0678 -0.8221
   82SAPS  C220 7694   1.403   4.128  10.274  0.7231 -0.0142 -0.2033
   82SAPS  H20R 7695   1.412   4.019  10.291 -0.0751  0.1734  1.7298
   82SAPS  H20S 7696   1.313   4.169  10.324  0.3077 -1.9941  0.7383
   82SAPS  H20T 7697   1.487   4.183  10.322 -1.5711  1.1001  2.8200
   82SAPS   C33 7698   1.384   4.630  10.369 -0.6319  0.1241 -1.3204
   82SAPS   H3X 7699   1.493   4.637  10.388 -0.6021  0.9007 -1.7319
   82SAPS   H3Y 7700   1.334   4.711  10.427 -1.4090 -1.8901  0.9915
   82SAPS   C34 7701   1.379   4.650  10.220 -0.6364 -0.0743 -0.6658
   82SAPS   H4X 7702   1.390   4.759  10.206 -3.4085  0.4233  0.4556
   82SAPS   H4Y 7703   1.276   4.620  10.189 -1.1669  1.2603 -0.2634
   82SAPS   C35 7704   1.477   4.570  10.132 -0.5030  0.0093  0.1107
   82SAPS   H5X 7705   1.472   4.463  10.160  0.2160  0.2857  1.4110
   82SAPS   H5Y 7706   1.579   4.608  10.155 -0.6248  0.7493 -0.5461
   82SAPS   C36 7707   1.448   4.582   9.977  0.1788  0.7304 -0.6605
   82SAPS   H6X 7708   1.337   4.587   9.980  0.2445  2.8101  0.1099
   82SAPS   H6Y 7709   1.487   4.489   9.931  0.7510 -1.6091  3.9966
   82SAPS   C37 7710   1.492   4.708   9.905 -0.0074 -0.6510  0.0804
   82SAPS   H7X 7711   1.602   4.714   9.892 -0.1853 -0.1184 -1.3034
   82SAPS   H7Y 7712   1.457   4.793   9.968  2.4199  1.2153 -0.9685
   82SAPS   C38 7713   1.427   4.745   9.769 -0.6503  0.6915 -0.8234
   82SAPS   H8X 7714   1.430   4.855   9.755  1.4861  0.7826 -0.1373
   82SAPS   H8Y 7715   1.319   4.719   9.772 -0.8852  1.6712  0.1060
   82SAPS   C39 7716   1.495   4.680   9.644 -0.7043  0.0826  0.9290
   82SAPS   H9X 7717   1.496   4.570   9.659  0.1707  0.1357  1.3051
   82SAPS   H9Y 7718   1.598   4.721   9.637 -0.4761 -0.6633 -0.5120
   82SAPS  C310 7719   1.419   4.732   9.517 -0.1092 -0.2412  1.0642
   82SAPS  H10X 7720   1.414   4.843   9.515  1.3129 -0.1617 -1.0186
   82SAPS  H10Y 7721   1.313   4.698   9.523 -0.9238  1.6463 -1.1700
   82SAPS  C311 7722   1.480   4.683   9.383  0.4205  0.5657 -0.0846
   82SAPS  H11X 7723   1.462   4.573   9.380  1.0643  0.4370 -3.3357
   82SAPS  H11Y 7724   1.590   4.696   9.379  0.2762  1.9463 -0.0264
   82SAPS  C312 7725   1.416   4.748   9.258  0.0588  0.5180  0.6800
   82SAPS  H12X 7726   1.444   4.856   9.254  0.5355  0.4940  2.3317
   82SAPS  H12Y 7727   1.307   4.761   9.273 -0.3366 -0.9112 -0.7414
   82SAPS  C313 7728   1.442   4.686   9.120 -0.0873 -0.3506  0.2792
   82SAPS  H13X 7729   1.419   4.578   9.128 -0.7098 -0.3115 -0.7762
   82SAPS  H13Y 7730   1.550   4.702   9.099  0.2569  0.4704  2.3823
   82SAPS  C314 7731   1.355   4.739   9.001  0.7849  0.0305  0.0554
   82SAPS  H14X 7732   1.382   4.842   8.969  0.8432 -0.2427 -0.7733
   82SAPS  H14Y 7733   1.255   4.763   9.045  0.8387 -0.9311  0.7369
   82SAPS  C315 7734   1.332   4.650   8.882  0.4392  0.8787  0.2711
   82SAPS  H15X 7735   1.252   4.687   8.815 -0.8938  1.2028  1.9678
   82SAPS  H15Y 7736   1.300   4.552   8.924  0.9925 -0.8611 -3.0608
   82SAPS  C316 7737   1.471   4.620   8.811  0.4737  0.4862  0.2162
   82SAPS  H16X 7738   1.544   4.596   8.892  1.7359  1.0329 -0.7329
   82SAPS  H16Y 7739   1.503   4.718   8.770  1.2904 -0.1992 -0.8150
   82SAPS  C317 7740   1.462   4.503   8.715  0.1104 -0.3191 -0.3531
   82SAPS  H17X 7741   1.540   4.517   8.637  0.9833  1.6352  0.7841
   82SAPS  H17Y 7742   1.367   4.480   8.663  0.8081  0.5218 -2.0978
   82SAPS  C318 7743   1.490   4.367   8.784 -0.2293  0.6100 -0.0363
   82SAPS  H18X 7744   1.410   4.336   8.855  1.0169  1.3179  1.7438
   82SAPS  H18Y 7745   1.584   4.352   8.840  1.2085 -1.8830 -2.8413
   82SAPS  H18Z 7746   1.493   4.290   8.704  1.3765  1.3263 -0.7103
   83SAPS     N 7747   3.189   6.609  10.956  0.2036 -0.2288 -0.4067
   83SAPS   HN1 7748   3.120   6.557  10.898  0.8310  0.7138 -2.0771
   83SAPS   HN2 7749   3.146   6.704  10.952 -2.2849 -1.2210  0.7334
   83SAPS   HN3 7750   3.275   6.594  10.899 -0.7754  0.6670 -2.2052
   83SAPS   C12 7751   3.182   6.547  11.089 -0.3932  0.1443 -0.3122
   83SAPS  H12A 7752   3.186   6.441  11.069 -1.2157 -0.1839  1.1237
   83SAPS   C13 7753   3.296   6.592  11.183 -0.1334 -0.3475 -0.4861
   83SAPS  O13A 7754   3.361   6.699  11.149  0.1365  0.2856  0.4428
   83SAPS  O13B 7755   3.305   6.553  11.301  0.3737  0.2859  0.0492
   83SAPS   C11 7756   3.045   6.584  11.157  0.5352  0.3775 -0.1406
   83SAPS  H11A 7757   3.043   6.691  11.187  0.7991  0.4841 -0.4999
   83SAPS  H11B 7758   3.041   6.525  11.251  3.0026  1.2306  0.5767
   83SAPS     P 7759   2.793   6.596  11.094  0.8199 -0.1153  0.1519
   83SAPS   O13 7760   2.705   6.490  11.128  0.1348 -0.2146  0.3280
   83SAPS   O14 7761   2.787   6.704  11.195  0.2582  0.6679 -0.2646
   83SAPS   O12 7762   2.939   6.550  11.069 -0.5326  0.1318 -0.0724
   83SAPS   O11 7763   2.750   6.657  10.952  0.1689  0.3610 -0.2510
   83SAPS    C1 7764   2.765   6.584  10.830 -0.5409  0.0025  0.3450
   83SAPS    HA 7765   2.858   6.626  10.786 -0.3517 -1.1768 -0.4215
   83SAPS    HB 7766   2.791   6.476  10.832 -0.1905 -0.0642 -2.9528
   83SAPS    C2 7767   2.652   6.610  10.728 -0.3923 -0.0036 -0.9273
   83SAPS    HS 7768   2.682   6.564  10.631  0.0095  0.8917 -1.2345
   83SAPS   O21 7769   2.614   6.749  10.714 -0.0401 -0.1680 -0.0418
   83SAPS   C21 7770   2.718   6.815  10.653  0.9240 -0.5864  0.1168
   83SAPS   O22 7771   2.807   6.765  10.594  0.1329  0.4167  0.0942
   83SAPS   C22 7772   2.685   6.971  10.662 -0.0258 -0.2579  0.2593
   83SAPS   H2R 7773   2.576   6.992  10.663  0.4546  2.6110  0.3792
   83SAPS   H2S 7774   2.733   7.002  10.757  1.4205  1.6693 -1.0216
   83SAPS    C3 7775   2.533   6.528  10.781 -0.5527 -0.3750 -0.6058
   83SAPS    HX 7776   2.508   6.552  10.886  3.1628  1.0115  0.0916
   83SAPS    HY 7777   2.570   6.423  10.776  0.3542 -0.0495 -0.9898
   83SAPS   O31 7778   2.420   6.546  10.694 -0.2737 -0.1796  0.2241
   83SAPS   C31 7779   2.321   6.455  10.725  0.1241 -0.0489  0.7612
   83SAPS   O32 7780   2.325   6.363  10.800 -0.2180  0.1384  0.5983
   83SAPS   C32 7781   2.201   6.494  10.638  0.5871 -0.3251 -0.1894
   83SAPS   H2X 7782   2.204   6.604  10.624 -1.1782 -0.0947  0.9218
   83SAPS   H2Y 7783   2.116   6.460  10.701  1.8292  0.1682  1.8707
   83SAPS   C23 7784   2.763   7.055  10.548 -0.2913  0.1909 -0.6594
   83SAPS   H3R 7785   2.874   7.045  10.546  0.0448  1.5082  3.1940
   83SAPS   H3S 7786   2.732   7.156  10.581 -1.1808 -0.9754  2.4335
   83SAPS   C24 7787   2.716   7.025  10.406 -0.0224 -0.2193 -0.2291
   83SAPS   H4R 7788   2.607   7.006  10.414 -0.0916  0.6283  1.2483
   83SAPS   H4S 7789   2.772   6.933  10.378  1.6918  0.0550  1.9927
   83SAPS   C25 7790   2.740   7.136  10.312 -0.2402  0.5286  0.0442
   83SAPS   H5R 7791   2.714   7.238  10.344  1.9379  0.9523  0.6073
   83SAPS   C26 7792   2.788   7.133  10.189  0.3964  0.6480 -0.0822
   83SAPS   H6R 7793   2.822   7.228  10.146 -1.3591  0.4177 -2.1341
   83SAPS   C27 7794   2.835   7.009  10.108  0.1063  0.4387 -0.1758
   83SAPS   H7R 7795   2.759   6.946  10.057  0.9982 -0.0066 -0.9911
   83SAPS   H7S 7796   2.893   6.949  10.182  1.5061  1.2823 -0.5495
   83SAPS   C28 7797   2.928   7.038   9.988  0.3257 -0.5392  0.3657
   83SAPS   H8R 7798   3.031   6.999   9.996  0.6139  0.0996 -0.1587
   83SAPS   C29 7799   2.894   7.102   9.871  0.0734 -0.0938  0.6353
   83SAPS   H9R 7800   2.970   7.125   9.795  0.3168  0.7838  1.1279
   83SAPS  C210 7801   2.755   7.152   9.831  0.2313 -0.1065  0.6062
   83SAPS  H10R 7802   2.758   7.260   9.803 -2.3760 -0.3890 -1.1219
   83SAPS  H10S 7803   2.689   7.151   9.920 -1.4252  0.2658 -0.5734
   83SAPS  C211 7804   2.701   7.075   9.705 -0.4925  0.0634  0.1818
   83SAPS  H11R 7805   2.740   7.114   9.610  0.5869 -1.6313 -0.1069
   83SAPS  C212 7806   2.627   6.958   9.707 -0.2748 -0.1837  0.7939
   83SAPS  H12R 7807   2.602   6.919   9.607 -0.4179  2.4948 -0.3027
   83SAPS  C213 7808   2.582   6.879   9.822  0.0731 -0.0435 -0.5373
   83SAPS  H13R 7809   2.473   6.866   9.805  0.4341  0.5447 -3.8866
   83SAPS  H13S 7810   2.598   6.927   9.921 -0.5014  1.0385 -0.9606
   83SAPS  C214 7811   2.656   6.747   9.823  0.4270 -0.6392 -0.3466
   83SAPS  H14R 7812   2.764   6.759   9.836  0.4757  1.7573 -2.1739
   83SAPS  C215 7813   2.606   6.625   9.799 -0.6045  0.0449 -0.4806
   83SAPS  H15R 7814   2.673   6.539   9.819  1.0297  1.6061  1.1125
   83SAPS  C216 7815   2.460   6.595   9.768  0.0789  0.2502 -0.1431
   83SAPS  H16R 7816   2.396   6.685   9.779  0.1374  0.3385 -0.5113
   83SAPS  H16S 7817   2.432   6.508   9.830  4.4815 -1.3873 -0.0772
   83SAPS  C217 7818   2.439   6.545   9.620  0.4519 -0.3019  0.3694
   83SAPS  H17R 7819   2.331   6.524   9.604 -0.4348  3.8848 -0.5756
   83SAPS  H17S 7820   2.494   6.449   9.616  0.1881 -0.4396 -0.0551
   83SAPS  C218 7821   2.494   6.636   9.500  0.0244 -0.4198 -0.1018
   83SAPS  H18R 7822   2.602   6.658   9.517  0.3195 -0.8426 -1.3259
   83SAPS  H18S 7823   2.442   6.733   9.511 -0.5097 -0.7230  0.0981
   83SAPS  C219 7824   2.491   6.573   9.358  0.3587  0.5615 -0.1799
   83SAPS  H19R 7825   2.386   6.542   9.334  0.0115  2.2649 -1.0058
   83SAPS  H19S 7826   2.539   6.473   9.357  2.6436  1.6011 -0.3990
   83SAPS  C220 7827   2.534   6.662   9.243  0.3654  0.1953 -0.4180
   83SAPS  H20R 7828   2.537   6.607   9.147  1.2917  0.5039 -0.5716
   83SAPS  H20S 7829   2.635   6.704   9.262  1.3966 -1.5215 -1.8662
   83SAPS  H20T 7830   2.467   6.751   9.234  0.9958  0.7747  0.4768
   83SAPS   C33 7831   2.183   6.424  10.502 -0.9250 -0.6534  0.2330
   83SAPS   H3X 7832   2.266   6.459  10.436  0.1184  0.4623  2.0413
   83SAPS   H3Y 7833   2.091   6.461  10.452 -0.4748 -0.9006 -0.8087
   83SAPS   C34 7834   2.165   6.272  10.510  0.8909  0.0334 -0.3886
   83SAPS   H4X 7835   2.077   6.253  10.575 -0.1649  2.2212 -1.0781
   83SAPS   H4Y 7836   2.252   6.235  10.568  0.5283  0.6552  0.5642
   83SAPS   C35 7837   2.162   6.200  10.376  0.5175 -0.4253 -0.3135
   83SAPS   H5X 7838   2.086   6.245  10.309 -0.8519 -2.1126  0.0090
   83SAPS   H5Y 7839   2.129   6.094  10.376 -0.3481 -0.1635  0.1700
   83SAPS   C36 7840   2.302   6.191  10.308  0.4383  0.4282 -0.1267
   83SAPS   H6X 7841   2.348   6.096  10.342 -1.4900 -0.2536  0.7527
   83SAPS   H6Y 7842   2.377   6.261  10.352  0.5450 -0.7400  1.6796
   83SAPS   C37 7843   2.266   6.196  10.167  0.0802  0.0894 -0.0183
   83SAPS   H7X 7844   2.203   6.286  10.150 -1.3586 -0.9190 -0.1270
   83SAPS   H7Y 7845   2.207   6.104  10.154  1.5744 -0.6273 -2.4475
   83SAPS   C38 7846   2.391   6.218  10.082  0.3322 -0.5140 -0.7423
   83SAPS   H8X 7847   2.463   6.135  10.100  0.0064 -0.6514 -0.0319
   83SAPS   H8Y 7848   2.444   6.305  10.127  1.5752 -1.9526  0.6935
   83SAPS   C39 7849   2.371   6.233   9.931  0.1438  0.6821 -0.5701
   83SAPS   H9X 7850   2.457   6.253   9.865  0.5592 -1.1468 -0.6395
   83SAPS   H9Y 7851   2.286   6.304   9.919 -3.0765 -3.0128 -2.0970
   83SAPS  C310 7852   2.316   6.103   9.867 -0.4227  1.0042 -0.1654
   83SAPS  H10X 7853   2.232   6.067   9.929 -0.2851 -3.3998 -2.1876
   83SAPS  H10Y 7854   2.390   6.019   9.868  0.6629  1.9242  0.9695
   83SAPS  C311 7855   2.256   6.135   9.730 -0.1668 -0.0513  0.1301
   83SAPS  H11X 7856   2.199   6.231   9.734  0.9804  0.7847 -1.9404
   83SAPS  H11Y 7857   2.189   6.053   9.696 -0.0291  0.0108 -0.2934
   83SAPS  C312 7858   2.356   6.157   9.615  0.2420  0.1534 -0.9352
   83SAPS  H12X 7859   2.435   6.080   9.600  0.5048  0.5832 -1.8229
   83SAPS  H12Y 7860   2.408   6.254   9.628  0.2970 -0.2227  2.4438
   83SAPS  C313 7861   2.272   6.177   9.488  0.1926 -0.2055 -0.0625
   83SAPS  H13X 7862   2.194   6.255   9.504 -1.1700 -1.5632  0.1248
   83SAPS  H13Y 7863   2.224   6.081   9.460  0.2555 -0.0820 -0.6041
   83SAPS  C314 7864   2.354   6.224   9.369  0.1972 -0.1948 -0.1730
   83SAPS  H14X 7865   2.410   6.135   9.333 -0.5587 -1.1481  0.9203
   83SAPS  H14Y 7866   2.431   6.302   9.390 -1.3637  0.9991  1.4243
   83SAPS  C315 7867   2.274   6.283   9.256  0.5331  0.2554 -0.1056
   83SAPS  H15X 7868   2.227   6.375   9.296  0.5903  0.4762 -0.5371
   83SAPS  H15Y 7869   2.194   6.218   9.212 -0.3994  2.3754 -1.6895
   83SAPS  C316 7870   2.349   6.310   9.129 -0.2187  0.3746 -0.3279
   83SAPS  H16X 7871   2.373   6.207   9.096  0.7483  0.7557 -0.8490
   83SAPS  H16Y 7872   2.447   6.357   9.150 -0.1501 -0.6881  1.9453
   83SAPS  C317 7873   2.270   6.374   9.013  1.0938  0.5229 -0.6797
   83SAPS  H17X 7874   2.221   6.459   9.065  0.8757 -1.5249  2.8301
   83SAPS  H17Y 7875   2.205   6.297   8.965  2.2112 -0.0049 -1.3805
   83SAPS  C318 7876   2.348   6.419   8.890 -0.0586  0.2105  0.5972
   83SAPS  H18X 7877   2.452   6.380   8.893  0.5072  1.0262 -3.2965
   83SAPS  H18Y 7878   2.358   6.529   8.896  1.0398  0.1601 -0.1440
   83SAPS  H18Z 7879   2.302   6.403   8.790  0.8105  0.7401  0.1047
   84SAPS     N 7880   2.165   5.823  11.308  0.3356  0.2273  0.1005
   84SAPS   HN1 7881   2.113   5.863  11.389  2.7030  0.7471  1.4650
   84SAPS   HN2 7882   2.231   5.897  11.278  0.3960  0.1333 -0.0005
   84SAPS   HN3 7883   2.093   5.816  11.233  1.3752  0.8450 -0.9763
   84SAPS   C12 7884   2.243   5.699  11.339  0.4115  0.7548  0.5474
   84SAPS  H12A 7885   2.274   5.696  11.442 -0.4324 -2.4693  0.8237
   84SAPS   C13 7886   2.171   5.562  11.306  0.5882  0.4421 -0.0923
   84SAPS  O13A 7887   2.064   5.564  11.240 -0.1179 -0.1418 -0.5914
   84SAPS  O13B 7888   2.225   5.451  11.341  0.1816 -1.0431  0.2550
   84SAPS   C11 7889   2.366   5.713  11.246 -0.5666  0.2564  0.6667
   84SAPS  H11A 7890   2.345   5.698  11.138  1.4364  0.6777  0.1745
   84SAPS  H11B 7891   2.438   5.639  11.287  0.7459  1.5526  0.7607
   84SAPS     P 7892   2.539   5.904  11.160 -0.2230  0.4442 -0.1823
   84SAPS   O13 7893   2.574   6.037  11.220 -0.2324  0.3310  0.6201
   84SAPS   O14 7894   2.658   5.813  11.154 -0.0007  0.1280 -0.2568
   84SAPS   O12 7895   2.421   5.854  11.252 -0.5883 -0.4656 -0.0009
   84SAPS   O11 7896   2.467   5.923  11.023  0.0408  0.8455  0.4773
   84SAPS    C1 7897   2.473   5.822  10.926 -0.2273  0.2775  1.0608
   84SAPS    HA 7898   2.451   5.720  10.964 -1.8064 -0.7488 -2.1911
   84SAPS    HB 7899   2.387   5.830  10.857 -1.5671 -1.0117  2.5163
   84SAPS    C2 7900   2.613   5.822  10.852  0.7290  0.3206 -0.0591
   84SAPS    HS 7901   2.686   5.865  10.924 -0.5931  0.0921  1.5061
   84SAPS   O21 7902   2.595   5.903  10.731  0.0442  0.4935  0.3255
   84SAPS   C21 7903   2.708   5.943  10.672 -0.0232 -0.4863  0.1965
   84SAPS   O22 7904   2.820   5.941  10.719  0.2013  0.4257 -0.1457
   84SAPS   C22 7905   2.685   5.995  10.529 -0.1037 -0.4210 -0.4387
   84SAPS   H2R 7906   2.784   5.999  10.479  0.5570 -1.0037  0.7842
   84SAPS   H2S 7907   2.633   5.914  10.474  0.0696  0.8225 -2.5167
   84SAPS    C3 7908   2.667   5.675  10.831  0.8837  0.9923 -0.3196
   84SAPS    HX 7909   2.677   5.625  10.930 -1.6090  1.0717  0.0341
   84SAPS    HY 7910   2.769   5.683  10.789  0.9785  0.1751 -0.2664
   84SAPS   O31 7911   2.579   5.607  10.741 -0.2241  0.3448 -0.2774
   84SAPS   C31 7912   2.607   5.606  10.614 -0.0144  0.1917  0.4356
   84SAPS   O32 7913   2.702   5.664  10.558 -0.2100 -0.1664  0.0165
   84SAPS   C32 7914   2.502   5.531  10.535  0.6424  0.3911 -0.2899
   84SAPS   H2X 7915   2.405   5.577  10.563  0.9124  0.9934 -0.3380
   84SAPS   H2Y 7916   2.498   5.429  10.578  1.0895  0.4262 -0.1646
   84SAPS   C23 7917   2.614   6.132  10.525  0.2510 -0.7784  0.1027
   84SAPS   H3R 7918   2.513   6.130  10.572 -0.2464 -0.5564 -0.9366
   84SAPS   H3S 7919   2.596   6.145  10.416 -1.6417  0.4358  0.4990
   84SAPS   C24 7920   2.695   6.254  10.569 -0.2363 -0.0423  0.0188
   84SAPS   H4R 7921   2.708   6.260  10.679  0.4446  2.4154 -0.1340
   84SAPS   H4S 7922   2.634   6.346  10.555  0.2869  0.5435  1.3991
   84SAPS   C25 7923   2.825   6.272  10.492 -0.3403 -0.0458 -0.2383
   84SAPS   H5R 7924   2.918   6.229  10.533 -1.5158 -0.1226  2.5756
   84SAPS   C26 7925   2.821   6.328  10.366 -0.9755  0.3571 -0.1294
   84SAPS   H6R 7926   2.920   6.334  10.319  0.0143 -0.9527  1.6388
   84SAPS   C27 7927   2.704   6.383  10.279  0.0428  0.1676  0.2346
   84SAPS   H7R 7928   2.617   6.342  10.333  0.8737 -3.8226 -1.1449
   84SAPS   H7S 7929   2.695   6.341  10.177 -1.1055  2.5761 -0.7513
   84SAPS   C28 7930   2.684   6.527  10.266 -0.8326 -1.2677  0.6697
   84SAPS   H8R 7931   2.607   6.582  10.321 -0.8938 -1.0184  0.3369
   84SAPS   C29 7932   2.769   6.605  10.189  0.8524 -0.1840 -0.7749
   84SAPS   H9R 7933   2.747   6.713  10.184  2.5695  0.4802  2.7156
   84SAPS  C210 7934   2.890   6.567  10.107  0.5186  0.5381 -0.6403
   84SAPS  H10R 7935   2.873   6.613  10.008 -1.5881  2.4440  0.5213
   84SAPS  H10S 7936   2.912   6.458  10.104  2.3140  0.8948 -2.1699
   84SAPS  C211 7937   3.012   6.620  10.175 -0.4421 -0.0647  0.4629
   84SAPS  H11R 7938   3.020   6.618  10.284 -0.4882  4.6617  0.7586
   84SAPS  C212 7939   3.124   6.651  10.100 -0.0400 -0.9026  0.1378
   84SAPS  H12R 7940   3.213   6.683  10.157  0.2062 -0.6818 -0.3556
   84SAPS  C213 7941   3.126   6.641   9.947  0.6481  0.3264  0.4542
   84SAPS  H13R 7942   3.048   6.582   9.895  1.1775  0.0161 -0.0030
   84SAPS  H13S 7943   3.214   6.578   9.922  0.7213  1.0032 -1.0458
   84SAPS  C214 7944   3.153   6.775   9.884 -0.0518 -0.7820  0.4859
   84SAPS  H14R 7945   3.199   6.848   9.953  0.0576 -0.7033  0.3331
   84SAPS  C215 7946   3.147   6.814   9.752  0.0987 -0.2887 -0.6795
   84SAPS  H15R 7947   3.176   6.917   9.725  2.3908 -0.4092  1.0564
   84SAPS  C216 7948   3.099   6.733   9.637  0.3733  0.1307 -0.2173
   84SAPS  H16R 7949   3.110   6.624   9.654 -0.6118 -0.0183 -0.4841
   84SAPS  H16S 7950   3.169   6.748   9.552 -1.1607  1.2327 -1.3475
   84SAPS  C217 7951   2.954   6.751   9.585  0.7506  0.0426 -0.0830
   84SAPS  H17R 7952   2.943   6.861   9.594  3.3051  0.3373  0.2809
   84SAPS  H17S 7953   2.891   6.689   9.653 -1.6073  1.3285 -1.0019
   84SAPS  C218 7954   2.919   6.699   9.446  0.4047 -0.2220 -0.1517
   84SAPS  H18R 7955   2.820   6.651   9.435  0.7671 -0.6866 -1.6596
   84SAPS  H18S 7956   2.989   6.617   9.421  2.5125  1.4196  0.0069
   84SAPS  C219 7957   2.947   6.806   9.328 -0.1887  0.7080 -0.1431
   84SAPS  H19R 7958   3.049   6.850   9.332  0.2318 -0.2735  3.2222
   84SAPS  H19S 7959   2.882   6.890   9.362 -0.8211 -0.7713  2.5921
   84SAPS  C220 7960   2.916   6.750   9.187 -0.2826  0.1459  0.2703
   84SAPS  H20R 7961   2.810   6.716   9.188 -0.4748  0.6056  2.7408
   84SAPS  H20S 7962   2.984   6.667   9.157 -2.9727 -1.9339 -0.5083
   84SAPS  H20T 7963   2.926   6.825   9.106  0.9895 -0.3308 -0.0300
   84SAPS   C33 7964   2.534   5.525  10.382 -0.0728  0.1425  0.4141
   84SAPS   H3X 7965   2.637   5.488  10.363 -0.6640 -0.4677 -2.1129
   84SAPS   H3Y 7966   2.524   5.620  10.325  2.5833 -0.3086 -0.9544
   84SAPS   C34 7967   2.442   5.431  10.300  0.0315  0.0320 -0.3452
   84SAPS   H4X 7968   2.338   5.462  10.325  0.4143  0.4138  0.8511
   84SAPS   H4Y 7969   2.445   5.328  10.342 -3.1198  0.3795  1.0205
   84SAPS   C35 7970   2.458   5.415  10.152  0.1645  0.3615 -0.0391
   84SAPS   H5X 7971   2.444   5.516  10.106  2.0402  0.6431 -0.0694
   84SAPS   H5Y 7972   2.380   5.349  10.108  0.6193  0.9947 -1.8939
   84SAPS   C36 7973   2.599   5.368  10.106 -0.6896 -0.4611 -0.2644
   84SAPS   H6X 7974   2.611   5.274  10.164 -1.8153 -0.2997  0.2724
   84SAPS   H6Y 7975   2.667   5.448  10.140 -1.9074 -0.9870  3.9545
   84SAPS   C37 7976   2.618   5.321   9.961  0.0170  0.0021  0.1440
   84SAPS   H7X 7977   2.569   5.222   9.947  2.5380 -1.2200 -0.4926
   84SAPS   H7Y 7978   2.728   5.318   9.955  0.0342  0.4946  0.1417
   84SAPS   C38 7979   2.565   5.413   9.851 -0.4354 -0.3685 -0.9505
   84SAPS   H8X 7980   2.606   5.512   9.879  2.1969 -1.3309 -1.0910
   84SAPS   H8Y 7981   2.456   5.430   9.857 -0.1908  0.7122  1.6260
   84SAPS   C39 7982   2.596   5.364   9.711  0.0800  0.4575 -0.4788
   84SAPS   H9X 7983   2.498   5.331   9.673  0.0583 -3.1174  2.2137
   84SAPS   H9Y 7984   2.677   5.288   9.717 -0.0618  0.3387 -0.0133
   84SAPS  C310 7985   2.655   5.472   9.619  0.3623 -0.3529  0.8666
   84SAPS  H10X 7986   2.731   5.536   9.669 -0.9930  0.0743  2.4649
   84SAPS  H10Y 7987   2.585   5.555   9.595  2.2142  1.2801  0.7576
   84SAPS  C311 7988   2.718   5.417   9.488 -1.2903 -0.2034  0.4289
   84SAPS  H11X 7989   2.639   5.356   9.440  0.7073 -1.0949 -1.9196
   84SAPS  H11Y 7990   2.791   5.343   9.527  0.0860  0.8031 -0.1764
   84SAPS  C312 7991   2.763   5.530   9.393  0.5321  0.2260 -0.2755
   84SAPS  H12X 7992   2.851   5.584   9.432 -0.3989  0.9106  0.9101
   84SAPS  H12Y 7993   2.690   5.614   9.390 -0.8367 -0.8895  0.4730
   84SAPS  C313 7994   2.788   5.480   9.250  0.1626 -0.2291 -0.2062
   84SAPS  H13X 7995   2.697   5.432   9.208  0.6856  1.1289 -3.1822
   84SAPS  H13Y 7996   2.871   5.406   9.253 -0.4505 -1.1969 -3.4993
   84SAPS  C314 7997   2.825   5.586   9.148 -0.4273  0.0229 -0.9758
   84SAPS  H14X 7998   2.921   5.637   9.168  0.5163 -1.5023 -1.5077
   84SAPS  H14Y 7999   2.742   5.661   9.140 -1.8937 -1.2158  1.3879
   84SAPS  C315 8000   2.834   5.518   9.008 -0.3232  0.6894  0.1219
   84SAPS  H15X 8001   2.836   5.594   8.927  0.6851  0.8859  0.3226
   84SAPS  H15Y 8002   2.745   5.452   8.990  0.6296 -0.3623 -0.9180
   84SAPS  C316 8003   2.958   5.422   8.996  0.2467  0.3750  0.1291
   84SAPS  H16X 8004   2.934   5.337   9.063 -0.4285 -1.3833 -2.2078
   84SAPS  H16Y 8005   3.059   5.459   9.025  1.1165  0.6117 -2.8467
   84SAPS  C317 8006   2.976   5.361   8.855 -0.3052 -0.2833  0.2579
   84SAPS  H17X 8007   2.887   5.388   8.794 -1.1125 -0.0346  1.5074
   84SAPS  H17Y 8008   2.989   5.252   8.873  1.1119 -0.1032  0.4712
   84SAPS  C318 8009   3.109   5.409   8.787 -0.8260 -0.5420 -0.5518
   84SAPS  H18X 8010   3.121   5.369   8.683  1.0856 -0.1506 -0.5197
   84SAPS  H18Y 8011   3.202   5.375   8.838  1.9503  1.6154 -3.7259
   84SAPS  H18Z 8012   3.116   5.519   8.783  0.9309 -0.5105  1.4009
   85SAPS     N 8013   0.859   6.585  11.402  0.1328  0.5322 -0.1375
   85SAPS   HN1 8014   0.855   6.527  11.316 -0.5508  0.6129 -0.1671
   85SAPS   HN2 8015   0.957   6.620  11.405 -0.3068  1.7701  2.2927
   85SAPS   HN3 8016   0.835   6.535  11.490  2.1303 -0.0656  0.1025
   85SAPS   C12 8017   0.772   6.711  11.384  0.1335  0.2490 -0.0362
   85SAPS  H12A 8018   0.670   6.680  11.364  0.8287 -1.5773 -1.0349
   85SAPS   C13 8019   0.751   6.792  11.519  0.8520  0.6485 -0.1774
   85SAPS  O13A 8020   0.809   6.751  11.623 -0.1704 -0.3568 -0.2454
   85SAPS  O13B 8021   0.680   6.896  11.514  0.5600  0.2178 -0.3344
   85SAPS   C11 8022   0.836   6.803  11.276  0.2645  0.1052 -0.2434
   85SAPS  H11A 8023   0.934   6.846  11.306 -0.4222  2.6761 -1.4093
   85SAPS  H11B 8024   0.780   6.899  11.268  0.3663  0.1846 -0.0133
   85SAPS     P 8025   0.738   6.754  11.041 -0.2117  0.1227  0.0702
   85SAPS   O13 8026   0.608   6.759  11.111  0.3188  0.4250  0.3939
   85SAPS   O14 8027   0.776   6.860  10.950  0.0459 -0.3733  0.4700
   85SAPS   O12 8028   0.847   6.734  11.148 -0.4073  0.7365  0.1007
   85SAPS   O11 8029   0.746   6.621  10.963  0.2837  0.1568 -0.3322
   85SAPS    C1 8030   0.872   6.576  10.911 -0.4086 -0.5058  0.3822
   85SAPS    HA 8031   0.948   6.559  10.989 -0.4225 -2.6223 -0.0036
   85SAPS    HB 8032   0.865   6.470  10.878 -1.2264 -0.5788  0.7589
   85SAPS    C2 8033   0.921   6.662  10.794  0.2953  0.0637 -0.0606
   85SAPS    HS 8034   0.960   6.760  10.827  1.0492  0.0496 -0.8690
   85SAPS   O21 8035   0.805   6.689  10.710 -0.0791  0.1048 -0.4222
   85SAPS   C21 8036   0.802   6.803  10.656 -0.3512 -0.4532 -0.0965
   85SAPS   O22 8037   0.891   6.886  10.645  0.0472 -0.2921  0.1473
   85SAPS   C22 8038   0.663   6.828  10.599  0.7038 -0.0107 -0.0764
   85SAPS   H2R 8039   0.626   6.733  10.555 -3.8774  2.4086 -2.1255
   85SAPS   H2S 8040   0.602   6.869  10.682 -0.4666  0.7906 -1.3085
   85SAPS    C3 8041   1.039   6.599  10.718 -0.3166  0.1866  0.3064
   85SAPS    HX 8042   1.032   6.490  10.700  1.0648  0.1012  0.1693
   85SAPS    HY 8043   1.128   6.614  10.782  0.4441  2.7114 -1.1936
   85SAPS   O31 8044   1.071   6.674  10.599 -0.2575  0.7074 -0.2754
   85SAPS   C31 8045   1.028   6.627  10.482  0.2554  0.4491 -0.1698
   85SAPS   O32 8046   0.952   6.531  10.468  0.5286  0.5322  0.2842
   85SAPS   C32 8047   1.072   6.720  10.367  0.0106  0.2869 -0.0068
   85SAPS   H2X 8048   1.182   6.720  10.382  0.0041  0.6455  0.0483
   85SAPS   H2Y 8049   1.039   6.822  10.397  0.4716  0.0081  1.5212
   85SAPS   C23 8050   0.667   6.927  10.485 -0.2465  0.3505 -0.1099
   85SAPS   H3R 8051   0.692   7.031  10.515 -4.5300  1.2334  1.0024
   85SAPS   H3S 8052   0.561   6.942  10.455 -0.6173  1.8629  1.7466
   85SAPS   C24 8053   0.746   6.891  10.363  0.0921 -0.5338 -0.4103
   85SAPS   H4R 8054   0.720   6.786  10.337  1.5578 -0.4886 -2.2670
   85SAPS   H4S 8055   0.855   6.883  10.387 -0.3594 -0.6641  1.7975
   85SAPS   C25 8056   0.720   6.983  10.245 -0.6955  0.6993  0.8738
   85SAPS   H5R 8057   0.794   7.063  10.229 -2.0804  1.3984 -3.4152
   85SAPS   C26 8058   0.608   6.989  10.174  0.5485  0.2681  0.4210
   85SAPS   H6R 8059   0.617   7.054  10.086  2.5278 -0.3329  0.1362
   85SAPS   C27 8060   0.484   6.900  10.182  0.2675 -0.6100 -0.1887
   85SAPS   H7R 8061   0.493   6.820  10.259 -3.2764 -0.1827  0.8246
   85SAPS   H7S 8062   0.462   6.845  10.088 -0.0341 -0.5533 -0.1528
   85SAPS   C28 8063   0.365   6.991  10.219  0.6132 -0.4433 -0.7073
   85SAPS   H8R 8064   0.370   7.054  10.309 -2.7848  2.2437 -2.1551
   85SAPS   C29 8065   0.254   7.009  10.143  0.7255 -0.0167 -0.5066
   85SAPS   H9R 8066   0.171   7.070  10.183  0.7268  0.6771 -1.5404
   85SAPS  C210 8067   0.220   6.948  10.017 -0.4399 -0.5757  0.2156
   85SAPS  H10R 8068   0.280   6.855   9.999  1.6493  0.0814  3.0259
   85SAPS  H10S 8069   0.264   7.022   9.947 -1.7482 -0.0364 -0.0466
   85SAPS  C211 8070   0.083   6.931   9.988  0.1778  0.1867 -0.2380
   85SAPS  H11R 8071   0.019   6.886  10.064 -0.5147  2.3701  0.5417
   85SAPS  C212 8072   0.022   6.966   9.867 -0.4116  0.5585 -0.4817
   85SAPS  H12R 8073  -0.088   6.973   9.869 -0.5122 -0.9476  0.4390
   85SAPS  C213 8074   0.081   7.027   9.744 -0.1180 -0.8095 -0.2040
   85SAPS  H13R 8075   0.176   7.079   9.768 -0.6390 -0.1218  0.4046
   85SAPS  H13S 8076   0.024   7.115   9.707  1.7050  0.4373 -0.1566
   85SAPS  C214 8077   0.118   6.915   9.649 -0.4476 -0.7954  0.0733
   85SAPS  H14R 8078   0.159   6.819   9.683  0.5018 -1.3638 -2.4549
   85SAPS  C215 8079   0.102   6.931   9.515  0.1212 -0.2144 -0.3467
   85SAPS  H15R 8080   0.137   6.850   9.450 -0.6560 -0.6878 -0.1861
   85SAPS  C216 8081   0.057   7.051   9.436 -0.1707 -0.2713  0.2107
   85SAPS  H16R 8082  -0.032   7.092   9.489  0.9646 -0.6261  2.5244
   85SAPS  H16S 8083   0.031   7.015   9.334  3.7517 -1.6484 -0.4573
   85SAPS  C217 8084   0.159   7.168   9.434  0.8529  0.9413  0.0274
   85SAPS  H17R 8085   0.252   7.136   9.383  1.2012  0.8035  0.7458
   85SAPS  H17S 8086   0.186   7.196   9.538 -0.6390  0.7667  0.4939
   85SAPS  C218 8087   0.097   7.288   9.366  0.3117  0.7150 -0.0622
   85SAPS  H18R 8088   0.002   7.317   9.417 -0.6802  1.8750 -2.4076
   85SAPS  H18S 8089   0.086   7.259   9.259  3.6491 -0.4363 -0.2000
   85SAPS  C219 8090   0.187   7.407   9.379  0.1271  0.0980  0.3269
   85SAPS  H19R 8091   0.280   7.392   9.321 -0.7901  1.5480 -1.6861
   85SAPS  H19S 8092   0.188   7.435   9.486 -3.7854  2.8909 -0.1140
   85SAPS  C220 8093   0.128   7.526   9.308  0.0586 -0.1851  0.1218
   85SAPS  H20R 8094   0.121   7.508   9.199  0.8906 -2.6505  0.4145
   85SAPS  H20S 8095   0.202   7.607   9.327  2.2526 -2.1140  0.1443
   85SAPS  H20T 8096   0.023   7.547   9.336 -0.4194  1.8352 -2.6922
   85SAPS   C33 8097   1.025   6.680  10.225  0.0075 -0.6190 -0.6810
   85SAPS   H3X 8098   0.915   6.671  10.212 -0.0495 -0.9988 -0.0130
   85SAPS   H3Y 8099   1.062   6.580  10.195 -1.8675 -1.4045 -0.5458
   85SAPS   C34 8100   1.069   6.787  10.122  0.6021  0.9592  0.3050
   85SAPS   H4X 8101   1.180   6.796  10.125  0.6726  2.2443 -2.7518
   85SAPS   H4Y 8102   1.011   6.874  10.159 -1.8228  0.0337 -1.1173
   85SAPS   C35 8103   1.025   6.744   9.986  0.2844  0.2552  0.3164
   85SAPS   H5X 8104   0.915   6.725   9.986  0.1038  1.1441 -1.1815
   85SAPS   H5Y 8105   1.069   6.646   9.959 -0.2829  0.3414 -1.0153
   85SAPS   C36 8106   1.065   6.844   9.879  0.3745  0.3980 -0.1861
   85SAPS   H6X 8107   1.175   6.855   9.889  0.3684 -0.1742  0.6188
   85SAPS   H6Y 8108   1.011   6.939   9.895  1.1205  0.6121  1.2236
   85SAPS   C37 8109   1.019   6.813   9.733 -0.2688 -1.0052 -1.0247
   85SAPS   H7X 8110   0.909   6.825   9.725 -0.0180  0.6853 -3.5739
   85SAPS   H7Y 8111   1.043   6.707   9.709  0.2819 -1.5188  1.5645
   85SAPS   C38 8112   1.085   6.902   9.622 -0.1053  0.0189  0.0441
   85SAPS   H8X 8113   1.195   6.888   9.627 -0.1487 -1.1477 -1.6951
   85SAPS   H8Y 8114   1.066   7.008   9.652 -0.4597  0.0521 -0.2979
   85SAPS   C39 8115   1.029   6.872   9.484  0.3855  0.0298  0.1503
   85SAPS   H9X 8116   0.921   6.856   9.502  0.1283  3.0279  1.9196
   85SAPS   H9Y 8117   1.066   6.775   9.444  0.1920  0.6193 -1.5800
   85SAPS  C310 8118   1.051   6.991   9.392 -0.6284 -1.0349 -0.3236
   85SAPS  H10X 8119   1.157   7.023   9.388 -1.1457  0.7103 -2.0675
   85SAPS  H10Y 8120   1.007   7.085   9.432  1.5236 -0.3827  0.6146
   85SAPS  C311 8121   0.999   6.972   9.253  0.1736  0.6003 -0.1716
   85SAPS  H11X 8122   0.888   6.982   9.256  0.3105  2.2615  0.1856
   85SAPS  H11Y 8123   1.036   6.874   9.216 -1.5797 -0.6724  1.2275
   85SAPS  C312 8124   1.037   7.084   9.153 -0.4715 -0.0458 -0.2389
   85SAPS  H12X 8125   1.147   7.096   9.154 -0.6535  1.9117  0.6558
   85SAPS  H12Y 8126   0.992   7.178   9.189  0.0023 -0.2694  0.9897
   85SAPS  C313 8127   0.988   7.044   9.012  0.2607 -0.7929  0.2040
   85SAPS  H13X 8128   0.921   7.123   8.971  3.7659  1.6142 -1.5301
   85SAPS  H13Y 8129   0.919   6.958   9.016  1.8348 -2.1841 -1.1444
   85SAPS  C314 8130   1.098   7.018   8.916 -0.8185  0.3402  0.0050
   85SAPS  H14X 8131   1.165   6.939   8.957 -2.0455 -0.8328 -0.1851
   85SAPS  H14Y 8132   1.162   7.109   8.917  0.2651 -0.3084  3.6383
   85SAPS  C315 8133   1.049   6.980   8.784  0.1173  0.1980  0.2691
   85SAPS  H15X 8134   1.021   7.069   8.724 -0.4059 -0.9764 -1.3001
   85SAPS  H15Y 8135   0.952   6.929   8.804  0.0231  1.0502  2.2167
   85SAPS  C316 8136   1.133   6.878   8.700  0.8125 -1.2546  0.0392
   85SAPS  H16X 8137   1.237   6.915   8.690  0.4970 -0.7016 -1.4486
   85SAPS  H16Y 8138   1.084   6.872   8.601  2.0204 -1.7623 -0.5508
   85SAPS  C317 8139   1.130   6.737   8.761 -0.6406 -0.0192 -0.2438
   85SAPS  H17X 8140   1.023   6.704   8.758 -0.7372  0.2590 -3.1477
   85SAPS  H17Y 8141   1.176   6.731   8.862 -1.4345 -1.9049  0.0594
   85SAPS  C318 8142   1.222   6.631   8.697  0.4273 -0.5912 -0.2101
   85SAPS  H18X 8143   1.202   6.601   8.592  0.2571 -2.9013  0.4349
   85SAPS  H18Y 8144   1.217   6.530   8.743 -1.3637 -0.0481  0.8992
   85SAPS  H18Z 8145   1.329   6.657   8.706  1.0134 -2.3959 -1.4803
   86SAPS     N 8146   3.573   0.065  11.027  0.2126 -0.0339  0.1759
   86SAPS   HN1 8147   3.646   0.054  11.101  0.8483  0.1534 -0.4165
   86SAPS   HN2 8148   3.480   0.048  11.072  0.6330  1.1827  1.6108
   86SAPS   HN3 8149   3.594  -0.003  10.952  0.5060  2.0426 -1.7059
   86SAPS   C12 8150   3.560   0.199  10.963 -0.3771  0.1870  0.5262
   86SAPS  H12A 8151   3.523   0.264  11.040 -1.2669  1.9736 -1.3157
   86SAPS   C13 8152   3.701   0.251  10.917 -0.1274 -0.4082  0.2510
   86SAPS  O13A 8153   3.809   0.183  10.941  0.4973  0.1736 -0.4449
   86SAPS  O13B 8154   3.707   0.355  10.847 -0.5962  0.1155  0.4083
   86SAPS   C11 8155   3.449   0.188  10.856 -1.0409 -0.1155  0.3954
   86SAPS  H11A 8156   3.483   0.128  10.769  0.7745 -1.2833  1.8568
   86SAPS  H11B 8157   3.428   0.290  10.817  0.3374 -0.6703 -2.0269
   86SAPS     P 8158   3.193   0.190  10.921 -0.1509  0.1653 -0.6454
   86SAPS   O13 8159   3.100   0.083  10.951  0.0228  0.1185  0.2801
   86SAPS   O14 8160   3.189   0.292  11.024 -0.1893 -0.7712  0.4956
   86SAPS   O12 8161   3.338   0.125  10.908  0.8224  0.2201  0.0249
   86SAPS   O11 8162   3.171   0.241  10.773 -0.2904 -0.7315 -0.2363
   86SAPS    C1 8163   3.114   0.151  10.680  0.4620 -0.6327  0.2773
   86SAPS    HA 8164   3.042   0.076  10.720 -1.2369  0.5768 -0.3927
   86SAPS    HB 8165   3.070   0.213  10.599 -0.1215 -3.9790 -2.1665
   86SAPS    C2 8166   3.206   0.047  10.600  0.1425 -1.0380 -0.4601
   86SAPS    HS 8167   3.272  -0.002  10.675  0.4378  0.1179  0.0648
   86SAPS   O21 8168   3.274   0.132  10.512  0.5374  0.2534  0.2839
   86SAPS   C21 8169   3.390   0.090  10.476 -0.2543  0.5232  0.1270
   86SAPS   O22 8170   3.446  -0.017  10.511  0.4086  0.2394 -0.5443
   86SAPS   C22 8171   3.445   0.185  10.374  0.2091  0.0364  0.1663
   86SAPS   H2R 8172   3.361   0.239  10.325  1.8162  0.7262 -1.9684
   86SAPS   H2S 8173   3.522   0.246  10.426 -0.0487  0.6798 -0.1969
   86SAPS    C3 8174   3.126  -0.063  10.530  0.8593 -0.4110 -0.7683
   86SAPS    HX 8175   3.050  -0.019  10.461  1.3468 -0.7703 -1.5508
   86SAPS    HY 8176   3.075  -0.122  10.609  0.8453  0.6630  0.0409
   86SAPS   O31 8177   3.198  -0.147  10.441 -0.0525 -0.0167 -0.6288
   86SAPS   C31 8178   3.225  -0.271  10.478 -0.2009 -0.2784  0.3431
   86SAPS   O32 8179   3.185  -0.326  10.579 -0.0259 -0.3613  0.0148
   86SAPS   C32 8180   3.307  -0.342  10.370 -0.5890  0.6352  0.2336
   86SAPS   H2X 8181   3.413  -0.340  10.401 -0.8588  0.8940  1.1706
   86SAPS   H2Y 8182   3.288  -0.284  10.277 -1.0154 -1.4708 -1.0526
   86SAPS   C23 8183   3.514   0.117  10.250 -0.0186  0.1420 -0.3883
   86SAPS   H3R 8184   3.438   0.059  10.194 -1.8544  1.4988  0.5839
   86SAPS   H3S 8185   3.584   0.044  10.296 -1.4363  0.0718  1.7842
   86SAPS   C24 8186   3.589   0.219  10.160  0.2592 -0.0769  0.5118
   86SAPS   H4R 8187   3.516   0.291  10.117 -0.3278 -0.5824  0.6503
   86SAPS   H4S 8188   3.627   0.172  10.067 -2.0501 -0.4652 -0.3124
   86SAPS   C25 8189   3.691   0.292  10.237 -0.6264  0.0901  0.3075
   86SAPS   H5R 8190   3.653   0.382  10.288 -0.2723  0.2039  0.3722
   86SAPS   C26 8191   3.816   0.248  10.245 -0.8177  0.2992  0.9516
   86SAPS   H6R 8192   3.888   0.306  10.304 -1.2948  0.6614  1.1871
   86SAPS   C27 8193   3.877   0.129  10.187 -0.3479  0.6357  0.6683
   86SAPS   H7R 8194   3.809   0.071  10.121 -2.0330  3.6321 -0.4070
   86SAPS   H7S 8195   3.911   0.052  10.259 -1.5873 -1.8903 -1.2768
   86SAPS   C28 8196   4.000   0.166  10.104 -0.2263  0.1291 -0.6360
   86SAPS   H8R 8197   4.061   0.251  10.138  0.3442 -0.9915  1.2994
   86SAPS   C29 8198   4.063   0.091  10.017  0.6591  0.5690  0.6313
   86SAPS   H9R 8199   4.159   0.124   9.976  0.5283 -0.0979 -0.2447
   86SAPS  C210 8200   4.028  -0.049   9.982 -0.8922  0.2395  0.2447
   86SAPS  H10R 8201   3.992  -0.102  10.073 -0.2883  0.6181  0.7116
   86SAPS  H10S 8202   4.119  -0.107   9.957 -0.3646  0.9490  0.4975
   86SAPS  C211 8203   3.930  -0.039   9.876 -0.2912 -0.0866  0.5195
   86SAPS  H11R 8204   3.837   0.008   9.911  0.3401  1.0774  0.6525
   86SAPS  C212 8205   3.935  -0.085   9.752 -0.6941  0.5516 -0.4304
   86SAPS  H12R 8206   3.848  -0.078   9.685 -1.9484 -0.2311  1.0473
   86SAPS  C213 8207   4.052  -0.156   9.686  0.5645 -0.1258 -0.1063
   86SAPS  H13R 8208   4.024  -0.222   9.601  1.2312 -0.0926 -0.3528
   86SAPS  H13S 8209   4.092  -0.221   9.767 -0.7204 -1.5378 -0.5444
   86SAPS  C214 8210   4.159  -0.069   9.638 -0.5255  0.4469  0.3065
   86SAPS  H14R 8211   4.208  -0.002   9.710 -0.6965  0.1515  0.6992
   86SAPS  C215 8212   4.214  -0.059   9.510  0.2734  0.5580  0.2097
   86SAPS  H15R 8213   4.294   0.014   9.490  1.6361 -0.7359  0.7327
   86SAPS  C216 8214   4.175  -0.134   9.386  0.4973 -0.3280  0.4562
   86SAPS  H16R 8215   4.127  -0.231   9.412  0.3487  0.0954  1.8589
   86SAPS  H16S 8216   4.273  -0.150   9.337  0.3968 -2.1860  0.8080
   86SAPS  C217 8217   4.088  -0.058   9.274  0.4351  0.0496 -0.0244
   86SAPS  H17R 8218   4.082  -0.125   9.186 -3.0765  0.8738 -0.5445
   86SAPS  H17S 8219   4.139   0.036   9.244  1.9875  0.7172  4.0978
   86SAPS  C218 8220   3.942  -0.041   9.324  0.0366 -0.4197  0.6077
   86SAPS  H18R 8221   3.895   0.029   9.253 -0.2977 -1.9759 -0.7596
   86SAPS  H18S 8222   3.944   0.016   9.420 -1.2460  1.4951 -0.4444
   86SAPS  C219 8223   3.848  -0.166   9.333 -0.2079  0.4522 -0.9028
   86SAPS  H19R 8224   3.764  -0.135   9.399 -0.1792  1.4183 -1.3048
   86SAPS  H19S 8225   3.909  -0.249   9.375 -0.4368  1.1203  0.8284
   86SAPS  C220 8226   3.792  -0.216   9.201  0.4001 -0.3610  0.0177
   86SAPS  H20R 8227   3.727  -0.306   9.209 -2.1819  1.4050  0.0648
   86SAPS  H20S 8228   3.873  -0.236   9.128 -0.2172  2.9675 -1.7853
   86SAPS  H20T 8229   3.738  -0.132   9.151  0.2178  0.8626  2.1245
   86SAPS   C33 8230   3.255  -0.489  10.345  0.3099 -0.3440 -0.2518
   86SAPS   H3X 8231   3.147  -0.493  10.322  0.3800  0.5874 -0.8019
   86SAPS   H3Y 8232   3.271  -0.544  10.440  0.3455  0.2973  0.1157
   86SAPS   C34 8233   3.330  -0.576  10.239 -0.1007  0.2873 -0.2567
   86SAPS   H4X 8234   3.316  -0.684  10.259 -2.0032  0.6150  0.4085
   86SAPS   H4Y 8235   3.435  -0.565  10.273 -0.9255 -2.0059  3.6061
   86SAPS   C35 8236   3.305  -0.543  10.090 -1.0089 -0.6706  0.7249
   86SAPS   H5X 8237   3.387  -0.579  10.024 -0.9911  0.4167  0.1305
   86SAPS   H5Y 8238   3.312  -0.434  10.071 -1.6359 -0.8113 -0.3957
   86SAPS   C36 8239   3.179  -0.605  10.034 -0.0829  0.2492 -0.1453
   86SAPS   H6X 8240   3.095  -0.583  10.104 -0.9115 -0.0640 -1.0060
   86SAPS   H6Y 8241   3.185  -0.716  10.040 -1.1361  0.2471  1.6504
   86SAPS   C37 8242   3.137  -0.541   9.898 -0.3779  0.1192  0.7047
   86SAPS   H7X 8243   3.199  -0.569   9.810 -0.0742  0.4751  0.8036
   86SAPS   H7Y 8244   3.134  -0.430   9.898 -1.3878  0.1023  1.3970
   86SAPS   C38 8245   2.987  -0.568   9.853  0.2188  0.3586  0.3783
   86SAPS   H8X 8246   2.925  -0.526   9.935 -0.7185 -1.5228  0.6862
   86SAPS   H8Y 8247   2.986  -0.678   9.863  2.7669  0.3316  0.8454
   86SAPS   C39 8248   2.958  -0.504   9.717  0.8368  0.0598 -0.5490
   86SAPS   H9X 8249   3.024  -0.547   9.639  1.6460 -1.5410  0.9515
   86SAPS   H9Y 8250   2.982  -0.396   9.723  2.1887 -0.2997  1.8407
   86SAPS  C310 8251   2.807  -0.512   9.680  0.7002 -0.3794  0.1917
   86SAPS  H10X 8252   2.732  -0.492   9.760 -1.4394 -2.6685 -1.1053
   86SAPS  H10Y 8253   2.785  -0.619   9.658  1.9435 -0.6276  0.0672
   86SAPS  C311 8254   2.770  -0.431   9.556 -0.4513 -1.2694  0.3436
   86SAPS  H11X 8255   2.794  -0.325   9.579 -0.7038 -1.4981  1.7111
   86SAPS  H11Y 8256   2.663  -0.441   9.531 -0.4750  0.8243 -0.6054
   86SAPS  C312 8257   2.853  -0.447   9.424 -0.4759  0.1877 -0.0662
   86SAPS  H12X 8258   2.863  -0.558   9.414 -0.4561  0.2256 -0.4856
   86SAPS  H12Y 8259   2.954  -0.408   9.447 -0.4739 -0.5828  1.3293
   86SAPS  C313 8260   2.781  -0.393   9.298 -0.6886 -0.3476 -0.8537
   86SAPS  H13X 8261   2.755  -0.287   9.320 -0.2333 -0.0599 -1.6554
   86SAPS  H13Y 8262   2.691  -0.458   9.301 -0.1844 -1.0568  2.1611
   86SAPS  C314 8263   2.852  -0.418   9.160 -0.3128  0.2012 -0.1253
   86SAPS  H14X 8264   2.861  -0.525   9.133 -0.4532  0.0657  0.3538
   86SAPS  H14Y 8265   2.952  -0.370   9.169  0.1725 -0.2030 -2.4917
   86SAPS  C315 8266   2.774  -0.342   9.049  0.0707  0.0978  0.5880
   86SAPS  H15X 8267   2.749  -0.238   9.079 -1.3332 -1.4025  5.7220
   86SAPS  H15Y 8268   2.682  -0.398   9.023 -0.5827  0.7112  1.4973
   86SAPS  C316 8269   2.846  -0.345   8.911 -0.4978 -0.5680 -0.1955
   86SAPS  H16X 8270   2.775  -0.326   8.828  1.5542 -1.4997 -2.2603
   86SAPS  H16Y 8271   2.884  -0.448   8.898 -0.3834 -0.4549 -0.7536
   86SAPS  C317 8272   2.965  -0.247   8.906 -0.4374  0.4841  0.5848
   86SAPS  H17X 8273   3.047  -0.279   8.974  1.1149 -0.1427 -1.4889
   86SAPS  H17Y 8274   2.931  -0.144   8.933  0.6157  0.4441  2.1904
   86SAPS  C318 8275   3.023  -0.251   8.766 -0.0961 -0.0361  0.2749
   86SAPS  H18X 8276   3.090  -0.336   8.742 -1.6196 -0.5050 -2.9326
   86SAPS  H18Y 8277   3.098  -0.169   8.761  0.3710 -0.4860 -0.3732
   86SAPS  H18Z 8278   2.948  -0.235   8.685 -1.8244  2.4522  2.1986
   87SAPS     N 8279   2.931   1.596  11.008  0.6257  0.0333 -0.7352
   87SAPS   HN1 8280   2.961   1.643  10.920 -1.1781  0.6435 -1.0661
   87SAPS   HN2 8281   3.014   1.593  11.070  2.5099  1.9484 -2.9616
   87SAPS   HN3 8282   2.876   1.508  10.996  1.9870 -0.8447 -0.7730
   87SAPS   C12 8283   2.834   1.702  11.064 -1.2696 -0.7448 -0.5386
   87SAPS  H12A 8284   2.733   1.676  11.036 -1.1165 -0.6013 -1.2396
   87SAPS   C13 8285   2.836   1.705  11.220  0.4516 -0.8129  0.2814
   87SAPS  O13A 8286   2.916   1.629  11.284 -0.7036 -0.4489  0.0432
   87SAPS  O13B 8287   2.749   1.769  11.279 -0.1691  0.2853 -0.6571
   87SAPS   C11 8288   2.883   1.841  11.014 -0.4832 -0.0936  0.3522
   87SAPS  H11A 8289   2.820   1.918  11.063  2.1336  0.9693  2.2676
   87SAPS  H11B 8290   2.867   1.843  10.904 -2.2192 -1.4769  0.5246
   87SAPS     P 8291   3.085   2.004  11.023  0.2909  0.3171  0.1629
   87SAPS   O13 8292   2.993   2.101  11.090 -0.3684  0.1825  0.1075
   87SAPS   O14 8293   3.228   2.005  11.064 -0.1651 -0.0460  0.8223
   87SAPS   O12 8294   3.026   1.862  11.044  0.9907 -0.8228  0.7531
   87SAPS   O11 8295   3.091   2.023  10.866  0.3966 -0.2141 -0.4525
   87SAPS    C1 8296   3.174   1.938  10.781  0.5644  0.2554  0.7144
   87SAPS    HA 8297   3.268   1.912  10.834  0.6394 -1.8660 -0.3448
   87SAPS    HB 8298   3.121   1.842  10.764 -0.8310  0.7100  2.2378
   87SAPS    C2 8299   3.193   2.002  10.645  0.0811  0.7392  0.9714
   87SAPS    HS 8300   3.268   2.084  10.647  2.2195 -0.9726 -1.6626
   87SAPS   O21 8301   3.061   2.044  10.605 -0.2240 -0.0135 -0.6847
   87SAPS   C21 8302   3.061   2.154  10.526  0.8205 -0.0829  0.0099
   87SAPS   O22 8303   3.155   2.226  10.505  0.3428 -0.2729 -0.4091
   87SAPS   C22 8304   2.922   2.165  10.464 -0.0550  0.2401 -0.8952
   87SAPS   H2R 8305   2.893   2.062  10.431 -0.3088 -0.7370  2.0964
   87SAPS   H2S 8306   2.856   2.201  10.545  0.0029 -0.8856 -0.3242
   87SAPS    C3 8307   3.247   1.896  10.541 -0.0138 -0.0749 -0.1828
   87SAPS    HX 8308   3.168   1.820  10.522 -0.0925  0.4757 -2.3389
   87SAPS    HY 8309   3.337   1.844  10.581  1.4943  1.0116 -2.0259
   87SAPS   O31 8310   3.274   1.969  10.417 -0.1839  0.5224 -0.2924
   87SAPS   C31 8311   3.393   2.032  10.413  0.8038 -0.0043 -0.0430
   87SAPS   O32 8312   3.472   2.033  10.500 -0.2837  0.1179  0.0204
   87SAPS   C32 8313   3.406   2.099  10.266  0.0213 -0.2169 -0.6002
   87SAPS   H2X 8314   3.335   2.184  10.268 -0.1665 -0.3792 -0.1101
   87SAPS   H2Y 8315   3.370   2.029  10.187 -1.0449 -0.2962 -0.0686
   87SAPS   C23 8316   2.907   2.258  10.348 -0.3238  0.7660  0.2337
   87SAPS   H3R 8317   2.960   2.219  10.258  0.3344  1.8479  0.1305
   87SAPS   H3S 8318   2.963   2.352  10.366  1.3984  0.2601 -2.0085
   87SAPS   C24 8319   2.758   2.299  10.303 -1.4452 -0.2313 -0.7832
   87SAPS   H4R 8320   2.771   2.385  10.235 -0.1167  0.2749  0.0771
   87SAPS   H4S 8321   2.700   2.342  10.388 -1.7193  1.6176 -1.8610
   87SAPS   C25 8322   2.676   2.184  10.247  0.4269 -0.1568 -0.0080
   87SAPS   H5R 8323   2.652   2.100  10.314  0.7239  1.0694  1.7004
   87SAPS   C26 8324   2.643   2.179  10.120 -0.3435  0.0152  0.5482
   87SAPS   H6R 8325   2.583   2.092  10.088 -1.4053  0.5010  1.1397
   87SAPS   C27 8326   2.676   2.275  10.010  0.1763 -0.7259 -0.7505
   87SAPS   H7R 8327   2.654   2.382  10.027  0.2948 -0.2736 -3.1032
   87SAPS   H7S 8328   2.616   2.242   9.922  0.3187  0.1182 -1.1691
   87SAPS   C28 8329   2.823   2.271   9.972  0.8940 -0.0859 -0.5389
   87SAPS   H8R 8330   2.888   2.295  10.058 -0.6157  2.0648  0.0722
   87SAPS   C29 8331   2.863   2.243   9.845 -0.5185 -0.1345  0.2980
   87SAPS   H9R 8332   2.972   2.242   9.827 -0.6022  1.0227 -0.3451
   87SAPS  C210 8333   2.786   2.213   9.725 -0.3081  0.2833  0.1102
   87SAPS  H10R 8334   2.691   2.160   9.748 -0.6954  0.2307 -1.4925
   87SAPS  H10S 8335   2.829   2.140   9.653 -0.7111  1.9948 -1.9757
   87SAPS  C211 8336   2.742   2.339   9.651 -0.2026 -1.4033  0.4195
   87SAPS  H11R 8337   2.711   2.424   9.714 -1.0773 -0.0693 -1.7169
   87SAPS  C212 8338   2.737   2.355   9.517 -0.1202  0.2689  0.5250
   87SAPS  H12R 8339   2.693   2.445   9.471  0.3935  0.4375  0.3577
   87SAPS  C213 8340   2.770   2.253   9.408  0.5359 -0.0546  0.2814
   87SAPS  H13R 8341   2.813   2.159   9.448  0.0314 -0.4408 -0.0783
   87SAPS  H13S 8342   2.844   2.303   9.341  0.9138  0.4203  1.0493
   87SAPS  C214 8343   2.645   2.201   9.336  0.4729  0.1666  0.0295
   87SAPS  H14R 8344   2.594   2.129   9.402  1.0073 -0.1554  0.0951
   87SAPS  C215 8345   2.589   2.241   9.218  0.0290  0.3291 -0.5602
   87SAPS  H15R 8346   2.495   2.197   9.181  0.9344 -0.5428 -1.8962
   87SAPS  C216 8347   2.648   2.346   9.138 -0.3797 -0.9202  0.5143
   87SAPS  H16R 8348   2.726   2.404   9.191  0.9817  0.0230 -2.3449
   87SAPS  H16S 8349   2.573   2.428   9.123  2.1573  1.1304 -2.0802
   87SAPS  C217 8350   2.713   2.300   9.008  0.4945 -0.0283 -0.3686
   87SAPS  H17R 8351   2.639   2.263   8.934  1.0301  0.4984 -1.1913
   87SAPS  H17S 8352   2.772   2.206   9.021  1.0214  0.3155 -0.2609
   87SAPS  C218 8353   2.803   2.396   8.929  0.2210 -0.0198 -0.1397
   87SAPS  H18R 8354   2.830   2.345   8.834 -0.6725  0.8193 -0.8765
   87SAPS  H18S 8355   2.890   2.438   8.984 -0.5226  1.2499  0.1079
   87SAPS  C219 8356   2.730   2.527   8.882 -0.5646 -0.1828  0.2337
   87SAPS  H19R 8357   2.808   2.574   8.818  0.7131 -0.9464  1.1791
   87SAPS  H19S 8358   2.708   2.586   8.973  3.3081 -0.3622  1.4354
   87SAPS  C220 8359   2.595   2.490   8.810 -0.5625  0.4812 -0.3624
   87SAPS  H20R 8360   2.625   2.407   8.743  0.7843 -0.7978  1.7270
   87SAPS  H20S 8361   2.549   2.581   8.766 -1.3025  0.5686  0.5497
   87SAPS  H20T 8362   2.522   2.444   8.880 -1.0614 -2.7924 -2.8070
   87SAPS   C33 8363   3.548   2.160  10.239  0.2552 -0.0436  0.1411
   87SAPS   H3X 8364   3.614   2.075  10.212 -1.6395 -0.7613 -2.6838
   87SAPS   H3Y 8365   3.594   2.201  10.331 -0.9632 -2.0592  1.7260
   87SAPS   C34 8366   3.531   2.258  10.122 -0.2456  0.4996  0.0915
   87SAPS   H4X 8367   3.474   2.348  10.155 -0.9209 -0.4507  1.6108
   87SAPS   H4Y 8368   3.465   2.219  10.042 -2.2324  1.1032  1.3576
   87SAPS   C35 8369   3.672   2.311  10.072  0.0301 -0.0718  0.2463
   87SAPS   H5X 8370   3.736   2.223  10.048  1.0080 -0.1983  2.9374
   87SAPS   H5Y 8371   3.722   2.356  10.161  0.0325  0.7722 -0.1774
   87SAPS   C36 8372   3.666   2.412   9.955  0.1022  0.4702 -0.0529
   87SAPS   H6X 8373   3.773   2.409   9.925  0.2077 -0.3339  0.3765
   87SAPS   H6Y 8374   3.633   2.514   9.985  0.3039  0.3004  0.7722
   87SAPS   C37 8375   3.604   2.356   9.827 -0.1807 -0.5193  0.2109
   87SAPS   H7X 8376   3.496   2.345   9.848 -0.0930 -1.4074  0.2436
   87SAPS   H7Y 8377   3.644   2.254   9.809 -0.3254 -0.4815 -0.3546
   87SAPS   C38 8378   3.631   2.446   9.707 -0.4234 -0.6447  0.3404
   87SAPS   H8X 8379   3.738   2.477   9.703 -0.3524 -0.5688  2.0625
   87SAPS   H8Y 8380   3.561   2.533   9.707 -0.6253 -0.8019 -0.0037
   87SAPS   C39 8381   3.605   2.370   9.576 -0.6289 -0.8661 -0.1289
   87SAPS   H9X 8382   3.495   2.367   9.565 -0.6990 -1.5621  0.6909
   87SAPS   H9Y 8383   3.650   2.269   9.586 -0.3408 -0.9238 -1.6869
   87SAPS  C310 8384   3.652   2.441   9.447  0.4985  0.6228 -0.2356
   87SAPS  H10X 8385   3.762   2.430   9.461  0.3756  0.7754  1.0084
   87SAPS  H10Y 8386   3.629   2.550   9.449 -1.6542  0.2033  0.0354
   87SAPS  C311 8387   3.609   2.371   9.314  0.0212 -0.3523  0.1585
   87SAPS  H11X 8388   3.499   2.361   9.319 -0.2110  0.8122 -1.5123
   87SAPS  H11Y 8389   3.641   2.265   9.302 -1.7526 -0.9683  0.5675
   87SAPS  C312 8390   3.666   2.456   9.196 -0.3691  0.9732 -0.4115
   87SAPS  H12X 8391   3.777   2.458   9.192 -0.3884  2.2986 -0.6409
   87SAPS  H12Y 8392   3.649   2.563   9.219  1.3804  1.5550 -1.5850
   87SAPS  C313 8393   3.608   2.415   9.065  0.6706  0.0368  0.2372
   87SAPS  H13X 8394   3.497   2.426   9.068  0.7577  1.2877 -0.4622
   87SAPS  H13Y 8395   3.627   2.306   9.061  0.4450 -0.0190  0.5611
   87SAPS  C314 8396   3.666   2.499   8.950 -0.2220 -0.1199  0.0756
   87SAPS  H14X 8397   3.776   2.510   8.942 -0.3939  1.1374 -0.9237
   87SAPS  H14Y 8398   3.635   2.605   8.958  0.1239  0.2156 -2.2446
   87SAPS  C315 8399   3.595   2.451   8.819  0.0127 -0.2973  0.4689
   87SAPS  H15X 8400   3.492   2.490   8.834 -0.6900 -1.7740 -0.3155
   87SAPS  H15Y 8401   3.607   2.342   8.807  1.6842 -0.4039  2.5128
   87SAPS  C316 8402   3.643   2.517   8.686 -0.2818 -0.1411 -0.2046
   87SAPS  H16X 8403   3.747   2.491   8.657 -1.3395 -2.2161 -2.5383
   87SAPS  H16Y 8404   3.645   2.626   8.705  0.4516 -0.1401 -0.2338
   87SAPS  C317 8405   3.555   2.490   8.570  0.1011 -1.0431  0.6443
   87SAPS  H17X 8406   3.571   2.565   8.490 -0.6998 -1.0965  0.4205
   87SAPS  H17Y 8407   3.447   2.505   8.596 -0.0661 -0.5258 -0.3073
   87SAPS  C318 8408   3.573   2.355   8.508 -0.4182 -0.2121  0.3169
   87SAPS  H18X 8409   3.546   2.275   8.581  0.3229 -0.1104  0.7210
   87SAPS  H18Y 8410   3.677   2.335   8.472  0.1417 -0.4378  1.9481
   87SAPS  H18Z 8411   3.489   2.339   8.438 -2.1682 -0.4295  2.3479
   88SAPS     N 8412   5.793   5.965  11.016 -0.1452  0.9287  0.1851
   88SAPS   HN1 8413   5.864   5.895  11.045 -0.1617  0.4134 -0.9888
   88SAPS   HN2 8414   5.725   5.910  10.960  1.8670 -2.5142  0.8311
   88SAPS   HN3 8415   5.847   6.026  10.952  0.3992 -0.5596 -0.8315
   88SAPS   C12 8416   5.737   6.046  11.122  0.4798  0.1677 -0.1279
   88SAPS  H12A 8417   5.675   5.982  11.183 -1.8439  0.7012 -1.7905
   88SAPS   C13 8418   5.841   6.099  11.224  0.5247 -1.2813 -0.2085
   88SAPS  O13A 8419   5.964   6.076  11.217  0.0114 -0.0628  0.7267
   88SAPS  O13B 8420   5.790   6.157  11.329 -0.2391  0.5746  0.3123
   88SAPS   C11 8421   5.647   6.157  11.066  0.4884 -0.6836  0.2746
   88SAPS  H11A 8422   5.697   6.237  11.007 -1.6376  1.2279  0.9373
   88SAPS  H11B 8423   5.601   6.216  11.149  0.1434  1.0988 -1.1235
   88SAPS     P 8424   5.470   6.147  10.859  0.4077 -0.4963 -0.5383
   88SAPS   O13 8425   5.426   6.029  10.782 -0.3078 -0.1642 -0.0820
   88SAPS   O14 8426   5.372   6.249  10.902 -0.3012 -0.7252  0.2892
   88SAPS   O12 8427   5.536   6.100  10.999 -0.2550 -0.2421  0.2643
   88SAPS   O11 8428   5.581   6.225  10.781  0.0120  0.0887 -0.0057
   88SAPS    C1 8429   5.695   6.182  10.713 -0.2194 -0.2280 -0.4052
   88SAPS    HA 8430   5.786   6.227  10.757 -1.5243  0.1712  2.0434
   88SAPS    HB 8431   5.716   6.074  10.727 -2.5521 -0.4624  2.2125
   88SAPS    C2 8432   5.684   6.210  10.560 -0.0539 -0.0249  0.0060
   88SAPS    HS 8433   5.673   6.320  10.546  1.4191  0.5547  2.6127
   88SAPS   O21 8434   5.587   6.118  10.500 -0.7738  0.2990 -0.7617
   88SAPS   C21 8435   5.469   6.177  10.472  0.3922 -0.2960  0.3614
   88SAPS   O22 8436   5.460   6.297  10.459  0.6946 -0.3014  0.2561
   88SAPS   C22 8437   5.359   6.076  10.453  0.0711  0.2174  0.4137
   88SAPS   H2R 8438   5.400   5.998  10.385 -2.3599  0.8527 -1.9673
   88SAPS   H2S 8439   5.316   6.035  10.546  0.6685  1.4948  1.2826
   88SAPS    C3 8440   5.818   6.161  10.495  0.2672 -0.1596 -0.4994
   88SAPS    HX 8441   5.798   6.052  10.492  1.2201 -0.3365 -2.2655
   88SAPS    HY 8442   5.906   6.182  10.559 -1.4026  0.6354  1.6357
   88SAPS   O31 8443   5.833   6.229  10.367 -0.5501 -0.2140 -0.3917
   88SAPS   C31 8444   5.818   6.151  10.252 -0.6555  0.3473 -0.9604
   88SAPS   O32 8445   5.799   6.031  10.252  0.6922 -0.4839 -0.3272
   88SAPS   C32 8446   5.839   6.237  10.127 -0.4995  0.6849  0.2313
   88SAPS   H2X 8447   5.937   6.289  10.123 -0.9836  2.2294  3.9226
   88SAPS   H2Y 8448   5.771   6.325  10.134  0.6673  1.5406  1.0359
   88SAPS   C23 8449   5.238   6.145  10.379 -0.4531  0.3056 -0.7874
   88SAPS   H3R 8450   5.280   6.182  10.283  2.1073  0.6526  0.3852
   88SAPS   H3S 8451   5.205   6.233  10.437  0.4371 -0.2342  0.5746
   88SAPS   C24 8452   5.124   6.050  10.361 -0.4584 -0.1959 -0.1067
   88SAPS   H4R 8453   5.113   6.002  10.461  0.1735 -0.7672 -0.2978
   88SAPS   H4S 8454   5.150   5.966  10.293 -0.8050  0.3157 -0.8770
   88SAPS   C25 8455   5.001   6.120  10.319 -0.4311 -0.7269 -0.2177
   88SAPS   H5R 8456   4.950   6.191  10.386  0.5355  0.5103 -0.7434
   88SAPS   C26 8457   4.936   6.109  10.199  0.3956 -0.7900 -0.1265
   88SAPS   H6R 8458   4.842   6.162  10.182  0.9451  0.8143  1.4798
   88SAPS   C27 8459   4.977   6.015  10.085  0.6347 -0.0129 -0.3813
   88SAPS   H7R 8460   4.890   5.993  10.019  2.1683 -2.5278 -1.7292
   88SAPS   H7S 8461   5.016   5.915  10.115 -1.2997 -0.2618  1.5556
   88SAPS   C28 8462   5.079   6.083   9.996  0.0749 -0.1412  0.3685
   88SAPS   H8R 8463   5.149   6.147  10.054  3.0889 -1.3575 -1.7027
   88SAPS   C29 8464   5.076   6.086   9.865 -1.6699 -0.2248 -0.4861
   88SAPS   H9R 8465   5.144   6.152   9.809  1.7566 -1.8558  1.3776
   88SAPS  C210 8466   4.973   6.010   9.779 -0.1603 -0.0655 -0.6368
   88SAPS  H10R 8467   4.874   6.059   9.776 -0.3369 -0.2850  0.9630
   88SAPS  H10S 8468   4.947   5.918   9.835  1.5051 -0.1482  0.0676
   88SAPS  C211 8469   5.009   5.974   9.640 -0.6431 -0.2881  0.3971
   88SAPS  H11R 8470   5.117   5.963   9.622 -0.6356 -1.9722  1.2340
   88SAPS  C212 8471   4.930   5.965   9.530 -0.1363 -0.7945 -0.2722
   88SAPS  H12R 8472   4.969   5.933   9.432 -1.1956  2.4550 -1.8902
   88SAPS  C213 8473   4.780   5.987   9.526  0.0421  0.8352  0.0614
   88SAPS  H13R 8474   4.736   5.990   9.629 -0.5682 -1.9931 -0.0204
   88SAPS  H13S 8475   4.730   5.896   9.488  0.7516 -0.6475  2.4269
   88SAPS  C214 8476   4.727   6.099   9.442  0.0363  0.0429  0.3235
   88SAPS  H14R 8477   4.692   6.191   9.492  0.0093 -0.1438  0.6505
   88SAPS  C215 8478   4.716   6.106   9.309 -0.3646 -0.4602  0.2380
   88SAPS  H15R 8479   4.677   6.200   9.266 -0.5707 -0.2100  0.9470
   88SAPS  C216 8480   4.752   5.993   9.208  0.1028  0.3376 -0.2792
   88SAPS  H16R 8481   4.659   5.955   9.162  0.8823 -1.4210 -0.4629
   88SAPS  H16S 8482   4.803   5.905   9.253  0.8852  0.6066 -0.6162
   88SAPS  C217 8483   4.834   6.046   9.096 -0.4894  0.0384  0.7548
   88SAPS  H17R 8484   4.863   5.956   9.037 -0.6290 -0.4872  1.4774
   88SAPS  H17S 8485   4.928   6.098   9.124 -1.4422  0.9396  2.4021
   88SAPS  C218 8486   4.759   6.142   9.009  0.5327 -0.1111  0.3318
   88SAPS  H18R 8487   4.833   6.185   8.939 -0.5793  2.9026  0.8613
   88SAPS  H18S 8488   4.718   6.230   9.063  1.5834  0.9473 -0.5697
   88SAPS  C219 8489   4.643   6.080   8.935  0.1535  0.3039 -0.0700
   88SAPS  H19R 8490   4.597   6.159   8.873 -0.7715  1.8257  2.4148
   88SAPS  H19S 8491   4.569   6.029   9.001  1.3021  0.1154  1.1271
   88SAPS  C220 8492   4.678   5.968   8.826  0.0930  0.6889 -0.5009
   88SAPS  H20R 8493   4.725   6.017   8.738 -1.0036  0.8111 -1.0390
   88SAPS  H20S 8494   4.577   5.925   8.807 -0.1921  0.0766  2.0720
   88SAPS  H20T 8495   4.738   5.888   8.874 -0.9276 -0.2876 -0.7920
   88SAPS   C33 8496   5.811   6.153  10.008  0.7903 -0.1738  0.2779
   88SAPS   H3X 8497   5.706   6.118   9.993  1.1496 -1.2156  0.1056
   88SAPS   H3Y 8498   5.874   6.063  10.020  1.0032  0.0380  0.7338
   88SAPS   C34 8499   5.867   6.217   9.884  0.6211 -0.8008  0.3333
   88SAPS   H4X 8500   5.976   6.207   9.905  0.6141  0.1261  0.8643
   88SAPS   H4Y 8501   5.846   6.325   9.870  0.9225 -0.7619  0.1575
   88SAPS   C35 8502   5.834   6.138   9.758 -0.0684  0.8143 -0.2725
   88SAPS   H5X 8503   5.730   6.101   9.764  0.4256 -0.8596 -1.3608
   88SAPS   H5Y 8504   5.906   6.054   9.753 -0.7998  0.2350 -1.7940
   88SAPS   C36 8505   5.861   6.226   9.631 -0.1588 -0.6049  0.3910
   88SAPS   H6X 8506   5.971   6.241   9.635 -0.3005  0.6234  0.1357
   88SAPS   H6Y 8507   5.811   6.323   9.653 -0.9505 -0.7565 -0.6295
   88SAPS   C37 8508   5.842   6.157   9.497 -0.2403 -0.0071  0.0756
   88SAPS   H7X 8509   5.736   6.122   9.494 -0.6744  1.2608 -0.7523
   88SAPS   H7Y 8510   5.906   6.069   9.478  2.0759  2.0107 -2.2510
   88SAPS   C38 8511   5.828   6.257   9.376 -0.9299  0.0107  0.3471
   88SAPS   H8X 8512   5.761   6.338   9.412  0.2363 -0.4196  3.8608
   88SAPS   H8Y 8513   5.780   6.211   9.287 -1.7574 -1.0319  1.3002
   88SAPS   C39 8514   5.959   6.323   9.320 -0.0177  0.6703 -0.6549
   88SAPS   H9X 8515   6.014   6.255   9.253  0.3637  0.5444 -0.2144
   88SAPS   H9Y 8516   6.014   6.356   9.411 -2.4940 -2.2315  2.1671
   88SAPS  C310 8517   5.921   6.448   9.234  0.0519  0.4437 -0.5707
   88SAPS  H10X 8518   6.013   6.511   9.240 -0.4735  1.1277  0.9881
   88SAPS  H10Y 8519   5.834   6.500   9.280 -1.4551 -2.4375  0.0550
   88SAPS  C311 8520   5.873   6.432   9.092  0.2477  0.2070  0.1925
   88SAPS  H11X 8521   5.799   6.350   9.098 -1.1128  1.3884  0.1886
   88SAPS  H11Y 8522   5.956   6.399   9.027  2.3428  0.3254  2.6591
   88SAPS  C312 8523   5.817   6.562   9.033  0.0101 -0.6373  0.1631
   88SAPS  H12X 8524   5.879   6.648   9.067 -0.7603  0.1637 -0.4258
   88SAPS  H12Y 8525   5.716   6.581   9.075  1.1809 -0.1559  3.0220
   88SAPS  C313 8526   5.797   6.555   8.878  0.0386 -0.3593  0.0697
   88SAPS  H13X 8527   5.897   6.529   8.834  1.4929  3.0333  1.0821
   88SAPS  H13Y 8528   5.760   6.652   8.840 -3.6354 -1.5709  0.2239
   88SAPS  C314 8529   5.692   6.452   8.842  0.3056  0.6751  0.2695
   88SAPS  H14X 8530   5.592   6.477   8.883 -0.9763 -1.2934 -1.4420
   88SAPS  H14Y 8531   5.718   6.355   8.891 -1.9460 -0.7822 -1.2177
   88SAPS  C315 8532   5.685   6.410   8.697  0.5318 -1.0335  0.4715
   88SAPS  H15X 8533   5.782   6.364   8.670  0.4110 -0.0577 -1.8267
   88SAPS  H15Y 8534   5.682   6.503   8.636  2.3817 -1.5454 -0.4574
   88SAPS  C316 8535   5.578   6.317   8.658 -0.4346  0.2117  0.2080
   88SAPS  H16X 8536   5.486   6.377   8.643  0.2654  0.8821 -1.8721
   88SAPS  H16Y 8537   5.564   6.237   8.734  0.4110  1.0345  1.2532
   88SAPS  C317 8538   5.610   6.238   8.530 -1.2376  0.3611  0.0664
   88SAPS  H17X 8539   5.715   6.203   8.531 -1.0480  0.8191 -1.3383
   88SAPS  H17Y 8540   5.612   6.325   8.460  3.2631  0.9471  0.6429
   88SAPS  C318 8541   5.510   6.132   8.501  0.0047  0.4791  0.4440
   88SAPS  H18X 8542   5.499   6.051   8.575 -0.8872 -1.7011 -1.9126
   88SAPS  H18Y 8543   5.529   6.097   8.397  1.9132  0.6691  0.6800
   88SAPS  H18Z 8544   5.411   6.183   8.498 -0.6079 -0.5689 -3.4838
   89SAPS     N 8545   0.063   2.160  10.450  0.4191 -0.1699  0.3429
   89SAPS   HN1 8546  -0.014   2.223  10.419 -0.6420 -1.7619 -0.4069
   89SAPS   HN2 8547   0.138   2.204  10.508  0.1163 -0.9227  1.3212
   89SAPS   HN3 8548   0.104   2.115  10.365  1.6177  0.8838  0.3308
   89SAPS   C12 8549  -0.013   2.067  10.544 -0.3517 -0.2513 -0.5874
   89SAPS  H12A 8550  -0.079   2.003  10.487  0.0817  1.7473 -3.5806
   89SAPS   C13 8551   0.083   1.971  10.623  0.4601 -0.9123 -1.4378
   89SAPS  O13A 8552   0.206   1.999  10.621 -0.6319  0.4394  0.9281
   89SAPS  O13B 8553   0.025   1.874  10.685 -0.1681 -0.2797  0.1464
   89SAPS   C11 8554  -0.100   2.153  10.650  0.1500 -0.0384  0.0589
   89SAPS  H11A 8555  -0.020   2.200  10.710  0.2568  0.0092 -0.1192
   89SAPS  H11B 8556  -0.167   2.086  10.708  0.2260 -1.2635 -1.2044
   89SAPS     P 8557  -0.232   2.369  10.671  0.1614 -0.2921 -0.2740
   89SAPS   O13 8558  -0.303   2.328  10.792 -0.0612  0.3383  0.2725
   89SAPS   O14 8559  -0.112   2.456  10.695 -0.0546 -0.3657  0.5722
   89SAPS   O12 8560  -0.186   2.249  10.587 -0.4264  0.5759  0.5391
   89SAPS   O11 8561  -0.334   2.441  10.564  0.3416 -0.3252 -0.3600
   89SAPS    C1 8562  -0.288   2.476  10.434 -0.3676 -0.0233 -0.1156
   89SAPS    HA 8563  -0.300   2.587  10.425 -1.8696 -0.1328  0.2110
   89SAPS    HB 8564  -0.178   2.469  10.424 -0.2963  0.9970 -0.2324
   89SAPS    C2 8565  -0.362   2.397  10.323  0.5524 -1.3917 -0.3187
   89SAPS    HS 8566  -0.369   2.293  10.361 -1.6004 -0.5374  1.8409
   89SAPS   O21 8567  -0.295   2.406  10.192  0.5171 -0.6527 -0.3565
   89SAPS   C21 8568  -0.170   2.354  10.190  0.0871  0.0956  0.8851
   89SAPS   O22 8569  -0.123   2.281  10.277  0.0964  0.1908 -0.5410
   89SAPS   C22 8570  -0.105   2.390  10.050 -0.2752 -0.5413  0.8121
   89SAPS   H2R 8571  -0.100   2.297   9.988  0.5896  0.1619 -0.2154
   89SAPS   H2S 8572  -0.174   2.459   9.997  2.4427  0.2716 -2.0296
   89SAPS    C3 8573  -0.511   2.438  10.311  0.4447  0.6273  1.0065
   89SAPS    HX 8574  -0.532   2.533  10.257  0.8932 -0.0470 -0.3787
   89SAPS    HY 8575  -0.544   2.461  10.415 -0.7206  2.0259  0.3650
   89SAPS   O31 8576  -0.583   2.325  10.254  0.3282 -0.0893  0.0158
   89SAPS   C31 8577  -0.639   2.241  10.337 -0.2949 -0.4508  0.6449
   89SAPS   O32 8578  -0.624   2.238  10.454 -0.2067 -0.1870 -0.0617
   89SAPS   C32 8579  -0.738   2.149  10.272  0.7838  0.2533  0.5744
   89SAPS   H2X 8580  -0.774   2.069  10.340  0.4942 -0.7630 -0.7175
   89SAPS   H2Y 8581  -0.677   2.092  10.198 -0.6914 -1.2691  0.4492
   89SAPS   C23 8582   0.034   2.455  10.070  0.1273 -0.6016  0.1166
   89SAPS   H3R 8583   0.095   2.382  10.127  0.3694  0.4053  1.1964
   89SAPS   H3S 8584   0.026   2.542  10.140 -1.9891  0.7103 -1.6186
   89SAPS   C24 8585   0.095   2.505   9.947  0.2439  0.3113  0.1953
   89SAPS   H4R 8586   0.180   2.575   9.964 -1.2103  2.2530 -0.1773
   89SAPS   H4S 8587   0.023   2.575   9.899  0.1747  0.2146  0.1583
   89SAPS   C25 8588   0.116   2.404   9.834 -0.0380  0.6560  0.4093
   89SAPS   H5R 8589   0.151   2.304   9.863  2.3090  1.3476  0.1314
   89SAPS   C26 8590   0.106   2.425   9.700  1.3627  0.3879  0.0343
   89SAPS   H6R 8591   0.127   2.349   9.623  0.9298 -0.7164  0.9715
   89SAPS   C27 8592   0.061   2.556   9.635 -0.2433 -0.0222  0.4167
   89SAPS   H7R 8593  -0.046   2.576   9.656  0.5543  3.6507  1.7684
   89SAPS   H7S 8594   0.054   2.543   9.525 -1.5813  2.3582  0.1661
   89SAPS   C28 8595   0.135   2.686   9.665 -0.9741  0.1721  0.0720
   89SAPS   H8R 8596   0.093   2.744   9.748 -0.9161  2.8349 -1.6174
   89SAPS   C29 8597   0.232   2.745   9.592  0.4420 -0.1435  0.6388
   89SAPS   H9R 8598   0.281   2.837   9.629  1.5503 -0.8373  0.9253
   89SAPS  C210 8599   0.300   2.686   9.466  0.3669 -0.2861  0.5078
   89SAPS  H10R 8600   0.243   2.603   9.418  2.6456 -1.0084 -1.1322
   89SAPS  H10S 8601   0.384   2.628   9.511  1.8822  0.6145 -1.0190
   89SAPS  C211 8602   0.337   2.792   9.367 -0.2244  0.1139  0.1864
   89SAPS  H11R 8603   0.346   2.891   9.413 -0.2087  0.8694 -1.3789
   89SAPS  C212 8604   0.362   2.776   9.240  0.0624  0.3342 -0.3814
   89SAPS  H12R 8605   0.388   2.865   9.182 -0.3317  0.8723  0.2569
   89SAPS  C213 8606   0.364   2.638   9.179  0.7816  0.3145 -0.2321
   89SAPS  H13R 8607   0.273   2.576   9.198  0.4397  0.8507 -0.0962
   89SAPS  H13S 8608   0.450   2.593   9.231  0.8298  2.7806  2.0131
   89SAPS  C214 8609   0.388   2.628   9.025  0.0805  0.6805  0.1218
   89SAPS  H14R 8610   0.490   2.595   9.001 -0.8555 -2.0628 -0.3863
   89SAPS  C215 8611   0.312   2.664   8.922  0.4498 -0.5583 -0.0313
   89SAPS  H15R 8612   0.342   2.635   8.820  1.9902  3.4256 -0.8902
   89SAPS  C216 8613   0.171   2.723   8.925  0.0795 -0.4267 -0.2731
   89SAPS  H16R 8614   0.155   2.740   9.034  0.4929  1.3285 -0.4637
   89SAPS  H16S 8615   0.096   2.653   8.884 -0.0844 -0.2173 -0.3271
   89SAPS  C217 8616   0.169   2.860   8.846  0.7951  0.0038  0.1140
   89SAPS  H17R 8617   0.179   2.856   8.736 -2.0935 -2.1300 -0.1631
   89SAPS  H17S 8618   0.248   2.928   8.886  2.0325 -0.9377 -0.6608
   89SAPS  C218 8619   0.021   2.913   8.855 -0.9790 -0.1201  0.0116
   89SAPS  H18R 8620   0.002   2.927   8.963 -0.0290 -1.3709  0.3750
   89SAPS  H18S 8621  -0.031   2.821   8.818  2.2548 -2.3632  0.6308
   89SAPS  C219 8622  -0.003   3.031   8.764  0.2791 -0.0287  0.2876
   89SAPS  H19R 8623   0.013   2.994   8.661  0.2901 -0.2344  0.3620
   89SAPS  H19S 8624   0.065   3.113   8.793  0.6510 -0.1419 -0.2521
   89SAPS  C220 8625  -0.149   3.081   8.775 -0.2549 -0.4965 -0.1153
   89SAPS  H20R 8626  -0.170   3.136   8.869 -0.5413  0.9748 -0.9965
   89SAPS  H20S 8627  -0.224   2.999   8.774 -1.8719  0.8782  1.4149
   89SAPS  H20T 8628  -0.173   3.150   8.691  2.2820 -0.7898 -1.1608
   89SAPS   C33 8629  -0.855   2.213  10.184  0.0797 -0.2205 -0.4551
   89SAPS   H3X 8630  -0.811   2.295  10.123  0.2644  0.7558  0.9278
   89SAPS   H3Y 8631  -0.920   2.265  10.258  1.1836  1.0112 -0.3071
   89SAPS   C34 8632  -0.937   2.110  10.103  1.0141 -0.4034 -0.3266
   89SAPS   H4X 8633  -1.006   2.063  10.176 -1.0980 -1.3366 -2.7893
   89SAPS   H4Y 8634  -0.879   2.033  10.048 -0.1818  0.1174 -2.4667
   89SAPS   C35 8635  -1.016   2.188   9.991 -0.4292 -0.0204  0.2851
   89SAPS   H5X 8636  -0.951   2.255   9.930  1.9087  0.7185  3.2962
   89SAPS   H5Y 8637  -1.100   2.245  10.035  0.2291 -0.6336  2.5160
   89SAPS   C36 8638  -1.069   2.085   9.887 -0.7092 -0.3069  0.4121
   89SAPS   H6X 8639  -1.163   2.037   9.922 -0.3756 -1.8241 -0.6918
   89SAPS   H6Y 8640  -0.993   2.009   9.861  1.2221  1.0940  1.7171
   89SAPS   C37 8641  -1.097   2.145   9.746 -0.0574  0.0216 -0.2953
   89SAPS   H7X 8642  -0.996   2.175   9.710  0.0194 -1.0600 -1.0128
   89SAPS   H7Y 8643  -1.148   2.243   9.756  1.5686  0.8682  0.1356
   89SAPS   C38 8644  -1.154   2.045   9.647 -0.2329  0.2570 -1.1075
   89SAPS   H8X 8645  -1.256   2.024   9.686  0.0286  2.1223  0.8028
   89SAPS   H8Y 8646  -1.088   1.957   9.661 -1.8363 -0.5926  2.0041
   89SAPS   C39 8647  -1.160   2.095   9.504  0.3088  0.5708 -0.7015
   89SAPS   H9X 8648  -1.243   2.170   9.506 -0.1666  0.0391  0.7456
   89SAPS   H9Y 8649  -1.194   2.018   9.431 -1.2233  1.1910 -0.6989
   89SAPS  C310 8650  -1.029   2.164   9.458 -0.4093  0.8894 -0.5789
   89SAPS  H10X 8651  -0.951   2.101   9.504 -2.3937 -0.8877  0.5644
   89SAPS  H10Y 8652  -1.028   2.269   9.493 -2.1060  1.2322 -1.4197
   89SAPS  C311 8653  -1.008   2.170   9.305  0.0575 -0.5375 -0.5540
   89SAPS  H11X 8654  -1.015   2.069   9.259 -3.9343 -1.0597  0.7866
   89SAPS  H11Y 8655  -0.919   2.231   9.281  0.7212 -1.1193  0.3707
   89SAPS  C312 8656  -1.139   2.237   9.251 -0.0590  0.1281  0.6496
   89SAPS  H12X 8657  -1.163   2.321   9.319  2.3447 -0.3124  2.1722
   89SAPS  H12Y 8658  -1.218   2.160   9.238 -0.2106  0.0792  1.7761
   89SAPS  C313 8659  -1.116   2.304   9.106  0.0251  0.3381 -0.1577
   89SAPS  H13X 8660  -1.062   2.235   9.038  2.0239  2.0724 -0.4324
   89SAPS  H13Y 8661  -1.050   2.393   9.105  1.4150 -0.6425 -2.2469
   89SAPS  C314 8662  -1.248   2.345   9.044  0.8792 -0.4003 -0.4015
   89SAPS  H14X 8663  -1.277   2.437   9.099 -0.0452 -1.0183  0.1586
   89SAPS  H14Y 8664  -1.323   2.263   9.042 -1.7084  1.8203 -2.0904
   89SAPS  C315 8665  -1.235   2.385   8.900 -0.8646 -0.0948  0.4851
   89SAPS  H15X 8666  -1.176   2.315   8.837 -1.1866  0.0697 -0.0056
   89SAPS  H15Y 8667  -1.172   2.477   8.901 -1.4800  0.3278  1.8887
   89SAPS  C316 8668  -1.369   2.397   8.825 -0.0562 -1.2283 -0.4029
   89SAPS  H16X 8669  -1.435   2.467   8.880 -0.5475 -2.5625  0.7595
   89SAPS  H16Y 8670  -1.421   2.299   8.828 -1.6963 -0.3965 -0.8416
   89SAPS  C317 8671  -1.350   2.450   8.680  0.3642 -0.2058  0.2402
   89SAPS  H17X 8672  -1.448   2.449   8.627  0.9104  1.6276 -0.8812
   89SAPS  H17Y 8673  -1.284   2.373   8.635  0.6826  0.6398 -0.7621
   89SAPS  C318 8674  -1.292   2.592   8.666  0.1074  0.1594 -0.3644
   89SAPS  H18X 8675  -1.341   2.656   8.590  0.2786  0.1979 -0.4431
   89SAPS  H18Y 8676  -1.186   2.573   8.638  0.0640  0.5257 -0.7733
   89SAPS  H18Z 8677  -1.294   2.648   8.762 -2.1089 -0.2490 -0.1274
   90SAPS     N 8678   1.204   1.807  10.651  0.4583 -0.9432 -0.6133
   90SAPS   HN1 8679   1.219   1.906  10.626  1.9194 -0.8823  0.4211
   90SAPS   HN2 8680   1.256   1.794  10.740  0.6458 -0.2791 -0.6239
   90SAPS   HN3 8681   1.240   1.742  10.578  1.1787 -3.1209  1.5236
   90SAPS   C12 8682   1.050   1.797  10.677 -1.0183 -0.6967  0.3468
   90SAPS  H12A 8683   1.035   1.722  10.753 -0.8981 -1.6513 -0.5526
   90SAPS   C13 8684   0.991   1.932  10.728 -0.0661  0.2959  0.0090
   90SAPS  O13A 8685   1.057   2.035  10.745  1.0750 -0.8739  0.0926
   90SAPS  O13B 8686   0.875   1.917  10.772  0.3421  0.9824  0.2945
   90SAPS   C11 8687   0.976   1.760  10.547  0.2797  0.1582 -0.5284
   90SAPS  H11A 8688   1.007   1.833  10.469  2.3126  0.1365  0.2231
   90SAPS  H11B 8689   0.865   1.765  10.556 -0.1012 -3.5023 -1.2896
   90SAPS     P 8690   0.932   1.510  10.522 -0.0248  0.0612  0.4408
   90SAPS   O13 8691   1.025   1.392  10.515  0.1055 -0.0680 -0.2471
   90SAPS   O14 8692   0.851   1.531  10.646  0.7466 -0.2740  0.8523
   90SAPS   O12 8693   1.016   1.637  10.492 -0.2636 -0.4586 -0.0435
   90SAPS   O11 8694   0.837   1.509  10.398  0.1810 -0.0091 -0.8017
   90SAPS    C1 8695   0.868   1.566  10.276 -0.1285 -0.1250  0.1994
   90SAPS    HA 8696   0.873   1.677  10.269  1.4668 -0.1822  0.1594
   90SAPS    HB 8697   0.972   1.539  10.247 -0.5078 -0.8792 -0.4949
   90SAPS    C2 8698   0.766   1.527  10.168 -0.1725 -0.3507 -0.2996
   90SAPS    HS 8699   0.666   1.557  10.205  0.5281  0.6009  0.8934
   90SAPS   O21 8700   0.788   1.385  10.153  0.3215 -0.0729  0.5478
   90SAPS   C21 8701   0.692   1.300  10.181 -0.1534 -0.3822  0.3258
   90SAPS   O22 8702   0.581   1.332  10.221 -0.4899 -0.2232 -0.4171
   90SAPS   C22 8703   0.738   1.161  10.142  0.1564  0.8229 -0.4498
   90SAPS   H2R 8704   0.848   1.157  10.124  0.0127  1.4107 -1.5737
   90SAPS   H2S 8705   0.719   1.092  10.226 -2.4994  2.3514  0.3061
   90SAPS    C3 8706   0.793   1.605  10.040  0.2777 -0.6466  0.0497
   90SAPS    HX 8707   0.891   1.569  10.004  2.7222  3.3592  1.9578
   90SAPS    HY 8708   0.812   1.714  10.046 -0.3530 -0.4578 -1.0412
   90SAPS   O31 8709   0.693   1.587   9.942  0.1625 -0.1813 -0.2748
   90SAPS   C31 8710   0.570   1.640   9.952  0.3429 -0.5266 -0.3689
   90SAPS   O32 8711   0.539   1.711  10.044 -0.2313 -0.1171 -0.2936
   90SAPS   C32 8712   0.480   1.592   9.840  0.1207  0.3034 -0.4868
   90SAPS   H2X 8713   0.373   1.603   9.868  0.3397  1.0238  0.0897
   90SAPS   H2Y 8714   0.490   1.482   9.826 -0.4841  0.3618 -1.5128
   90SAPS   C23 8715   0.665   1.099  10.017  0.6295  0.1412  0.1688
   90SAPS   H3R 8716   0.558   1.118  10.038  0.9353 -0.0702  2.0518
   90SAPS   H3S 8717   0.678   0.989  10.005  1.1397  0.3128 -0.9583
   90SAPS   C24 8718   0.708   1.174   9.892 -0.1214  0.1852  0.4495
   90SAPS   H4R 8719   0.816   1.154   9.874 -0.0894  1.3099 -0.7233
   90SAPS   H4S 8720   0.689   1.283   9.879  0.5696  0.1141 -1.5107
   90SAPS   C25 8721   0.643   1.114   9.767 -0.2581  0.3777  0.3938
   90SAPS   H5R 8722   0.540   1.085   9.793  0.5136 -1.1474  1.9743
   90SAPS   C26 8723   0.703   1.073   9.653  0.6829  0.0405  0.3346
   90SAPS   H6R 8724   0.631   1.030   9.582 -1.5890  0.8752  2.0055
   90SAPS   C27 8725   0.847   1.076   9.604  0.1682  0.3698  0.0423
   90SAPS   H7R 8726   0.894   0.975   9.604 -0.0579  0.2647 -0.4133
   90SAPS   H7S 8727   0.913   1.144   9.663 -1.3729  2.2288 -0.2774
   90SAPS   C28 8728   0.855   1.150   9.479 -0.4360 -0.5270  0.4769
   90SAPS   H8R 8729   0.833   1.258   9.479 -0.9978 -0.5925 -1.5283
   90SAPS   C29 8730   0.922   1.119   9.367 -0.1774 -0.3779 -0.2297
   90SAPS   H9R 8731   0.918   1.195   9.288  2.8238 -2.0959 -2.2299
   90SAPS  C210 8732   0.983   0.986   9.325  0.0176  0.7929 -1.0590
   90SAPS  H10R 8733   0.949   0.907   9.395  0.2686 -0.6240 -2.4676
   90SAPS  H10S 8734   1.093   0.976   9.327 -0.1718 -1.9278  0.0239
   90SAPS  C211 8735   0.916   0.952   9.202 -0.2406 -0.7069  0.0231
   90SAPS  H11R 8736   0.810   0.922   9.205 -0.6225  0.3613 -1.3290
   90SAPS  C212 8737   0.981   0.948   9.088 -0.1897  0.6630  0.6587
   90SAPS  H12R 8738   0.928   0.937   8.992  1.1755  2.1420 -0.3217
   90SAPS  C213 8739   1.125   0.989   9.070 -0.0020 -0.2480 -0.1061
   90SAPS  H13R 8740   1.169   1.059   9.144  1.9679 -2.2957  0.7762
   90SAPS  H13S 8741   1.134   1.039   8.972  2.3574 -2.3054 -1.0450
   90SAPS  C214 8742   1.218   0.871   9.066 -0.1964 -0.2421 -0.1773
   90SAPS  H14R 8743   1.180   0.768   9.074  2.0352 -1.0928  0.3673
   90SAPS  C215 8744   1.357   0.876   9.076  0.6905  0.0069  0.7941
   90SAPS  H15R 8745   1.413   0.782   9.063 -1.3089 -0.9282 -1.7801
   90SAPS  C216 8746   1.440   0.999   9.085 -0.5383 -0.4588  0.6851
   90SAPS  H16R 8747   1.462   1.017   9.193 -2.1404  0.3581  0.9194
   90SAPS  H16S 8748   1.397   1.099   9.064  0.3800  0.6181  3.4987
   90SAPS  C217 8749   1.576   0.998   9.011  0.0732  0.6132  0.2596
   90SAPS  H17R 8750   1.630   0.910   9.053  2.6795  1.7437 -0.5164
   90SAPS  H17S 8751   1.645   1.084   9.024  0.2720  0.7377 -1.3429
   90SAPS  C218 8752   1.564   0.979   8.860  0.3701 -0.0335  0.3496
   90SAPS  H18R 8753   1.492   1.046   8.808 -0.4555 -0.9631  0.2736
   90SAPS  H18S 8754   1.535   0.873   8.844  0.7198 -0.0307 -0.3454
   90SAPS  C219 8755   1.705   0.985   8.783 -0.1575 -0.9473 -0.4311
   90SAPS  H19R 8756   1.783   0.930   8.841  0.8648 -0.7255 -1.5548
   90SAPS  H19S 8757   1.731   1.092   8.779  2.3773 -1.5127 -0.8384
   90SAPS  C220 8758   1.686   0.922   8.645 -0.1834 -0.2779 -0.2802
   90SAPS  H20R 8759   1.775   0.950   8.585  1.6032 -0.1864  2.2662
   90SAPS  H20S 8760   1.596   0.974   8.605  1.0860  1.8248 -0.5506
   90SAPS  H20T 8761   1.675   0.812   8.658  0.5758 -0.1818  1.5171
   90SAPS   C33 8762   0.523   1.660   9.705  0.2150 -0.6784 -0.1699
   90SAPS   H3X 8763   0.634   1.661   9.705  0.2148 -0.6496 -0.1968
   90SAPS   H3Y 8764   0.488   1.765   9.704  2.7117  0.2645  1.7388
   90SAPS   C34 8765   0.484   1.590   9.578 -0.1947 -0.5096  0.5290
   90SAPS   H4X 8766   0.384   1.542   9.584 -0.8709 -0.0666 -4.0767
   90SAPS   H4Y 8767   0.559   1.512   9.552  0.3698 -0.0202  0.6770
   90SAPS   C35 8768   0.484   1.682   9.454  0.5822  0.4429  0.3932
   90SAPS   H5X 8769   0.586   1.678   9.410  0.3649  0.2964 -0.0988
   90SAPS   H5Y 8770   0.461   1.787   9.483  0.0044  0.8446 -1.3979
   90SAPS   C36 8771   0.389   1.642   9.347  0.1638 -0.9937  0.1087
   90SAPS   H6X 8772   0.281   1.641   9.375  0.3556 -1.9980  0.8375
   90SAPS   H6Y 8773   0.408   1.539   9.311  0.8291 -1.2517  1.1893
   90SAPS   C37 8774   0.411   1.737   9.227  0.0477 -0.7748 -0.1530
   90SAPS   H7X 8775   0.357   1.696   9.139  1.4638 -0.0295 -1.4026
   90SAPS   H7Y 8776   0.516   1.752   9.196  0.0856  0.0063  0.3405
   90SAPS   C38 8777   0.349   1.881   9.240  0.0973  0.5620  0.3153
   90SAPS   H8X 8778   0.405   1.929   9.323 -0.5151 -0.1666  1.1723
   90SAPS   H8Y 8779   0.251   1.872   9.292  0.3971 -1.2108  0.6254
   90SAPS   C39 8780   0.354   1.966   9.115  0.0155 -0.2650  0.3130
   90SAPS   H9X 8781   0.282   1.932   9.036  0.8410  0.2888 -0.7019
   90SAPS   H9Y 8782   0.452   1.971   9.063 -0.8198 -1.4130 -1.4837
   90SAPS  C310 8783   0.319   2.114   9.149 -0.4088  0.5765 -0.2555
   90SAPS  H10X 8784   0.368   2.185   9.079  0.0457 -1.4439 -2.0934
   90SAPS  H10Y 8785   0.354   2.132   9.253 -0.7150  1.4424 -0.2987
   90SAPS  C311 8786   0.172   2.138   9.120 -0.2372  0.1289  0.5692
   90SAPS  H11X 8787   0.107   2.143   9.210 -1.0779 -0.3926  0.0148
   90SAPS  H11Y 8788   0.128   2.051   9.066 -1.5731  0.5165  0.9778
   90SAPS  C312 8789   0.148   2.255   9.026  1.0084  0.3386 -0.1872
   90SAPS  H12X 8790   0.172   2.224   8.922  2.0877  0.5466 -0.0149
   90SAPS  H12Y 8791   0.224   2.336   9.030  0.8074  0.6020 -1.2493
   90SAPS  C313 8792   0.007   2.317   9.041 -0.1954 -0.4968  0.7201
   90SAPS  H13X 8793  -0.067   2.233   9.038 -2.5913  1.4299 -2.8545
   90SAPS  H13Y 8794  -0.011   2.382   8.953 -0.8392 -1.0055  0.4654
   90SAPS  C314 8795  -0.019   2.418   9.154 -0.0603  0.0979  1.0409
   90SAPS  H14X 8796   0.041   2.511   9.150 -1.1041  0.8813  2.2632
   90SAPS  H14Y 8797   0.021   2.376   9.249  1.0249  0.2258  0.6441
   90SAPS  C315 8798  -0.170   2.454   9.161 -0.1361  0.6941 -0.7627
   90SAPS  H15X 8799  -0.215   2.362   9.206 -0.2782  0.9968 -0.2826
   90SAPS  H15Y 8800  -0.218   2.471   9.063 -1.1423  0.4289 -0.3247
   90SAPS  C316 8801  -0.195   2.578   9.235 -0.2769 -0.1710 -0.7108
   90SAPS  H16X 8802  -0.169   2.567   9.342 -2.9709 -2.4633 -0.1384
   90SAPS  H16Y 8803  -0.306   2.588   9.245 -0.0980  1.4815 -0.0750
   90SAPS  C317 8804  -0.132   2.700   9.177 -0.2920  0.1556  0.9669
   90SAPS  H17X 8805  -0.106   2.681   9.071 -1.7825 -0.5810  0.7019
   90SAPS  H17Y 8806  -0.044   2.739   9.232 -1.5507  2.7478  1.3066
   90SAPS  C318 8807  -0.229   2.819   9.173  0.3407  0.4351  0.6523
   90SAPS  H18X 8808  -0.188   2.910   9.122 -2.5960  1.3116 -0.3322
   90SAPS  H18Y 8809  -0.254   2.852   9.276 -2.7801  2.7705 -0.6893
   90SAPS  H18Z 8810  -0.324   2.789   9.124  0.3508 -0.6299  1.2639
   91SAPS     N 8811   5.205   5.619   5.739  0.0367  0.0683 -0.1556
   91SAPS   HN1 8812   5.299   5.586   5.707 -0.1482  0.8910 -1.6130
   91SAPS   HN2 8813   5.129   5.582   5.679  0.6460 -1.2430 -0.1524
   91SAPS   HN3 8814   5.214   5.722   5.730 -0.0267  0.0959  0.0997
   91SAPS   C12 8815   5.192   5.594   5.892  0.2577  0.3208  0.0089
   91SAPS  H12A 8816   5.089   5.621   5.909 -0.5807 -0.9493 -2.4755
   91SAPS   C13 8817   5.210   5.441   5.916  0.1476  0.4403 -0.8957
   91SAPS  O13A 8818   5.219   5.353   5.821 -0.0428  0.1209 -0.4747
   91SAPS  O13B 8819   5.155   5.406   6.023 -0.4378 -0.3927 -0.4441
   91SAPS   C11 8820   5.296   5.675   5.972  0.6986  0.5397  0.1585
   91SAPS  H11A 8821   5.393   5.627   5.948  0.1417 -1.0633  0.9652
   91SAPS  H11B 8822   5.268   5.641   6.074  0.3207 -0.2457 -0.2009
   91SAPS     P 8823   5.396   5.909   6.017  0.3419  0.3019  0.4637
   91SAPS   O13 8824   5.511   5.877   5.936 -0.5228  0.0504  0.0712
   91SAPS   O14 8825   5.348   6.049   6.010 -0.4157  0.3757  0.0567
   91SAPS   O12 8826   5.276   5.819   5.961  0.2645  0.1376 -0.1189
   91SAPS   O11 8827   5.414   5.847   6.163  0.3607 -0.2868  0.1220
   91SAPS    C1 8828   5.335   5.889   6.275 -0.2535  0.4794  0.4013
   91SAPS    HA 8829   5.229   5.920   6.258 -1.3022 -0.5322  4.1133
   91SAPS    HB 8830   5.308   5.800   6.336 -3.3022 -1.0465 -2.8060
   91SAPS    C2 8831   5.413   5.991   6.358  0.2381  0.2494 -0.5183
   91SAPS    HS 8832   5.460   6.070   6.295  2.3621 -2.2676 -2.3251
   91SAPS   O21 8833   5.507   5.909   6.429  0.3051 -0.3192 -0.4013
   91SAPS   C21 8834   5.598   5.976   6.492  0.0475  0.0885 -0.2576
   91SAPS   O22 8835   5.632   6.090   6.469 -0.0985 -0.5540  0.5766
   91SAPS   C22 8836   5.680   5.885   6.580  0.0568  0.0837 -0.0216
   91SAPS   H2R 8837   5.686   5.785   6.532  0.0904  0.2695 -0.4074
   91SAPS   H2S 8838   5.781   5.931   6.589  0.0946  0.6656 -2.7228
   91SAPS    C3 8839   5.309   6.064   6.454 -0.2455 -0.5080 -0.0276
   91SAPS    HX 8840   5.278   5.997   6.537 -0.7473 -2.1654 -1.4831
   91SAPS    HY 8841   5.220   6.079   6.389  0.3942  2.9295 -0.3211
   91SAPS   O31 8842   5.372   6.178   6.518  0.5939  0.3786 -0.0559
   91SAPS   C31 8843   5.364   6.296   6.448  0.1895  0.1256 -0.3270
   91SAPS   O32 8844   5.304   6.309   6.348 -0.0083  0.8582  0.6444
   91SAPS   C32 8845   5.444   6.405   6.518  0.1288 -0.9527 -0.0314
   91SAPS   H2X 8846   5.464   6.487   6.446  0.0106 -2.5685 -1.9846
   91SAPS   H2Y 8847   5.540   6.362   6.553  2.0504  3.0070  0.0849
   91SAPS   C23 8848   5.612   5.869   6.720 -0.2311  1.0535 -0.4329
   91SAPS   H3R 8849   5.663   5.784   6.770  1.1060  0.1398 -3.1457
   91SAPS   H3S 8850   5.508   5.830   6.710  0.0343 -0.2545  1.2883
   91SAPS   C24 8851   5.595   5.995   6.809  0.6664  0.2635 -0.4145
   91SAPS   H4R 8852   5.549   6.083   6.758  0.8880  0.7209  0.1554
   91SAPS   H4S 8853   5.697   6.026   6.841  0.5777  2.1245 -1.7931
   91SAPS   C25 8854   5.503   5.955   6.923 -0.2985  0.1149  0.3889
   91SAPS   H5R 8855   5.399   5.988   6.913 -0.5083 -0.6520 -0.0737
   91SAPS   C26 8856   5.543   5.908   7.041 -0.0763  0.2832 -0.5170
   91SAPS   H6R 8857   5.477   5.889   7.127  0.8330  2.2520  0.6627
   91SAPS   C27 8858   5.682   5.886   7.074 -0.4681  0.1362 -0.4151
   91SAPS   H7R 8859   5.720   5.984   7.109 -0.9924 -0.0832  0.8420
   91SAPS   H7S 8860   5.737   5.843   6.988  0.6322  0.7586 -0.0393
   91SAPS   C28 8861   5.714   5.779   7.175  0.6669  0.0460 -0.2708
   91SAPS   H8R 8862   5.751   5.685   7.132  0.9505  0.5637 -1.1855
   91SAPS   C29 8863   5.699   5.786   7.308 -0.5858 -0.5729 -0.5911
   91SAPS   H9R 8864   5.720   5.700   7.374  2.8847 -1.2461 -2.3730
   91SAPS  C210 8865   5.626   5.900   7.380  0.3122  0.1040  0.3765
   91SAPS  H10R 8866   5.524   5.860   7.400  0.5221 -0.3405  0.5779
   91SAPS  H10S 8867   5.601   5.985   7.314  0.0360 -0.7469 -0.6522
   91SAPS  C211 8868   5.700   5.952   7.500  0.5005 -0.4581 -0.1844
   91SAPS  H11R 8869   5.795   6.002   7.475  0.4024  0.5122  1.2256
   91SAPS  C212 8870   5.666   5.938   7.633  0.2794 -0.0151 -0.0100
   91SAPS  H12R 8871   5.743   5.967   7.706  1.4567 -1.1321 -0.7613
   91SAPS  C213 8872   5.556   5.862   7.697 -0.3900  0.0258  0.4715
   91SAPS  H13R 8873   5.593   5.803   7.783  0.2525 -0.7360 -0.3089
   91SAPS  H13S 8874   5.537   5.787   7.616  1.5342 -0.6412  0.5940
   91SAPS  C214 8875   5.419   5.914   7.738  0.1893  0.3071  1.0125
   91SAPS  H14R 8876   5.399   6.005   7.681  0.0908 -2.4752 -3.8990
   91SAPS  C215 8877   5.337   5.870   7.831  0.7336  0.6181 -0.0046
   91SAPS  H15R 8878   5.248   5.927   7.863  1.1976  0.9399  0.7384
   91SAPS  C216 8879   5.355   5.746   7.917 -0.0538  0.2282 -0.2079
   91SAPS  H16R 8880   5.390   5.667   7.847  3.4536  0.2047  1.3760
   91SAPS  H16S 8881   5.255   5.713   7.950  1.1185 -1.3070  2.0358
   91SAPS  C217 8882   5.450   5.761   8.039 -0.1432 -0.3340 -0.2188
   91SAPS  H17R 8883   5.554   5.773   8.000 -0.1709 -0.1319 -0.2314
   91SAPS  H17S 8884   5.452   5.666   8.096  0.9785 -0.4488 -0.4251
   91SAPS  C218 8885   5.420   5.880   8.135  0.2511  0.3319 -0.1676
   91SAPS  H18R 8886   5.429   5.967   8.067 -1.2637 -0.1700 -1.0508
   91SAPS  H18S 8887   5.502   5.898   8.208  3.2361  1.7951 -3.5875
   91SAPS  C219 8888   5.279   5.875   8.203  0.5319 -0.8260 -0.2233
   91SAPS  H19R 8889   5.279   5.785   8.268  1.7421  0.7293  2.0757
   91SAPS  H19S 8890   5.197   5.879   8.129 -0.0212 -1.9769  0.3024
   91SAPS  C220 8891   5.258   6.007   8.288 -0.0902 -0.6510 -1.0982
   91SAPS  H20R 8892   5.343   5.996   8.359 -0.1713 -1.7043 -1.1494
   91SAPS  H20S 8893   5.155   5.998   8.328  0.2050 -3.2128 -0.7596
   91SAPS  H20T 8894   5.265   6.099   8.225 -2.1004  1.0955  1.0583
   91SAPS   C33 8895   5.362   6.451   6.640  0.0579  0.1110  0.0832
   91SAPS   H3X 8896   5.254   6.462   6.619  0.0755  1.7306  0.7127
   91SAPS   H3Y 8897   5.393   6.551   6.678 -0.1844 -0.2014  1.1254
   91SAPS   C34 8898   5.383   6.357   6.756  0.0046 -0.4030  0.2678
   91SAPS   H4X 8899   5.493   6.356   6.774 -0.2163 -0.7104  1.6903
   91SAPS   H4Y 8900   5.349   6.254   6.731  1.1113 -0.2721 -2.0773
   91SAPS   C35 8901   5.317   6.406   6.881 -0.6512  0.1355  0.5101
   91SAPS   H5X 8902   5.206   6.396   6.874 -0.8909  3.0194 -3.1636
   91SAPS   H5Y 8903   5.325   6.516   6.898 -0.6748  0.2150  0.0212
   91SAPS   C36 8904   5.369   6.336   7.007 -0.2376 -0.5820 -0.6432
   91SAPS   H6X 8905   5.479   6.350   7.016 -0.6365  1.5631  2.5022
   91SAPS   H6Y 8906   5.339   6.229   7.003 -2.1720 -0.0914 -0.3000
   91SAPS   C37 8907   5.321   6.389   7.141  0.0357 -0.1301  0.3982
   91SAPS   H7X 8908   5.210   6.379   7.150 -0.1836 -0.9589 -2.3323
   91SAPS   H7Y 8909   5.353   6.494   7.152  1.4875 -0.3844 -1.1491
   91SAPS   C38 8910   5.387   6.314   7.260  0.1971  0.5004 -0.3018
   91SAPS   H8X 8911   5.498   6.326   7.251  0.5226 -1.8806  0.0047
   91SAPS   H8Y 8912   5.374   6.205   7.248 -2.3697  0.6508  0.6851
   91SAPS   C39 8913   5.338   6.361   7.400  0.4630 -0.0842 -0.0303
   91SAPS   H9X 8914   5.228   6.347   7.409  0.4720  0.6630  1.6596
   91SAPS   H9Y 8915   5.356   6.468   7.424  0.1378  0.1901 -0.9633
   91SAPS  C310 8916   5.405   6.288   7.517 -0.2406  0.7755  0.0933
   91SAPS  H10X 8917   5.515   6.289   7.504 -0.0428  0.6883  1.5550
   91SAPS  H10Y 8918   5.375   6.181   7.512  0.9295  0.5056 -2.0976
   91SAPS  C311 8919   5.365   6.347   7.651 -0.2655  0.2939 -0.2622
   91SAPS  H11X 8920   5.255   6.346   7.668 -0.3993  0.2408 -1.1201
   91SAPS  H11Y 8921   5.397   6.453   7.645 -0.2097  0.1954 -2.2360
   91SAPS  C312 8922   5.448   6.295   7.770  0.0537  0.4890  0.1277
   91SAPS  H12X 8923   5.547   6.263   7.731 -0.2145 -0.3640  0.1300
   91SAPS  H12Y 8924   5.397   6.202   7.804  1.9469 -0.4939  0.4082
   91SAPS  C313 8925   5.468   6.407   7.868 -0.6693 -0.0362 -0.3578
   91SAPS  H13X 8926   5.377   6.470   7.880  0.0040  0.8124  0.4291
   91SAPS  H13Y 8927   5.543   6.473   7.819  1.5155 -3.5840 -2.2074
   91SAPS  C314 8928   5.525   6.360   8.006  0.0493  0.3133 -0.3254
   91SAPS  H14X 8929   5.625   6.311   8.002  0.6856  1.5382 -0.0581
   91SAPS  H14Y 8930   5.446   6.291   8.040 -0.4520  0.0258 -1.9811
   91SAPS  C315 8931   5.541   6.464   8.106  0.2849 -0.5246 -0.2854
   91SAPS  H15X 8932   5.566   6.417   8.204  2.5918 -1.3454 -1.2084
   91SAPS  H15Y 8933   5.445   6.520   8.115 -0.6929 -1.5237 -3.3249
   91SAPS  C316 8934   5.654   6.566   8.073  0.2688  0.3626 -0.1221
   91SAPS  H16X 8935   5.611   6.668   8.067 -0.7295 -0.0254  0.2480
   91SAPS  H16Y 8936   5.703   6.529   7.980 -0.7306 -4.4360  0.9867
   91SAPS  C317 8937   5.763   6.565   8.174 -0.6179  0.0516  0.4398
   91SAPS  H17X 8938   5.854   6.587   8.113 -1.8759 -0.4593 -1.7248
   91SAPS  H17Y 8939   5.782   6.471   8.229 -0.4357  0.4765  1.1062
   91SAPS  C318 8940   5.749   6.666   8.284  0.9064 -0.3931  0.7192
   91SAPS  H18X 8941   5.850   6.694   8.321  1.0710 -1.6322  1.2665
   91SAPS  H18Y 8942   5.686   6.630   8.369  0.1404 -0.8316 -0.0254
   91SAPS  H18Z 8943   5.704   6.757   8.239  0.1321 -0.5075  1.2354
   92SAPS     N 8944   5.081   4.493   6.180  0.9505 -0.0382 -0.0612
   92SAPS   HN1 8945   5.164   4.471   6.121  1.5131  2.8588 -0.5178
   92SAPS   HN2 8946   4.990   4.492   6.130  1.0141  0.9106 -0.2285
   92SAPS   HN3 8947   5.085   4.588   6.222  0.8123  1.0030 -2.2406
   92SAPS   C12 8948   5.087   4.395   6.293 -0.0082  0.1738  0.1073
   92SAPS  H12A 8949   5.006   4.431   6.354  1.3408  2.1896  0.7993
   92SAPS   C13 8950   5.060   4.243   6.260  0.2296 -0.1454  0.2732
   92SAPS  O13A 8951   5.028   4.212   6.145 -0.3976  0.1104  0.0897
   92SAPS  O13B 8952   5.079   4.157   6.346  0.3620  0.5015 -0.2133
   92SAPS   C11 8953   5.230   4.420   6.358  0.4212 -0.4219  0.2349
   92SAPS  H11A 8954   5.304   4.388   6.283 -0.8240 -0.4118 -1.0318
   92SAPS  H11B 8955   5.235   4.357   6.450 -1.0988 -0.4529  0.3227
   92SAPS     P 8956   5.374   4.633   6.379 -0.1433 -0.1486 -0.0566
   92SAPS   O13 8957   5.437   4.599   6.249  0.0303  0.1281  0.3612
   92SAPS   O14 8958   5.352   4.779   6.405  0.4538  0.0190  0.2036
   92SAPS   O12 8959   5.234   4.560   6.393 -0.0912 -0.1114 -0.2451
   92SAPS   O11 8960   5.470   4.575   6.493  0.0074  0.5050  0.2334
   92SAPS    C1 8961   5.438   4.625   6.626  0.0855  0.9060 -0.0034
   92SAPS    HA 8962   5.498   4.714   6.651 -1.3368  2.3245 -1.4087
   92SAPS    HB 8963   5.332   4.647   6.651  0.5282  0.8594  2.1156
   92SAPS    C2 8964   5.471   4.511   6.730  0.3222 -0.3347 -0.7095
   92SAPS    HS 8965   5.401   4.517   6.816  2.6626 -0.2825  1.3008
   92SAPS   O21 8966   5.607   4.516   6.777  0.3824 -0.1622 -0.3364
   92SAPS   C21 8967   5.627   4.572   6.897  0.7878  0.1735 -0.0517
   92SAPS   O22 8968   5.541   4.626   6.964  0.1568  0.3757  0.1601
   92SAPS   C22 8969   5.776   4.546   6.940  0.3731  0.2547  0.5103
   92SAPS   H2R 8970   5.783   4.436   6.949  0.9090  0.2699  0.3605
   92SAPS   H2S 8971   5.849   4.581   6.863 -0.2427  0.4817  0.0190
   92SAPS    C3 8972   5.433   4.366   6.683 -0.2538 -0.8690  0.4108
   92SAPS    HX 8973   5.513   4.327   6.616  0.1039  0.3646  0.1027
   92SAPS    HY 8974   5.347   4.388   6.617  1.0934  0.3506 -1.0239
   92SAPS   O31 8975   5.400   4.276   6.791  0.6128  0.2038  1.1093
   92SAPS   C31 8976   5.269   4.270   6.809 -0.5198  0.4554 -0.0029
   92SAPS   O32 8977   5.183   4.348   6.780  0.8046  0.3673  0.4017
   92SAPS   C32 8978   5.244   4.151   6.903 -0.7299  1.1605 -0.0223
   92SAPS   H2X 8979   5.338   4.095   6.918 -0.6441  0.4126 -2.8132
   92SAPS   H2Y 8980   5.183   4.076   6.849 -3.6879  2.6041  1.0630
   92SAPS   C23 8981   5.824   4.613   7.063  0.4087  0.3362 -0.3798
   92SAPS   H3R 8982   5.813   4.722   7.041 -2.6789 -0.3804 -2.9396
   92SAPS   H3S 8983   5.934   4.599   7.074  0.5144  0.7783 -0.8603
   92SAPS   C24 8984   5.758   4.582   7.199 -0.2365  0.0743 -0.2096
   92SAPS   H4R 8985   5.648   4.594   7.191  0.1065  2.6595 -1.9992
   92SAPS   H4S 8986   5.805   4.664   7.257 -1.7390  0.9406 -0.1561
   92SAPS   C25 8987   5.792   4.447   7.252 -0.9557  0.6353 -0.3844
   92SAPS   H5R 8988   5.767   4.363   7.186 -2.4906  1.2367 -0.6158
   92SAPS   C26 8989   5.849   4.419   7.368 -0.6521  0.4532  0.0387
   92SAPS   H6R 8990   5.853   4.313   7.395 -0.1925  0.0278 -1.5715
   92SAPS   C27 8991   5.886   4.521   7.478  0.2954  0.4432  0.2204
   92SAPS   H7R 8992   5.953   4.597   7.434  0.5989  0.4402  0.6773
   92SAPS   H7S 8993   5.958   4.477   7.549  0.1003 -1.4854 -0.7095
   92SAPS   C28 8994   5.774   4.604   7.542  0.0564 -0.0587  0.0328
   92SAPS   H8R 8995   5.726   4.685   7.485 -1.2442  0.4893  1.8125
   92SAPS   C29 8996   5.728   4.570   7.661  0.0159  1.1566 -0.6856
   92SAPS   H9R 8997   5.642   4.622   7.706  0.6187  0.7185  1.0395
   92SAPS  C210 8998   5.780   4.465   7.753  0.0687 -0.0483 -0.7069
   92SAPS  H10R 8999   5.812   4.373   7.700 -0.8568 -0.8869  0.1439
   92SAPS  H10S 9000   5.689   4.429   7.806  1.2096 -0.7080  0.8818
   92SAPS  C211 9001   5.879   4.497   7.857  0.0268  0.3632 -0.3239
   92SAPS  H11R 9002   5.975   4.537   7.820  0.5108 -0.9311 -0.5022
   92SAPS  C212 9003   5.862   4.483   7.989 -0.0273 -0.0609  0.2488
   92SAPS  H12R 9004   5.950   4.511   8.048  0.0337 -1.9211  1.1117
   92SAPS  C213 9005   5.760   4.405   8.072  0.5045 -0.3787  0.4018
   92SAPS  H13R 9006   5.795   4.300   8.074 -2.4113 -1.4869 -0.8999
   92SAPS  H13S 9007   5.664   4.414   8.017  0.3022 -0.9333  0.6588
   92SAPS  C214 9008   5.725   4.447   8.208 -0.4627  0.6116  0.4432
   92SAPS  H14R 9009   5.790   4.531   8.239 -0.7952  1.8088 -1.8760
   92SAPS  C215 9010   5.611   4.423   8.283 -0.7303  0.3038  0.0119
   92SAPS  H15R 9011   5.610   4.454   8.389 -0.3451  0.7563 -0.1153
   92SAPS  C216 9012   5.501   4.329   8.253  0.6451  0.3716 -0.1972
   92SAPS  H16R 9013   5.509   4.280   8.153 -0.8669 -0.4998  0.0919
   92SAPS  H16S 9014   5.408   4.388   8.243  1.4102  1.2357 -4.4837
   92SAPS  C217 9015   5.476   4.214   8.356  0.0471 -0.4178  0.1118
   92SAPS  H17R 9016   5.397   4.146   8.319 -0.1908 -0.9041  1.4510
   92SAPS  H17S 9017   5.436   4.259   8.449  0.1733  1.5768 -0.7487
   92SAPS  C218 9018   5.604   4.141   8.377  0.0506 -0.3192  0.4648
   92SAPS  H18R 9019   5.688   4.210   8.397 -0.3815 -0.0661  1.4774
   92SAPS  H18S 9020   5.628   4.088   8.283 -0.8824  3.3609 -2.0993
   92SAPS  C219 9021   5.609   4.050   8.497  0.3180 -0.9687 -0.4591
   92SAPS  H19R 9022   5.536   3.967   8.488 -1.1490  0.2239  0.0173
   92SAPS  H19S 9023   5.583   4.126   8.574  0.5938  0.2031 -1.4955
   92SAPS  C220 9024   5.751   4.002   8.524  0.0284  0.1653  0.2745
   92SAPS  H20R 9025   5.745   3.942   8.618  1.1451 -2.0559 -0.9763
   92SAPS  H20S 9026   5.813   4.090   8.551  0.9719 -0.9597  2.0000
   92SAPS  H20T 9027   5.779   3.932   8.442  1.6446 -2.4849  2.8684
   92SAPS   C33 9028   5.174   4.177   7.035  0.3894 -0.0726 -0.4199
   92SAPS   H3X 9029   5.073   4.217   7.013  1.3881  1.0977 -3.3061
   92SAPS   H3Y 9030   5.216   4.257   7.101 -0.7874  1.7883 -1.8219
   92SAPS   C34 9031   5.165   4.046   7.122 -0.2227 -0.4444  0.2116
   92SAPS   H4X 9032   5.270   4.034   7.158 -0.0360  0.0923 -0.1416
   92SAPS   H4Y 9033   5.139   3.949   7.076 -0.3249 -0.5044  0.3941
   92SAPS   C35 9034   5.089   4.073   7.250  0.4454  0.3077  0.5348
   92SAPS   H5X 9035   4.980   4.094   7.238 -1.0052 -3.9715  3.5303
   92SAPS   H5Y 9036   5.129   4.160   7.306 -0.6601  1.8266 -0.9274
   92SAPS   C36 9037   5.090   3.946   7.349  0.1731 -0.6562  0.1687
   92SAPS   H6X 9038   5.067   3.856   7.289  0.2855 -0.8664  0.4411
   92SAPS   H6Y 9039   5.014   3.961   7.430 -0.8955 -1.6202 -0.6278
   92SAPS   C37 9040   5.223   3.918   7.412 -0.7632  0.1303 -0.2454
   92SAPS   H7X 9041   5.264   4.004   7.469 -1.9597  0.6033 -0.0707
   92SAPS   H7Y 9042   5.300   3.882   7.340 -1.0234 -1.5959  0.3062
   92SAPS   C38 9043   5.209   3.800   7.514  0.2460  0.4340 -0.1624
   92SAPS   H8X 9044   5.316   3.773   7.530  0.0801 -0.9995 -1.3703
   92SAPS   H8Y 9045   5.159   3.717   7.461 -0.6957  2.5743 -2.8587
   92SAPS   C39 9046   5.146   3.836   7.646 -0.1965 -0.7103  0.0750
   92SAPS   H9X 9047   5.043   3.876   7.636  0.3725  0.7097 -0.2729
   92SAPS   H9Y 9048   5.200   3.914   7.704  0.9044  0.9760 -2.9564
   92SAPS  C310 9049   5.129   3.709   7.732  0.5197 -0.5869  0.3177
   92SAPS  H10X 9050   5.232   3.675   7.755  0.0248 -2.7997 -0.4566
   92SAPS  H10Y 9051   5.087   3.621   7.678  1.5573 -2.0814  1.8300
   92SAPS  C311 9052   5.057   3.732   7.864  0.5122 -0.1383 -0.6147
   92SAPS  H11X 9053   4.956   3.771   7.839 -0.2484 -2.0387 -0.6446
   92SAPS  H11Y 9054   5.119   3.807   7.918 -0.9811 -0.6323  1.9335
   92SAPS  C312 9055   5.044   3.614   7.956 -0.0082  0.1847 -0.1176
   92SAPS  H12X 9056   4.972   3.539   7.919  1.3237 -1.2999  0.1837
   92SAPS  H12Y 9057   5.012   3.650   8.056  2.9922 -0.9478  1.3781
   92SAPS  C313 9058   5.183   3.545   7.970 -0.2476 -0.7961  0.1306
   92SAPS  H13X 9059   5.255   3.629   7.971 -0.7575 -0.3098 -1.2847
   92SAPS  H13Y 9060   5.203   3.474   7.887 -0.5991 -2.2054  1.1937
   92SAPS  C314 9061   5.186   3.460   8.095  0.3137 -0.2955 -0.1640
   92SAPS  H14X 9062   5.103   3.386   8.099  1.6962 -1.8578  0.7748
   92SAPS  H14Y 9063   5.159   3.526   8.181  0.0816  1.8939 -1.8355
   92SAPS  C315 9064   5.319   3.393   8.122 -0.2567  0.0829 -0.5909
   92SAPS  H15X 9065   5.403   3.459   8.091  1.2392 -1.1015  0.7747
   92SAPS  H15Y 9066   5.320   3.302   8.059 -1.5173  1.1597 -2.2661
   92SAPS  C316 9067   5.327   3.358   8.275  0.2199  0.6432  0.4604
   92SAPS  H16X 9068   5.230   3.313   8.305  0.4317 -1.6180 -1.8563
   92SAPS  H16Y 9069   5.360   3.442   8.339  1.3321 -0.1254  0.9373
   92SAPS  C317 9070   5.434   3.250   8.293 -0.3484  0.3232 -0.4224
   92SAPS  H17X 9071   5.525   3.271   8.233  0.7168  1.0416  1.3454
   92SAPS  H17Y 9072   5.378   3.163   8.252 -0.8298  0.6494 -0.4683
   92SAPS  C318 9073   5.468   3.233   8.442  0.0045  0.0904  0.3652
   92SAPS  H18X 9074   5.377   3.211   8.501  0.1425 -0.1997  0.4727
   92SAPS  H18Y 9075   5.503   3.327   8.491 -0.5659  0.2099  0.5457
   92SAPS  H18Z 9076   5.547   3.155   8.442 -0.4080 -0.4540 -2.8646
   93SAPS     N 9077   0.164   4.377   6.344  0.2574  0.2749  0.3015
   93SAPS   HN1 9078   0.184   4.278   6.320 -1.0210  0.3119 -1.0669
   93SAPS   HN2 9079   0.123   4.382   6.440 -0.6160  0.0442 -0.0447
   93SAPS   HN3 9080   0.081   4.390   6.282 -1.0507  0.2387  1.9639
   93SAPS   C12 9081   0.262   4.468   6.298 -1.0133  0.0535  0.0019
   93SAPS  H12A 9082   0.356   4.429   6.335 -1.2057 -1.0415 -0.5925
   93SAPS   C13 9083   0.278   4.463   6.143  0.6845  0.0407  0.2352
   93SAPS  O13A 9084   0.226   4.364   6.082  0.1510 -0.2054 -0.7476
   93SAPS  O13B 9085   0.352   4.541   6.080 -0.1937  0.3120 -0.1773
   93SAPS   C11 9086   0.234   4.606   6.360  0.1782 -0.1046 -0.1544
   93SAPS  H11A 9087   0.307   4.681   6.326  1.5670 -1.5885 -0.5710
   93SAPS  H11B 9088   0.255   4.591   6.468 -1.2217 -1.7602 -0.0666
   93SAPS     P 9089   0.048   4.786   6.327  0.2745 -0.0622 -0.3938
   93SAPS   O13 9090   0.163   4.872   6.302  0.3396 -0.5225  0.0136
   93SAPS   O14 9091  -0.072   4.793   6.239 -0.6547  0.5411 -0.1612
   93SAPS   O12 9092   0.101   4.640   6.331  0.1089  0.2061  0.0656
   93SAPS   O11 9093  -0.005   4.785   6.477 -0.2155  0.1321 -0.0021
   93SAPS    C1 9094  -0.073   4.675   6.534 -0.0090  0.4940 -0.1794
   93SAPS    HA 9095  -0.182   4.674   6.516  0.1688  1.5003 -1.4531
   93SAPS    HB 9096  -0.025   4.578   6.507 -0.5078 -0.3886  1.9179
   93SAPS    C2 9097  -0.056   4.691   6.688  0.1017 -0.2556  0.5673
   93SAPS    HS 9098  -0.088   4.595   6.734  1.1031 -1.4490 -1.1309
   93SAPS   O21 9099  -0.146   4.796   6.739 -0.4266  0.2001 -0.4630
   93SAPS   C21 9100  -0.279   4.781   6.743 -0.5740  0.6059  0.5110
   93SAPS   O22 9101  -0.332   4.685   6.697  0.7395 -0.4936 -0.2574
   93SAPS   C22 9102  -0.351   4.900   6.792 -0.0073 -0.3111 -0.9156
   93SAPS   H2R 9103  -0.271   4.968   6.829  0.2758 -1.9213  1.6432
   93SAPS   H2S 9104  -0.413   4.938   6.707 -2.1372 -1.3811  0.1001
   93SAPS    C3 9105   0.087   4.719   6.733 -0.0277  0.4407 -0.0507
   93SAPS    HX 9106   0.120   4.817   6.692  1.8230 -0.4875 -0.9272
   93SAPS    HY 9107   0.160   4.646   6.691  1.5555  1.7241  0.3447
   93SAPS   O31 9108   0.105   4.734   6.878 -0.0578  0.3276  0.2027
   93SAPS   C31 9109   0.085   4.620   6.952  0.4756 -0.4652  0.7065
   93SAPS   O32 9110   0.092   4.509   6.901  0.0746 -0.0191  0.5357
   93SAPS   C32 9111   0.060   4.659   7.094 -0.1936  0.6388 -0.3673
   93SAPS   H2X 9112   0.149   4.695   7.150  0.9130 -1.0597 -0.9471
   93SAPS   H2Y 9113   0.034   4.571   7.158 -1.0291  1.5898  0.6346
   93SAPS   C23 9114  -0.441   4.852   6.906 -0.3485 -0.9124 -0.2158
   93SAPS   H3R 9115  -0.391   4.788   6.982 -0.4232  0.9908  1.5328
   93SAPS   H3S 9116  -0.515   4.782   6.863 -0.7364  0.2269 -1.4884
   93SAPS   C24 9117  -0.508   4.960   6.977 -0.4176  0.5918 -0.0837
   93SAPS   H4R 9118  -0.606   4.921   7.013 -0.0424 -0.2344  0.0520
   93SAPS   H4S 9119  -0.543   5.037   6.904 -1.2781  2.8204  2.4917
   93SAPS   C25 9120  -0.441   5.026   7.095 -0.7498  0.6063  0.4507
   93SAPS   H5R 9121  -0.379   5.114   7.076 -0.6150  0.2586 -0.8063
   93SAPS   C26 9122  -0.455   4.978   7.222 -0.4476  0.1900 -0.3917
   93SAPS   H6R 9123  -0.416   5.039   7.304  0.4732 -0.9251  0.0077
   93SAPS   C27 9124  -0.539   4.858   7.275 -0.2157 -0.1212 -0.6245
   93SAPS   H7R 9125  -0.493   4.806   7.362 -2.3213  0.2500  0.7880
   93SAPS   H7S 9126  -0.555   4.781   7.197 -0.1329 -1.9904  1.1142
   93SAPS   C28 9127  -0.682   4.903   7.319  0.0580  0.2331  0.4400
   93SAPS   H8R 9128  -0.757   4.911   7.240  0.4865 -0.0573  0.0003
   93SAPS   C29 9129  -0.724   4.910   7.450  0.2405 -0.0614  0.9395
   93SAPS   H9R 9130  -0.831   4.926   7.466  0.1478 -0.0560  0.3325
   93SAPS  C210 9131  -0.651   4.892   7.580 -0.0044 -0.1934 -0.1008
   93SAPS  H10R 9132  -0.592   4.984   7.600 -1.9415  1.1062 -0.1289
   93SAPS  H10S 9133  -0.582   4.806   7.564 -0.9235 -0.7025 -1.5170
   93SAPS  C211 9134  -0.735   4.843   7.700  0.0856  0.3998 -0.6305
   93SAPS  H11R 9135  -0.784   4.751   7.666 -0.2352  0.8353 -1.3718
   93SAPS  C212 9136  -0.741   4.876   7.828 -0.8217 -0.2279  1.1833
   93SAPS  H12R 9137  -0.797   4.805   7.891 -2.5555 -0.0559 -0.0983
   93SAPS  C213 9138  -0.662   4.992   7.885  0.1611 -0.7489  0.0053
   93SAPS  H13R 9139  -0.638   5.070   7.810 -0.1206 -1.4345 -0.8202
   93SAPS  H13S 9140  -0.572   4.953   7.938 -0.6621  0.0400  2.0904
   93SAPS  C214 9141  -0.753   5.051   7.993  0.0806 -1.5578 -0.5834
   93SAPS  H14R 9142  -0.790   5.150   7.962 -0.0511 -1.1728  0.7462
   93SAPS  C215 9143  -0.767   5.004   8.122  0.0365 -1.0234  0.0143
   93SAPS  H15R 9144  -0.840   5.054   8.187  1.7417  1.8360 -0.1104
   93SAPS  C216 9145  -0.709   4.887   8.177  0.2380 -0.7977  0.0964
   93SAPS  H16R 9146  -0.636   4.914   8.256 -1.9875  1.2315  1.6215
   93SAPS  H16S 9147  -0.662   4.835   8.091 -2.5993  0.7954 -2.6048
   93SAPS  C217 9148  -0.813   4.787   8.245  0.3151 -0.4040  0.8104
   93SAPS  H17R 9149  -0.780   4.684   8.267 -0.0626 -0.2354  2.2801
   93SAPS  H17S 9150  -0.894   4.782   8.169  0.6670 -1.0792  0.4739
   93SAPS  C218 9151  -0.867   4.838   8.379  0.4827 -0.7328 -0.7624
   93SAPS  H18R 9152  -0.880   4.948   8.370 -3.0913 -0.8196  1.4159
   93SAPS  H18S 9153  -0.786   4.814   8.451  0.6000 -0.6218 -0.8570
   93SAPS  C219 9154  -0.999   4.784   8.434 -0.3771 -0.2985 -0.0637
   93SAPS  H19R 9155  -1.016   4.827   8.536 -0.6835 -1.3487  0.3393
   93SAPS  H19S 9156  -0.998   4.675   8.452 -0.2533 -0.1950  0.5815
   93SAPS  C220 9157  -1.122   4.822   8.355 -0.1601 -0.3338 -0.1618
   93SAPS  H20R 9158  -1.140   4.759   8.265 -0.2793  0.3460 -0.6215
   93SAPS  H20S 9159  -1.113   4.927   8.319 -0.5011  0.2089  1.2732
   93SAPS  H20T 9160  -1.218   4.825   8.411 -1.1734  1.0321 -1.8730
   93SAPS   C33 9161  -0.052   4.764   7.105  0.2204 -0.2856  0.6238
   93SAPS   H3X 9162  -0.136   4.734   7.038  0.4065  0.4167  0.0567
   93SAPS   H3Y 9163  -0.020   4.856   7.051  0.4327 -1.1437 -0.7513
   93SAPS   C34 9164  -0.109   4.783   7.253  0.3384  0.5369  0.1237
   93SAPS   H4X 9165  -0.147   4.682   7.280 -2.1116  1.7112  1.2931
   93SAPS   H4Y 9166  -0.199   4.843   7.231 -1.0101 -1.3474  0.2976
   93SAPS   C35 9167  -0.002   4.836   7.363  0.3502  0.3358  0.6736
   93SAPS   H5X 9168   0.026   4.936   7.326  0.9341 -0.1385 -0.2054
   93SAPS   H5Y 9169   0.090   4.774   7.365  1.1799  1.5135 -0.1637
   93SAPS   C36 9170  -0.058   4.846   7.513 -0.6854  0.2405 -0.5336
   93SAPS   H6X 9171  -0.153   4.903   7.509 -0.4349  0.6601 -0.7030
   93SAPS   H6Y 9172   0.024   4.895   7.570  1.1030 -2.1127 -0.9216
   93SAPS   C37 9173  -0.077   4.714   7.594  0.4120  0.9588  0.0887
   93SAPS   H7X 9174   0.015   4.653   7.603  0.2134  0.7703  0.9564
   93SAPS   H7Y 9175  -0.145   4.637   7.550  1.2929 -1.6117  2.8723
   93SAPS   C38 9176  -0.124   4.729   7.739  0.3357 -0.0207 -0.3330
   93SAPS   H8X 9177  -0.047   4.785   7.795  0.7114  0.1682 -1.0230
   93SAPS   H8Y 9178  -0.127   4.627   7.782  1.5777 -0.2187 -0.6821
   93SAPS   C39 9179  -0.259   4.801   7.746 -0.2242  0.6489  0.1692
   93SAPS   H9X 9180  -0.291   4.828   7.643  2.8716  2.0356 -0.5544
   93SAPS   H9Y 9181  -0.256   4.904   7.786  1.1446  0.8208 -0.3345
   93SAPS  C310 9182  -0.355   4.728   7.835  0.3096  0.1711  0.4319
   93SAPS  H10X 9183  -0.347   4.620   7.814  1.8299  0.3362  0.0722
   93SAPS  H10Y 9184  -0.458   4.766   7.817  0.1539  0.1404  1.2393
   93SAPS  C311 9185  -0.325   4.755   7.981 -0.0552  0.1334 -1.2323
   93SAPS  H11X 9186  -0.345   4.864   7.984  1.0287  0.3086  0.4045
   93SAPS  H11Y 9187  -0.217   4.752   8.008 -0.2951  1.0287 -0.0753
   93SAPS  C312 9188  -0.416   4.678   8.072  0.5483  0.5687 -0.0894
   93SAPS  H12X 9189  -0.516   4.684   8.023 -0.0782  2.6591  1.3406
   93SAPS  H12Y 9190  -0.419   4.718   8.175  1.3368 -2.8963  1.4398
   93SAPS  C313 9191  -0.377   4.535   8.096  0.5067  0.0652 -0.0334
   93SAPS  H13X 9192  -0.275   4.535   8.141  0.7370  2.0171 -0.4531
   93SAPS  H13Y 9193  -0.377   4.481   7.999 -1.2600  1.3897 -0.8350
   93SAPS  C314 9194  -0.478   4.452   8.184  0.6508  0.3111  0.5517
   93SAPS  H14X 9195  -0.427   4.354   8.198 -0.6529 -0.6292 -0.9597
   93SAPS  H14Y 9196  -0.565   4.454   8.115  1.6150  1.0369 -0.6850
   93SAPS  C315 9197  -0.509   4.515   8.319  0.1056 -0.7400 -0.4404
   93SAPS  H15X 9198  -0.547   4.618   8.307  2.9211  0.4136 -0.2303
   93SAPS  H15Y 9199  -0.413   4.524   8.374 -0.4780  1.6487  0.2727
   93SAPS  C316 9200  -0.607   4.426   8.394 -0.1297 -0.8260 -0.0741
   93SAPS  H16X 9201  -0.594   4.316   8.388 -2.7666 -1.1411 -2.6530
   93SAPS  H16Y 9202  -0.704   4.457   8.350  1.0650  0.0179 -2.2909
   93SAPS  C317 9203  -0.603   4.470   8.540 -1.0440 -0.0222 -0.1285
   93SAPS  H17X 9204  -0.576   4.577   8.551  0.0766 -0.3609  0.6960
   93SAPS  H17Y 9205  -0.509   4.419   8.570 -0.4906  0.5621 -0.8439
   93SAPS  C318 9206  -0.714   4.432   8.637  0.5105  1.3140  0.1491
   93SAPS  H18X 9207  -0.723   4.326   8.669 -1.6573  0.7050 -2.1260
   93SAPS  H18Y 9208  -0.817   4.458   8.603 -0.9162 -0.6196  2.7150
   93SAPS  H18Z 9209  -0.712   4.485   8.735 -0.3891  1.0933  0.2968
   94SAPS     N 9210   5.168   0.459   5.608 -0.0057  0.9635 -0.4119
   94SAPS   HN1 9211   5.237   0.395   5.563 -1.7491 -2.2709  1.1466
   94SAPS   HN2 9212   5.081   0.466   5.552  0.1190  0.1435 -0.7190
   94SAPS   HN3 9213   5.213   0.549   5.633  0.3915  0.7182 -0.2318
   94SAPS   C12 9214   5.124   0.394   5.735  0.4480 -0.0021 -0.4571
   94SAPS  H12A 9215   5.028   0.439   5.759  0.0372 -0.4468 -1.2211
   94SAPS   C13 9216   5.099   0.242   5.734  0.3901 -0.0300  0.8151
   94SAPS  O13A 9217   5.092   0.178   5.622 -0.2849  0.4473  0.3024
   94SAPS  O13B 9218   5.056   0.194   5.842  0.1557 -0.3525 -0.3320
   94SAPS   C11 9219   5.238   0.413   5.832 -1.2122 -0.7759 -0.5493
   94SAPS  H11A 9220   5.316   0.337   5.816 -2.5719 -2.7626  1.6538
   94SAPS  H11B 9221   5.192   0.398   5.932  0.7441  1.1999  0.7511
   94SAPS     P 9222   5.347   0.614   5.963 -0.0538  0.2957  0.1118
   94SAPS   O13 9223   5.448   0.522   6.022 -0.2257 -0.1722 -0.2899
   94SAPS   O14 9224   5.393   0.751   5.948  0.0899 -0.0800 -0.7845
   94SAPS   O12 9225   5.295   0.551   5.829 -0.5626  0.1771  0.8368
   94SAPS   O11 9226   5.221   0.610   6.057 -0.2317 -0.1158  0.2236
   94SAPS    C1 9227   5.236   0.692   6.180 -0.3110 -0.1592 -0.1018
   94SAPS    HA 9228   5.328   0.753   6.181 -0.2721 -0.2106  1.4509
   94SAPS    HB 9229   5.152   0.765   6.187  0.1701  1.0207 -3.9111
   94SAPS    C2 9230   5.234   0.606   6.310 -0.1207 -0.3817  0.1815
   94SAPS    HS 9231   5.146   0.539   6.301  0.1338 -0.7721  0.5938
   94SAPS   O21 9232   5.204   0.692   6.421  0.3474  0.1235  0.3006
   94SAPS   C21 9233   5.082   0.723   6.444  0.1785  0.0509 -0.0377
   94SAPS   O22 9234   4.986   0.708   6.369 -0.0640  0.5819 -0.5474
   94SAPS   C22 9235   5.068   0.794   6.570  0.1616  0.0161  0.4916
   94SAPS   H2R 9236   5.082   0.717   6.648  1.6272 -0.4466 -0.1924
   94SAPS   H2S 9237   5.154   0.864   6.571 -1.1503  2.1536 -4.3894
   94SAPS    C3 9238   5.368   0.530   6.334 -0.3092 -0.0051 -0.2589
   94SAPS    HX 9239   5.454   0.600   6.337  0.5240 -0.9983  2.1662
   94SAPS    HY 9240   5.390   0.466   6.246  1.1823  0.7723 -0.4888
   94SAPS   O31 9241   5.364   0.451   6.459  0.2711 -0.1317  0.3416
   94SAPS   C31 9242   5.479   0.395   6.494 -0.5794  0.0775 -0.0554
   94SAPS   O32 9243   5.583   0.395   6.430  0.1656 -0.4071 -0.8110
   94SAPS   C32 9244   5.471   0.327   6.633  0.1923 -0.5495  0.3924
   94SAPS   H2X 9245   5.566   0.362   6.680  0.0706 -1.0376  1.0179
   94SAPS   H2Y 9246   5.466   0.216   6.626 -1.6388 -0.3999 -3.9288
   94SAPS   C23 9247   4.932   0.866   6.567  1.0200  0.1366  0.2915
   94SAPS   H3R 9248   4.848   0.796   6.586  0.0576  0.4561 -2.3906
   94SAPS   H3S 9249   4.925   0.920   6.470  2.0001 -1.4599 -0.6967
   94SAPS   C24 9250   4.916   0.973   6.676 -0.3082 -0.4173  0.1434
   94SAPS   H4R 9251   4.828   1.040   6.659 -0.7090 -0.9887 -0.0495
   94SAPS   H4S 9252   5.002   1.039   6.654 -0.0772 -0.3258  1.2449
   94SAPS   C25 9253   4.910   0.913   6.816  0.6459 -0.0264  0.2370
   94SAPS   H5R 9254   4.975   0.826   6.833 -0.6930 -1.3258 -1.0800
   94SAPS   C26 9255   4.832   0.964   6.912  0.3297  0.2763  0.2698
   94SAPS   H6R 9256   4.818   0.899   7.000 -0.8222 -0.2525 -0.2866
   94SAPS   C27 9257   4.738   1.079   6.898  0.4000 -0.6292 -0.1165
   94SAPS   H7R 9258   4.666   1.084   6.983  0.1234 -0.9304 -0.3305
   94SAPS   H7S 9259   4.668   1.056   6.816  1.9198  2.8389 -2.6034
   94SAPS   C28 9260   4.792   1.217   6.862  0.3391  0.4699 -0.0553
   94SAPS   H8R 9261   4.823   1.233   6.758 -1.8621 -0.8641 -0.9714
   94SAPS   C29 9262   4.810   1.319   6.950 -0.5497  0.2340  0.0791
   94SAPS   H9R 9263   4.855   1.410   6.909 -0.6248 -0.9476 -2.9168
   94SAPS  C210 9264   4.781   1.314   7.100  0.6573 -0.1406  0.1722
   94SAPS  H10R 9265   4.855   1.363   7.167  0.0683 -2.9357  3.1136
   94SAPS  H10S 9266   4.769   1.207   7.127 -1.5964  0.0051 -0.1274
   94SAPS  C211 9267   4.644   1.365   7.125  0.0792  0.6301 -0.1150
   94SAPS  H11R 9268   4.575   1.378   7.041 -1.1826 -2.1763  0.3901
   94SAPS  C212 9269   4.606   1.416   7.248  0.7629  0.7195  0.3601
   94SAPS  H12R 9270   4.503   1.455   7.251  0.6753  0.4533  1.0056
   94SAPS  C213 9271   4.701   1.436   7.365  0.3342  1.2648  0.9191
   94SAPS  H13R 9272   4.763   1.524   7.339  0.9774  0.1205 -1.8283
   94SAPS  H13S 9273   4.764   1.345   7.380  0.2798  0.4308 -2.8144
   94SAPS  C214 9274   4.636   1.468   7.491 -0.0659  0.1845 -0.0263
   94SAPS  H14R 9275   4.527   1.461   7.488  0.0175 -1.0812 -1.6736
   94SAPS  C215 9276   4.698   1.498   7.604  0.9132 -0.4195 -0.4150
   94SAPS  H15R 9277   4.635   1.519   7.692  2.4730  2.4616  0.1392
   94SAPS  C216 9278   4.847   1.506   7.630  0.3021 -0.0946  0.4066
   94SAPS  H16R 9279   4.867   1.592   7.697  2.4198  0.4661 -0.8454
   94SAPS  H16S 9280   4.905   1.539   7.541 -0.2683  1.0745  0.4474
   94SAPS  C217 9281   4.895   1.381   7.702  0.2704 -0.0535 -0.5099
   94SAPS  H17R 9282   4.841   1.289   7.670 -1.5662  0.5462  0.7030
   94SAPS  H17S 9283   4.860   1.388   7.807  1.1995  1.1339 -0.2680
   94SAPS  C218 9284   5.042   1.344   7.700 -0.8316  0.4349  0.3931
   94SAPS  H18R 9285   5.081   1.336   7.596  2.0202 -1.7128  1.4664
   94SAPS  H18S 9286   5.069   1.248   7.749  2.7616  0.6299 -0.8563
   94SAPS  C219 9287   5.123   1.449   7.775 -0.8612 -0.1324 -0.7576
   94SAPS  H19R 9288   5.087   1.455   7.880 -0.1783 -0.4190 -0.5018
   94SAPS  H19S 9289   5.103   1.550   7.733 -0.3792  0.0177 -0.6354
   94SAPS  C220 9290   5.271   1.427   7.775 -0.8597 -0.3958  0.0126
   94SAPS  H20R 9291   5.312   1.432   7.672  0.5173 -0.1139  0.5515
   94SAPS  H20S 9292   5.299   1.331   7.823 -1.4661 -0.5703  0.0244
   94SAPS  H20T 9293   5.327   1.508   7.827  0.8505  0.1562 -2.4980
   94SAPS   C33 9294   5.353   0.385   6.715 -0.4030  0.6706  0.4262
   94SAPS   H3X 9295   5.261   0.355   6.660  0.2137 -0.7095  0.1034
   94SAPS   H3Y 9296   5.352   0.496   6.707 -0.3028  0.7308  1.1264
   94SAPS   C34 9297   5.340   0.341   6.864 -0.6465 -0.2599  0.4443
   94SAPS   H4X 9298   5.357   0.233   6.884  0.2506 -0.5197 -1.4585
   94SAPS   H4Y 9299   5.239   0.370   6.898  0.3322  1.0848  2.3801
   94SAPS   C35 9300   5.425   0.423   6.953 -0.6249 -0.0746  0.2350
   94SAPS   H5X 9301   5.428   0.528   6.916  1.2448  0.0368  0.6474
   94SAPS   H5Y 9302   5.529   0.386   6.948 -0.7364 -0.3093 -0.5217
   94SAPS   C36 9303   5.370   0.421   7.094 -0.5535 -0.3247 -0.1239
   94SAPS   H6X 9304   5.367   0.317   7.132  0.7960 -0.0504  0.7978
   94SAPS   H6Y 9305   5.266   0.459   7.097 -0.2813  0.4541 -0.3233
   94SAPS   C37 9306   5.457   0.503   7.201 -0.8680 -0.1093 -0.6179
   94SAPS   H7X 9307   5.450   0.607   7.165  1.0587 -0.0277 -0.8414
   94SAPS   H7Y 9308   5.562   0.470   7.192 -1.3911 -1.3579 -3.0176
   94SAPS   C38 9309   5.425   0.487   7.353  0.7038 -0.0400 -0.4971
   94SAPS   H8X 9310   5.462   0.388   7.387 -0.3823 -0.5597 -0.7783
   94SAPS   H8Y 9311   5.315   0.497   7.368  1.0266  1.3078  1.4842
   94SAPS   C39 9312   5.501   0.601   7.427  0.2206 -0.5294 -0.3685
   94SAPS   H9X 9313   5.473   0.696   7.377  2.3857  0.8147  0.8214
   94SAPS   H9Y 9314   5.608   0.592   7.400  0.5429  2.3413 -0.3230
   94SAPS  C310 9315   5.468   0.601   7.573  0.3957 -0.2818  0.6490
   94SAPS  H10X 9316   5.437   0.497   7.598 -0.8412  0.4989  2.5184
   94SAPS  H10Y 9317   5.379   0.664   7.591  0.5850 -0.2042  1.3541
   94SAPS  C311 9318   5.579   0.653   7.669 -0.2220 -0.3662 -0.4399
   94SAPS  H11X 9319   5.535   0.645   7.770  0.6580  0.2747  0.0129
   94SAPS  H11Y 9320   5.588   0.764   7.662  0.8591 -0.3969  0.1017
   94SAPS  C312 9321   5.717   0.583   7.660 -0.4763 -0.2263 -0.4530
   94SAPS  H12X 9322   5.757   0.578   7.556 -0.7385  1.4276 -0.6741
   94SAPS  H12Y 9323   5.693   0.478   7.686 -2.1111  0.7224  2.2480
   94SAPS  C313 9324   5.818   0.644   7.761  0.3137 -0.9230 -0.0953
   94SAPS  H13X 9325   5.850   0.744   7.723 -1.5801 -0.9226 -1.8647
   94SAPS  H13Y 9326   5.904   0.577   7.780  1.2079  0.5328  1.3702
   94SAPS  C314 9327   5.758   0.673   7.900 -0.0717  0.9204 -0.4588
   94SAPS  H14X 9328   5.692   0.762   7.900 -0.5071  0.6307 -2.0689
   94SAPS  H14Y 9329   5.847   0.696   7.963  1.3537  1.3494 -2.5111
   94SAPS  C315 9330   5.685   0.547   7.967  0.7319  0.3820 -0.3753
   94SAPS  H15X 9331   5.753   0.460   7.976 -0.5803 -0.5609  0.7956
   94SAPS  H15Y 9332   5.609   0.510   7.896  0.5460  0.7397 -0.3675
   94SAPS  C316 9333   5.621   0.562   8.097 -0.1080  0.5286  0.3725
   94SAPS  H16X 9334   5.548   0.479   8.109 -0.6928  1.0072  0.1500
   94SAPS  H16Y 9335   5.564   0.657   8.106 -2.2661 -0.8203  1.8769
   94SAPS  C317 9336   5.710   0.546   8.225  0.2915  0.1832 -0.1019
   94SAPS  H17X 9337   5.793   0.620   8.229  0.9890 -0.6494  1.6221
   94SAPS  H17Y 9338   5.761   0.449   8.207  0.9772  0.5953 -0.4352
   94SAPS  C318 9339   5.626   0.531   8.362 -0.9102 -0.1218 -0.6001
   94SAPS  H18X 9340   5.577   0.432   8.367 -1.2122  0.0676  0.4904
   94SAPS  H18Y 9341   5.542   0.603   8.368  0.2723  1.2293  0.4928
   94SAPS  H18Z 9342   5.689   0.547   8.452  0.5218 -2.4904 -1.1090
   95SAPS     N 9343   1.298   4.662   6.094 -0.4902 -0.3139 -0.3271
   95SAPS   HN1 9344   1.220   4.642   6.160 -0.2783 -0.4025 -0.1016
   95SAPS   HN2 9345   1.264   4.665   5.996 -0.5192  1.8592 -0.2950
   95SAPS   HN3 9346   1.370   4.588   6.101 -0.8421 -0.7153 -0.8348
   95SAPS   C12 9347   1.339   4.797   6.134  0.0396 -0.5074  0.0140
   95SAPS  H12A 9348   1.425   4.819   6.073  0.1451 -1.0082 -0.0208
   95SAPS   C13 9349   1.232   4.906   6.110 -0.3909 -0.2481 -0.4460
   95SAPS  O13A 9350   1.111   4.872   6.080  0.8234 -1.0434 -0.2272
   95SAPS  O13B 9351   1.258   5.020   6.155 -0.0867 -0.0645  0.2748
   95SAPS   C11 9352   1.370   4.787   6.287 -0.3643  0.1155 -0.1306
   95SAPS  H11A 9353   1.274   4.753   6.333  0.4806 -0.0187  1.6377
   95SAPS  H11B 9354   1.387   4.886   6.334 -0.2576 -0.5281  1.2278
   95SAPS     P 9355   1.636   4.748   6.289 -0.1817 -0.0063  0.0258
   95SAPS   O13 9356   1.732   4.634   6.279 -0.5023  0.2460  0.2191
   95SAPS   O14 9357   1.654   4.855   6.185 -0.2085  0.1827  0.0615
   95SAPS   O12 9358   1.485   4.696   6.307 -0.1939 -0.0292 -0.3855
   95SAPS   O11 9359   1.653   4.821   6.422 -0.0743 -0.1890 -0.4054
   95SAPS    C1 9360   1.654   4.749   6.547  0.8710  0.3154  0.3025
   95SAPS    HA 9361   1.600   4.652   6.543  2.2724 -0.5426  1.5260
   95SAPS    HB 9362   1.759   4.733   6.579  1.3194 -0.0459 -1.2716
   95SAPS    C2 9363   1.576   4.834   6.653  0.3346  0.3742 -0.2249
   95SAPS    HS 9364   1.584   4.782   6.750 -1.9184  1.9767  0.8874
   95SAPS   O21 9365   1.437   4.859   6.624 -0.6576  0.9577  0.7761
   95SAPS   C21 9366   1.359   4.753   6.646 -0.5534 -0.4844 -0.5986
   95SAPS   O22 9367   1.395   4.645   6.690  0.0122 -0.2379 -0.0087
   95SAPS   C22 9368   1.221   4.778   6.610 -0.0958  0.9250  0.0643
   95SAPS   H2R 9369   1.215   4.809   6.504 -0.0073  0.9944  0.0791
   95SAPS   H2S 9370   1.175   4.678   6.621 -2.9009  1.9925 -1.0724
   95SAPS    C3 9371   1.652   4.970   6.668  0.5242  0.1241 -0.3766
   95SAPS    HX 9372   1.634   5.027   6.575  2.4531 -0.8211 -1.3937
   95SAPS    HY 9373   1.761   4.947   6.666  0.7712  1.1862 -2.2900
   95SAPS   O31 9374   1.606   5.041   6.785  0.2098  0.2420  0.0783
   95SAPS   C31 9375   1.662   5.163   6.792  0.0480  0.4348 -0.1455
   95SAPS   O32 9376   1.747   5.207   6.714 -0.7692 -0.1607 -0.6231
   95SAPS   C32 9377   1.619   5.234   6.921  0.1214 -1.1386  0.1404
   95SAPS   H2X 9378   1.539   5.178   6.973 -2.0376  1.7377  0.1863
   95SAPS   H2Y 9379   1.563   5.327   6.898  2.2619  0.6843  1.7387
   95SAPS   C23 9380   1.156   4.882   6.709  0.2589 -0.0301  0.1705
   95SAPS   H3R 9381   1.065   4.914   6.654  0.0395 -1.6610 -0.4666
   95SAPS   H3S 9382   1.216   4.975   6.720  0.5453 -0.3105  0.9920
   95SAPS   C24 9383   1.118   4.838   6.851  0.1212 -0.1677  0.1397
   95SAPS   H4R 9384   1.065   4.741   6.839 -0.3276  0.2506 -1.7289
   95SAPS   H4S 9385   1.031   4.899   6.886  0.4068  2.1563 -2.6981
   95SAPS   C25 9386   1.218   4.839   6.960 -0.1958  0.0082  0.1329
   95SAPS   H5R 9387   1.314   4.793   6.933  0.2229 -0.5108  2.3175
   95SAPS   C26 9388   1.214   4.880   7.087 -0.2776  0.0773  0.3959
   95SAPS   H6R 9389   1.307   4.869   7.145  0.4122  3.1247  0.0492
   95SAPS   C27 9390   1.097   4.938   7.171 -0.4495 -0.2583 -0.8557
   95SAPS   H7R 9391   1.000   4.921   7.120  0.2389 -2.5582 -1.5083
   95SAPS   H7S 9392   1.109   5.049   7.174 -1.1951 -0.1746 -0.9128
   95SAPS   C28 9393   1.115   4.878   7.311 -0.3783  0.8899 -0.2734
   95SAPS   H8R 9394   1.166   4.781   7.313  1.1799  1.6583 -0.7458
   95SAPS   C29 9395   1.091   4.939   7.431  0.1085 -0.2664  0.5496
   95SAPS   H9R 9396   1.109   4.884   7.524  0.4697 -0.6379  0.2637
   95SAPS  C210 9397   1.020   5.071   7.437  0.0061 -0.3660 -0.2457
   95SAPS  H10R 9398   0.950   5.054   7.522  1.0409 -1.2490  0.4556
   95SAPS  H10S 9399   0.960   5.102   7.349 -0.3361  0.4340  0.2612
   95SAPS  C211 9400   1.115   5.190   7.465  0.6021 -0.4029  0.0223
   95SAPS  H11R 9401   1.146   5.254   7.381  2.9786 -0.0751  1.0714
   95SAPS  C212 9402   1.157   5.226   7.589 -0.2437  0.6676  0.3096
   95SAPS  H12R 9403   1.235   5.302   7.598  1.8119 -1.3642  0.5602
   95SAPS  C213 9404   1.114   5.158   7.721  0.8355 -0.0385  0.3772
   95SAPS  H13R 9405   1.008   5.131   7.709  1.4596 -1.6502 -2.1498
   95SAPS  H13S 9406   1.117   5.244   7.791  1.3598  1.0849 -0.9687
   95SAPS  C214 9407   1.187   5.032   7.759 -0.0473 -0.6381 -0.2126
   95SAPS  H14R 9408   1.257   4.990   7.685 -1.7137 -0.2620 -2.0748
   95SAPS  C215 9409   1.162   4.963   7.871  0.5406 -0.2315 -0.2649
   95SAPS  H15R 9410   1.215   4.866   7.878 -0.8738 -1.0985 -1.1078
   95SAPS  C216 9411   1.058   5.016   7.970  0.1473 -0.1413 -1.1068
   95SAPS  H16R 9412   0.956   5.022   7.926 -0.5877 -1.9817  0.2295
   95SAPS  H16S 9413   1.082   5.120   8.001 -2.1055  0.2760 -0.6194
   95SAPS  C217 9414   1.041   4.935   8.094  0.0472  0.4527  0.0584
   95SAPS  H17R 9415   1.127   4.918   8.162  0.6190 -0.9285 -0.9464
   95SAPS  H17S 9416   0.995   4.836   8.074  2.0227 -0.2094 -1.5535
   95SAPS  C218 9417   0.936   5.001   8.189 -0.6260 -0.4654 -0.3884
   95SAPS  H18R 9418   0.835   5.003   8.142 -0.9874  2.2466  0.3128
   95SAPS  H18S 9419   0.965   5.108   8.204  0.4747 -0.6336 -1.1737
   95SAPS  C219 9420   0.928   4.933   8.322 -0.2221  0.0332 -0.3554
   95SAPS  H19R 9421   1.035   4.921   8.347 -0.4875  0.6200  1.1550
   95SAPS  H19S 9422   0.886   4.830   8.318 -2.5487  0.8435  1.0032
   95SAPS  C220 9423   0.844   5.005   8.422 -0.0490  0.2296 -0.7737
   95SAPS  H20R 9424   0.842   4.949   8.517 -1.0796  3.4166  1.2571
   95SAPS  H20S 9425   0.745   5.039   8.386 -0.3987  2.8181  2.1637
   95SAPS  H20T 9426   0.895   5.104   8.430 -2.6994  1.6672 -0.7083
   95SAPS   C33 9427   1.742   5.275   7.006 -0.5395  0.1641 -0.0147
   95SAPS   H3X 9428   1.825   5.326   6.952  1.5675  0.7640  3.4804
   95SAPS   H3Y 9429   1.783   5.177   7.040 -2.4631 -1.0812 -1.1115
   95SAPS   C34 9430   1.706   5.364   7.129 -0.0511  0.3342 -0.2980
   95SAPS   H4X 9431   1.667   5.463   7.097  1.0976  0.6812 -0.6865
   95SAPS   H4Y 9432   1.804   5.369   7.181 -1.2282  1.0799  1.9805
   95SAPS   C35 9433   1.618   5.306   7.238  0.4822  0.1774 -0.7507
   95SAPS   H5X 9434   1.636   5.197   7.249  0.0866  0.2937  1.4726
   95SAPS   H5Y 9435   1.509   5.308   7.215  0.8968  2.4955 -3.0409
   95SAPS   C36 9436   1.646   5.374   7.376  0.4861 -0.3242  0.5969
   95SAPS   H6X 9437   1.603   5.476   7.368  0.6913 -0.3042 -0.3803
   95SAPS   H6Y 9438   1.754   5.371   7.399  0.0990 -0.0588  2.6664
   95SAPS   C37 9439   1.584   5.296   7.491  0.3067  0.0518 -0.2078
   95SAPS   H7X 9440   1.648   5.209   7.515 -0.5569 -0.6745 -0.5162
   95SAPS   H7Y 9441   1.486   5.251   7.464  0.0030  1.0686 -0.8807
   95SAPS   C38 9442   1.566   5.379   7.621 -0.5269  0.4497  0.0756
   95SAPS   H8X 9443   1.503   5.469   7.608 -0.8909  0.4423  1.5691
   95SAPS   H8Y 9444   1.672   5.396   7.652 -0.6055 -3.5364  3.5034
   95SAPS   C39 9445   1.503   5.300   7.732  0.7839  0.4709  0.4415
   95SAPS   H9X 9446   1.565   5.211   7.757  0.6689 -0.7952 -3.1784
   95SAPS   H9Y 9447   1.405   5.256   7.706  1.0311 -0.3054  0.7892
   95SAPS  C310 9448   1.462   5.376   7.864 -1.1032 -0.0364 -0.4842
   95SAPS  H10X 9449   1.391   5.452   7.826 -2.2690 -0.4586  0.7792
   95SAPS  H10Y 9450   1.559   5.424   7.890 -1.1325 -0.9994  1.6325
   95SAPS  C311 9451   1.425   5.287   7.979 -0.4936 -0.8028 -1.1014
   95SAPS  H11X 9452   1.503   5.212   8.006 -1.0750 -1.1990 -0.4790
   95SAPS  H11Y 9453   1.339   5.226   7.945 -2.2192  0.6264  0.4846
   95SAPS  C312 9454   1.373   5.352   8.112  0.2420  0.5858 -0.0866
   95SAPS  H12X 9455   1.308   5.439   8.087 -0.3838  0.2425  0.3253
   95SAPS  H12Y 9456   1.458   5.403   8.161  0.6231  2.2007 -2.2590
   95SAPS  C313 9457   1.278   5.268   8.200 -0.0316  0.7293 -0.7367
   95SAPS  H13X 9458   1.203   5.238   8.124  1.2202  2.7713 -2.9293
   95SAPS  H13Y 9459   1.229   5.345   8.262 -0.4371  1.2346 -1.6654
   95SAPS  C314 9460   1.346   5.155   8.281 -0.1221  0.0606  0.5388
   95SAPS  H14X 9461   1.448   5.191   8.307 -0.2811  1.7160 -0.9188
   95SAPS  H14Y 9462   1.350   5.059   8.225  0.0328 -0.0630  0.7614
   95SAPS  C315 9463   1.271   5.137   8.415 -0.5194 -0.2022  0.3734
   95SAPS  H15X 9464   1.318   5.044   8.453  1.5166  0.5704 -0.1161
   95SAPS  H15Y 9465   1.163   5.115   8.400 -0.8194 -0.5486  2.7458
   95SAPS  C316 9466   1.287   5.243   8.525 -0.1254 -0.1650 -0.4521
   95SAPS  H16X 9467   1.206   5.319   8.520  0.4806  0.4668 -0.8611
   95SAPS  H16Y 9468   1.384   5.297   8.515 -0.0029 -0.1545  0.6128
   95SAPS  C317 9469   1.279   5.179   8.664  0.1395  0.6342  0.2485
   95SAPS  H17X 9470   1.350   5.234   8.729  1.0829  0.2241 -0.4151
   95SAPS  H17Y 9471   1.319   5.075   8.660  1.1087  1.0314 -1.7698
   95SAPS  C318 9472   1.141   5.166   8.724 -0.2993 -0.3336 -0.0147
   95SAPS  H18X 9473   1.097   5.265   8.750 -3.3506 -1.1012 -1.7396
   95SAPS  H18Y 9474   1.134   5.103   8.814  1.2586 -2.0915 -1.0633
   95SAPS  H18Z 9475   1.075   5.115   8.651 -0.6093 -0.8880  0.6547
   96SAPS     N 9476   2.907   5.816   6.534 -0.8790 -0.4886 -0.3161
   96SAPS   HN1 9477   2.803   5.813   6.533 -1.0514  2.4731 -1.3209
   96SAPS   HN2 9478   2.944   5.721   6.555  1.1648  0.2261 -0.4484
   96SAPS   HN3 9479   2.942   5.891   6.597  1.7601 -2.2778  0.5313
   96SAPS   C12 9480   2.953   5.842   6.392  0.1939 -0.0466 -0.7025
   96SAPS  H12A 9481   3.058   5.833   6.370  0.0473  0.7708 -1.8677
   96SAPS   C13 9482   2.888   5.736   6.305 -0.2775 -1.1666  0.0426
   96SAPS  O13A 9483   2.841   5.629   6.351 -0.2467  0.0961 -0.1315
   96SAPS  O13B 9484   2.923   5.736   6.181  0.0330 -0.7002 -0.5212
   96SAPS   C11 9485   2.899   5.975   6.350  0.5476 -0.4956  0.0209
   96SAPS  H11A 9486   2.789   5.990   6.360  0.5445  0.2008 -0.8957
   96SAPS  H11B 9487   2.904   5.972   6.239 -1.9579 -2.1474 -0.1447
   96SAPS     P 9488   2.977   6.211   6.337  0.3579  0.1395  0.1844
   96SAPS   O13 9489   3.089   6.217   6.239  0.1427 -0.2110  0.0901
   96SAPS   O14 9490   2.841   6.234   6.285  0.5946  0.0474 -0.2443
   96SAPS   O12 9491   2.976   6.071   6.418 -0.9907 -0.0381 -0.1165
   96SAPS   O11 9492   3.001   6.319   6.453 -0.4472 -0.4930 -0.2956
   96SAPS    C1 9493   3.101   6.307   6.550 -0.1470 -0.6409 -0.1613
   96SAPS    HA 9494   3.196   6.294   6.494 -1.5404 -0.2986 -2.7465
   96SAPS    HB 9495   3.098   6.401   6.610 -0.9115 -0.8309  0.1112
   96SAPS    C2 9496   3.086   6.189   6.652 -0.4601 -0.7511 -0.2671
   96SAPS    HS 9497   3.108   6.090   6.606 -0.6050 -0.7262 -0.3882
   96SAPS   O21 9498   2.949   6.193   6.692 -0.2153  0.3295  0.1763
   96SAPS   C21 9499   2.885   6.098   6.753  0.0242  0.3444 -0.6580
   96SAPS   O22 9500   2.920   5.979   6.770  0.6252 -0.0378 -0.1972
   96SAPS   C22 9501   2.748   6.148   6.795 -0.3782 -0.3366  0.5890
   96SAPS   H2R 9502   2.740   6.259   6.791 -0.3181 -0.3015  1.3111
   96SAPS   H2S 9503   2.671   6.108   6.725  0.3850 -1.2054  0.2210
   96SAPS    C3 9504   3.184   6.209   6.772 -0.4038  0.2127  0.7001
   96SAPS    HX 9505   3.172   6.315   6.802  2.2253  1.7574 -2.9822
   96SAPS    HY 9506   3.287   6.191   6.733 -0.4775  0.5810  0.3389
   96SAPS   O31 9507   3.153   6.132   6.888 -0.1307 -0.5580 -0.8301
   96SAPS   C31 9508   3.199   6.011   6.902  0.3934  0.6157  0.1949
   96SAPS   O32 9509   3.250   5.942   6.815  0.1869 -0.7861  0.6783
   96SAPS   C32 9510   3.201   5.966   7.051 -0.0827  0.4508  0.7067
   96SAPS   H2X 9511   3.294   5.906   7.062 -1.8435 -2.6916 -0.4355
   96SAPS   H2Y 9512   3.114   5.899   7.063 -0.4170  0.6125 -0.6508
   96SAPS   C23 9513   2.711   6.105   6.939  0.3746 -0.2357 -0.4997
   96SAPS   H3R 9514   2.702   5.995   6.954 -1.1370 -0.3458 -1.9139
   96SAPS   H3S 9515   2.606   6.138   6.956  0.3779 -0.3958 -0.1643
   96SAPS   C24 9516   2.798   6.174   7.049 -0.5593  0.8646 -0.4601
   96SAPS   H4R 9517   2.905   6.153   7.027 -0.8929 -1.7588  0.1212
   96SAPS   H4S 9518   2.781   6.119   7.144 -0.0681 -1.2654 -1.5464
   96SAPS   C25 9519   2.773   6.320   7.054  0.3009  0.2106  0.3814
   96SAPS   H5R 9520   2.813   6.372   6.965 -1.0074 -2.1133 -1.6793
   96SAPS   C26 9521   2.721   6.392   7.156  0.1604 -0.4752  0.1056
   96SAPS   H6R 9522   2.719   6.501   7.150  0.8395 -0.1759  3.4974
   96SAPS   C27 9523   2.670   6.334   7.284  0.2607  0.1813 -0.1165
   96SAPS   H7R 9524   2.755   6.291   7.340  0.7558 -0.6120 -1.4208
   96SAPS   H7S 9525   2.607   6.245   7.263  2.0762 -1.6534  1.7294
   96SAPS   C28 9526   2.591   6.438   7.359  0.0741  0.7873 -1.2211
   96SAPS   H8R 9527   2.515   6.497   7.305 -1.2136  0.7518  0.4861
   96SAPS   C29 9528   2.591   6.441   7.495 -0.1172  0.6839 -0.3544
   96SAPS   H9R 9529   2.520   6.512   7.538 -0.5695 -0.7545  1.3752
   96SAPS  C210 9530   2.676   6.367   7.600  0.3282 -0.0807 -0.2101
   96SAPS  H10R 9531   2.719   6.446   7.666  0.1250 -0.2848  0.1605
   96SAPS  H10S 9532   2.761   6.315   7.550  1.1084  2.3466 -1.5911
   96SAPS  C211 9533   2.603   6.260   7.673  0.6696  0.2609  0.3587
   96SAPS  H11R 9534   2.549   6.180   7.621 -2.5294  1.5963  1.3658
   96SAPS  C212 9535   2.615   6.245   7.804  0.1025 -0.3065  0.1131
   96SAPS  H12R 9536   2.552   6.170   7.853  1.3173 -0.0194  2.2905
   96SAPS  C213 9537   2.703   6.324   7.899  0.1784  0.2508  0.2452
   96SAPS  H13R 9538   2.802   6.339   7.851  0.2458  0.2951  0.3988
   96SAPS  H13S 9539   2.736   6.273   7.992  1.3770 -0.7338 -0.6773
   96SAPS  C214 9540   2.633   6.451   7.944  0.1438 -0.3162 -0.1562
   96SAPS  H14R 9541   2.548   6.482   7.880 -0.1125 -0.2253  0.2252
   96SAPS  C215 9542   2.659   6.528   8.054  0.5074  0.2409  0.2903
   96SAPS  H15R 9543   2.596   6.616   8.068 -0.0994 -0.0669 -0.4571
   96SAPS  C216 9544   2.775   6.506   8.144 -0.1183  0.0504  0.0757
   96SAPS  H16R 9545   2.828   6.599   8.174 -1.0898  0.8569 -0.6211
   96SAPS  H16S 9546   2.854   6.443   8.098 -0.2108 -0.2055  0.2619
   96SAPS  C217 9547   2.736   6.435   8.273 -0.1911 -0.1665  0.2564
   96SAPS  H17R 9548   2.830   6.391   8.313 -0.5162  0.8302  2.2706
   96SAPS  H17S 9549   2.670   6.347   8.257 -0.1139 -0.0243 -0.8855
   96SAPS  C218 9550   2.683   6.528   8.383 -0.7560  0.0261 -0.3369
   96SAPS  H18R 9551   2.586   6.564   8.343 -0.2242 -1.1782 -2.8766
   96SAPS  H18S 9552   2.746   6.618   8.399  0.9235 -1.3928  1.6949
   96SAPS  C219 9553   2.676   6.451   8.517  0.6264  0.3083  0.1361
   96SAPS  H19R 9554   2.777   6.414   8.543 -0.0651 -1.0891  0.9015
   96SAPS  H19S 9555   2.615   6.358   8.511 -0.3465  0.8641  1.0338
   96SAPS  C220 9556   2.620   6.538   8.630 -0.5333  0.3392  0.3017
   96SAPS  H20R 9557   2.599   6.479   8.722  0.5778 -0.2731  0.1796
   96SAPS  H20S 9558   2.525   6.588   8.600 -0.3276  1.3827  1.3302
   96SAPS  H20T 9559   2.694   6.620   8.645 -0.8588  1.2979 -2.6561
   96SAPS   C33 9560   3.194   6.079   7.154 -0.4082 -0.2159  0.2831
   96SAPS   H3X 9561   3.092   6.120   7.138  1.0511  2.4384 -3.4241
   96SAPS   H3Y 9562   3.262   6.166   7.145 -2.5384  1.4970 -0.1990
   96SAPS   C34 9563   3.212   6.028   7.295  0.7481  0.0897  0.7283
   96SAPS   H4X 9564   3.159   5.931   7.309 -1.4116  0.8436 -1.5273
   96SAPS   H4Y 9565   3.159   6.097   7.364 -1.2586  0.5241 -1.1424
   96SAPS   C35 9566   3.358   6.018   7.335  0.6459  0.3881 -0.4730
   96SAPS   H5X 9567   3.395   6.119   7.361 -1.3633  1.1750 -0.5048
   96SAPS   H5Y 9568   3.421   5.972   7.255  1.2086 -1.2866  0.8729
   96SAPS   C36 9569   3.378   5.926   7.459 -0.4200  0.4621 -0.2514
   96SAPS   H6X 9570   3.323   5.832   7.436  0.1867 -0.2185  0.9927
   96SAPS   H6Y 9571   3.316   5.957   7.546  0.6129  1.0145  0.3007
   96SAPS   C37 9572   3.525   5.901   7.507 -1.0322  0.0036  0.2784
   96SAPS   H7X 9573   3.581   5.984   7.554 -0.1633 -1.3832  1.8018
   96SAPS   H7Y 9574   3.580   5.913   7.411  1.7231  1.8652  1.9814
   96SAPS   C38 9575   3.552   5.777   7.597  0.4360  0.1721 -0.1181
   96SAPS   H8X 9576   3.662   5.757   7.594  0.3234 -0.3500 -1.0681
   96SAPS   H8Y 9577   3.504   5.685   7.558  3.6498 -0.3508 -3.4315
   96SAPS   C39 9578   3.508   5.785   7.747 -0.2753 -0.3795  0.1959
   96SAPS   H9X 9579   3.397   5.788   7.741 -0.2511  2.6887 -0.9154
   96SAPS   H9Y 9580   3.545   5.882   7.787  2.7727 -0.9476 -1.0299
   96SAPS  C310 9581   3.566   5.674   7.841  0.1111 -0.1917  0.1788
   96SAPS  H10X 9582   3.672   5.665   7.811  0.0865 -1.7774  0.4787
   96SAPS  H10Y 9583   3.524   5.577   7.806 -1.1302  0.6865 -0.8737
   96SAPS  C311 9584   3.535   5.682   7.987  0.7142 -0.3957  0.2652
   96SAPS  H11X 9585   3.425   5.699   7.996  0.3319 -1.9779 -0.8746
   96SAPS  H11Y 9586   3.583   5.767   8.038 -3.7094  0.3729  3.8107
   96SAPS  C312 9587   3.564   5.557   8.069  0.2083  0.3570  0.2560
   96SAPS  H12X 9588   3.673   5.548   8.088  0.4081 -0.1582 -1.0780
   96SAPS  H12Y 9589   3.533   5.465   8.016 -1.3078  1.2951 -0.5577
   96SAPS  C313 9590   3.496   5.567   8.210  0.0867  0.0848  0.2885
   96SAPS  H13X 9591   3.390   5.598   8.199  0.1708  0.1512 -0.3254
   96SAPS  H13Y 9592   3.540   5.658   8.256  3.7177 -0.5304 -1.6006
   96SAPS  C314 9593   3.525   5.451   8.298 -0.1185 -0.0091  0.8223
   96SAPS  H14X 9594   3.633   5.424   8.298 -0.2095 -0.6645 -1.9806
   96SAPS  H14Y 9595   3.475   5.377   8.233 -0.8117  2.1526 -1.2587
   96SAPS  C315 9596   3.445   5.452   8.433 -0.1692  0.0655 -0.0982
   96SAPS  H15X 9597   3.340   5.461   8.396 -0.0610 -3.8085 -1.9102
   96SAPS  H15Y 9598   3.477   5.534   8.500  0.9814  0.4078 -1.0323
   96SAPS  C316 9599   3.452   5.322   8.511 -0.2082  1.3235  0.3767
   96SAPS  H16X 9600   3.459   5.246   8.430  1.1354  0.2227  1.4573
   96SAPS  H16Y 9601   3.356   5.320   8.567 -0.0296  1.5909  0.6934
   96SAPS  C317 9602   3.567   5.307   8.607 -0.6365 -0.5718 -0.2648
   96SAPS  H17X 9603   3.651   5.362   8.560 -0.2244 -0.3075  0.7709
   96SAPS  H17Y 9604   3.595   5.202   8.629 -1.9954 -1.0696 -0.8040
   96SAPS  C318 9605   3.538   5.366   8.749 -0.2262  0.7141  0.1396
   96SAPS  H18X 9606   3.543   5.279   8.818  3.1186 -0.9411 -1.9403
   96SAPS  H18Y 9607   3.439   5.416   8.746 -0.6917 -0.1094  1.1157
   96SAPS  H18Z 9608   3.612   5.438   8.790 -0.8072  0.9849  0.7146
   97SAPS     N 9609   3.946   4.699   6.235  0.3364 -0.8064  0.2095
   97SAPS   HN1 9610   3.963   4.800   6.254 -0.9698 -0.3837 -0.7118
   97SAPS   HN2 9611   3.890   4.686   6.148 -0.1684  1.6105  0.1005
   97SAPS   HN3 9612   3.906   4.645   6.314 -2.2391 -0.0971 -0.4912
   97SAPS   C12 9613   4.081   4.652   6.213 -0.1580 -0.3444 -0.0172
   97SAPS  H12A 9614   4.070   4.552   6.175  1.4387 -1.4757  2.2394
   97SAPS   C13 9615   4.176   4.739   6.116  0.3071  0.1592 -0.1797
   97SAPS  O13A 9616   4.114   4.833   6.054  0.0684 -0.3798  1.1556
   97SAPS  O13B 9617   4.271   4.678   6.070  0.6714  0.0561  0.1090
   97SAPS   C11 9618   4.153   4.651   6.347  0.6489  0.5242 -0.2191
   97SAPS  H11A 9619   4.176   4.757   6.367 -2.3450  1.7801 -2.5392
   97SAPS  H11B 9620   4.251   4.599   6.346  0.1073 -0.5565  0.6260
   97SAPS     P 9621   4.085   4.451   6.497 -0.5340 -0.0712  0.0452
   97SAPS   O13 9622   3.950   4.398   6.520  0.5138  0.0077  0.3541
   97SAPS   O14 9623   4.166   4.376   6.397  0.7526  0.5683  0.1096
   97SAPS   O12 9624   4.062   4.604   6.446 -0.2091 -0.3363 -0.2184
   97SAPS   O11 9625   4.170   4.464   6.627 -0.2011 -0.1359  0.0175
   97SAPS    C1 9626   4.223   4.594   6.670  0.3469  0.2572 -0.3020
   97SAPS    HA 9627   4.313   4.617   6.609 -0.0117  0.4143 -0.7779
   97SAPS    HB 9628   4.145   4.670   6.643  4.0746  3.7995 -2.2862
   97SAPS    C2 9629   4.249   4.597   6.821 -0.0046  0.1571  0.0204
   97SAPS    HS 9630   4.253   4.705   6.847  1.0604 -0.2137  1.4875
   97SAPS   O21 9631   4.369   4.524   6.857 -0.3424  0.2931  0.9020
   97SAPS   C21 9632   4.449   4.585   6.943 -0.1199  0.0158  0.1649
   97SAPS   O22 9633   4.425   4.694   6.992 -0.8069  0.3148 -0.6612
   97SAPS   C22 9634   4.566   4.491   6.970 -0.5072  0.3258 -0.1800
   97SAPS   H2R 9635   4.527   4.390   6.990 -0.5866  0.4545  0.3248
   97SAPS   H2S 9636   4.634   4.495   6.882 -1.6666  0.7543 -1.0797
   97SAPS    C3 9637   4.137   4.541   6.900  0.8710  0.1890 -0.6926
   97SAPS    HX 9638   4.148   4.432   6.916  0.9869  0.2493 -0.3562
   97SAPS    HY 9639   4.042   4.563   6.846  1.2802 -0.3760 -1.6843
   97SAPS   O31 9640   4.120   4.601   7.026 -0.3386 -0.7022  0.0083
   97SAPS   C31 9641   4.186   4.543   7.127  0.9363 -0.2792 -0.2575
   97SAPS   O32 9642   4.253   4.441   7.132  0.3126  0.3851 -0.2941
   97SAPS   C32 9643   4.156   4.629   7.252 -0.4687 -0.0728  0.0711
   97SAPS   H2X 9644   4.051   4.615   7.285 -0.4020  2.4577  1.5254
   97SAPS   H2Y 9645   4.164   4.735   7.220  1.9781  0.1283  1.1338
   97SAPS   C23 9646   4.646   4.544   7.099  0.2577  0.0933  0.9142
   97SAPS   H3R 9647   4.574   4.548   7.184  0.5469 -2.8388  1.3919
   97SAPS   H3S 9648   4.691   4.643   7.073  0.4543 -0.6131 -1.7744
   97SAPS   C24 9649   4.764   4.453   7.146 -0.4790 -0.0147  0.0822
   97SAPS   H4R 9650   4.818   4.504   7.229  0.1789  1.2105 -1.0712
   97SAPS   H4S 9651   4.841   4.437   7.068 -1.1693 -0.1213 -0.5940
   97SAPS   C25 9652   4.723   4.310   7.179  0.3280 -0.0436 -0.3330
   97SAPS   H5R 9653   4.703   4.246   7.091 -0.5621 -1.6670  0.9787
   97SAPS   C26 9654   4.729   4.257   7.300 -1.3107 -0.6740  0.0177
   97SAPS   H6R 9655   4.696   4.153   7.313 -0.8635 -0.9765 -1.1819
   97SAPS   C27 9656   4.766   4.326   7.433 -0.0773  0.2913 -0.3258
   97SAPS   H7R 9657   4.707   4.282   7.517  1.4683 -2.0417 -0.3619
   97SAPS   H7S 9658   4.737   4.433   7.426  0.8826  0.4773 -2.0476
   97SAPS   C28 9659   4.914   4.305   7.462 -0.1423 -0.2561  0.2527
   97SAPS   H8R 9660   4.976   4.337   7.377 -0.0829 -0.5476  0.1826
   97SAPS   C29 9661   4.976   4.270   7.581 -0.2207 -1.0019  0.3029
   97SAPS   H9R 9662   5.085   4.253   7.586 -0.2746 -1.0446  1.8848
   97SAPS  C210 9663   4.906   4.241   7.714 -0.5746  0.3849 -0.1645
   97SAPS  H10R 9664   4.838   4.316   7.760 -1.3608 -1.2872  1.5719
   97SAPS  H10S 9665   4.993   4.238   7.783 -0.9074  3.8820  0.5982
   97SAPS  C211 9666   4.820   4.112   7.721 -0.8521 -0.4560  0.1446
   97SAPS  H11R 9667   4.759   4.091   7.632 -1.6814 -1.0161  0.8261
   97SAPS  C212 9668   4.818   4.016   7.815 -0.2720 -0.4114 -0.8365
   97SAPS  H12R 9669   4.759   3.924   7.808  0.6682 -0.9817 -1.4131
   97SAPS  C213 9670   4.901   4.038   7.941  0.0621 -0.2385  0.6808
   97SAPS  H13R 9671   5.010   4.041   7.916 -0.4438  1.7280 -1.5794
   97SAPS  H13S 9672   4.899   3.939   7.992  1.4847 -1.5713 -1.6380
   97SAPS  C214 9673   4.875   4.153   8.036 -0.3327 -0.1728  0.0596
   97SAPS  H14R 9674   4.802   4.231   8.011  0.5627  0.1929 -1.5584
   97SAPS  C215 9675   4.940   4.181   8.148  0.7935 -0.7182 -0.2977
   97SAPS  H15R 9676   4.906   4.258   8.218  2.2160 -2.3416  2.3382
   97SAPS  C216 9677   5.056   4.101   8.193 -0.0203 -1.0671 -0.3028
   97SAPS  H16R 9678   5.151   4.160   8.197 -1.4538  1.3597  3.0232
   97SAPS  H16S 9679   5.072   4.009   8.134  3.8857 -1.1200  0.5402
   97SAPS  C217 9680   5.026   4.075   8.343  0.4347  0.2984 -0.2388
   97SAPS  H17R 9681   4.936   4.013   8.364  1.3918 -0.7445  1.0105
   97SAPS  H17S 9682   5.034   4.177   8.388  1.8598  0.7435 -1.4373
   97SAPS  C218 9683   5.143   4.003   8.413 -0.3602  0.3603 -0.0550
   97SAPS  H18R 9684   5.134   4.020   8.523  2.0437 -1.6011  0.5292
   97SAPS  H18S 9685   5.233   4.064   8.390 -1.3869  1.4261 -1.3841
   97SAPS  C219 9686   5.159   3.859   8.375  0.1521 -0.0377 -0.4353
   97SAPS  H19R 9687   5.236   3.863   8.296 -1.1682 -0.1696 -1.7867
   97SAPS  H19S 9688   5.064   3.825   8.328  0.5560 -0.6616 -0.8087
   97SAPS  C220 9689   5.190   3.774   8.493  0.1826  0.1805  0.4399
   97SAPS  H20R 9690   5.269   3.807   8.563  0.3937 -3.6038  2.2542
   97SAPS  H20S 9691   5.218   3.672   8.458 -0.8282 -0.9555  2.7682
   97SAPS  H20T 9692   5.104   3.760   8.562  0.4368  0.1166  0.7453
   97SAPS   C33 9693   4.254   4.615   7.370  0.0442  0.7357 -0.5737
   97SAPS   H3X 9694   4.245   4.700   7.441 -3.5913  0.3981 -0.4186
   97SAPS   H3Y 9695   4.358   4.609   7.332 -0.7047 -1.8348 -2.5201
   97SAPS   C34 9696   4.228   4.483   7.455 -0.0598  0.0430  0.0657
   97SAPS   H4X 9697   4.311   4.461   7.526 -0.9184 -2.3658  0.3918
   97SAPS   H4Y 9698   4.237   4.402   7.381  2.7423  0.7524 -0.5066
   97SAPS   C35 9699   4.100   4.488   7.540  0.5719  0.0904 -0.3117
   97SAPS   H5X 9700   4.010   4.526   7.486  0.4429  1.6401  0.9241
   97SAPS   H5Y 9701   4.105   4.552   7.631 -5.5148  0.7229  0.0230
   97SAPS   C36 9702   4.069   4.351   7.599  0.1169  0.5487 -0.0978
   97SAPS   H6X 9703   4.161   4.302   7.638  0.5127  1.9469  0.7676
   97SAPS   H6Y 9704   4.040   4.302   7.503 -0.9558  0.7549  0.1022
   97SAPS   C37 9705   3.940   4.330   7.700 -0.1082  0.3001  0.2667
   97SAPS   H7X 9706   3.878   4.254   7.648  2.8908 -1.1058 -1.5920
   97SAPS   H7Y 9707   3.884   4.425   7.696  0.8797  0.8412 -2.7505
   97SAPS   C38 9708   3.979   4.302   7.842 -0.5568  0.3418  0.4439
   97SAPS   H8X 9709   4.032   4.393   7.878 -0.0481 -0.1643  0.9952
   97SAPS   H8Y 9710   4.056   4.223   7.851  0.4971  0.9156 -2.4313
   97SAPS   C39 9711   3.873   4.273   7.950 -0.0206 -0.4690 -0.1098
   97SAPS   H9X 9712   3.821   4.176   7.932  0.5668 -0.5779 -1.2903
   97SAPS   H9Y 9713   3.803   4.358   7.933  0.1645  0.6950  3.9391
   97SAPS  C310 9714   3.922   4.280   8.103  0.3056 -0.1292 -0.4954
   97SAPS  H10X 9715   3.955   4.383   8.130  0.9324  0.5842 -3.6248
   97SAPS  H10Y 9716   4.003   4.205   8.114  1.8612  1.8000  2.6840
   97SAPS  C311 9717   3.803   4.247   8.206  0.2032 -0.2651 -0.0956
   97SAPS  H11X 9718   3.755   4.151   8.177  0.2143 -1.6146  3.7498
   97SAPS  H11Y 9719   3.725   4.326   8.204 -0.7493 -1.1920 -2.6977
   97SAPS  C312 9720   3.852   4.238   8.351 -0.3554 -0.3059  0.1919
   97SAPS  H12X 9721   3.921   4.154   8.376  1.1194  1.3170  1.8235
   97SAPS  H12Y 9722   3.758   4.224   8.409 -0.4328  1.2229  0.4777
   97SAPS  C313 9723   3.921   4.362   8.398  0.1712 -0.3017 -0.3127
   97SAPS  H13X 9724   3.859   4.453   8.382  1.5595  1.2541  2.3966
   97SAPS  H13Y 9725   4.017   4.390   8.350 -0.1817  0.7991 -0.4007
   97SAPS  C314 9726   3.961   4.357   8.543 -1.4033 -0.0156 -0.6118
   97SAPS  H14X 9727   4.021   4.268   8.572  0.7559  1.7566  0.6826
   97SAPS  H14Y 9728   3.866   4.363   8.600 -1.9142  0.9341 -1.5393
   97SAPS  C315 9729   4.044   4.488   8.585 -0.6383 -0.7322  0.6019
   97SAPS  H15X 9730   3.985   4.578   8.561  1.6787  0.9723  0.9063
   97SAPS  H15Y 9731   4.132   4.479   8.518  0.8028 -1.2664  2.4681
   97SAPS  C316 9732   4.082   4.503   8.733 -1.0721  0.1357 -0.3908
   97SAPS  H16X 9733   4.106   4.610   8.753  1.6449 -0.6589  1.2019
   97SAPS  H16Y 9734   4.178   4.450   8.753  0.4356  2.7954 -0.1011
   97SAPS  C317 9735   3.965   4.469   8.826 -0.1564 -0.3526  0.1514
   97SAPS  H17X 9736   3.945   4.362   8.802  0.8933 -0.3331 -0.9198
   97SAPS  H17Y 9737   3.875   4.528   8.799  0.8370  0.6253 -1.1244
   97SAPS  C318 9738   4.011   4.491   8.973  0.0983 -0.0668 -0.1080
   97SAPS  H18X 9739   4.045   4.596   8.985  0.6370 -0.3579  1.0760
   97SAPS  H18Y 9740   4.088   4.413   8.987 -0.1450 -0.2923 -0.0041
   97SAPS  H18Z 9741   3.928   4.474   9.045 -0.9358  1.1369 -0.9680
   98SAPS     N 9742   1.525   5.150   6.112  0.1906  0.2523  0.0253
   98SAPS   HN1 9743   1.532   5.086   6.031  0.4617  0.1075  0.1628
   98SAPS   HN2 9744   1.583   5.118   6.193 -1.3624 -0.5304  0.8760
   98SAPS   HN3 9745   1.425   5.146   6.140  0.0829 -0.8816 -0.4701
   98SAPS   C12 9746   1.557   5.287   6.070 -0.7326 -0.6497  0.8989
   98SAPS  H12A 9747   1.597   5.342   6.153  1.6349  0.8037 -1.0641
   98SAPS   C13 9748   1.661   5.296   5.952 -0.5480  0.0528 -0.4789
   98SAPS  O13A 9749   1.693   5.184   5.899 -0.2122  0.3373 -0.7124
   98SAPS  O13B 9750   1.698   5.403   5.902 -0.3412 -0.6162 -0.0660
   98SAPS   C11 9751   1.430   5.358   6.010 -0.2195  0.0249 -0.3205
   98SAPS  H11A 9752   1.419   5.316   5.907  0.2288 -2.2392  0.5035
   98SAPS  H11B 9753   1.458   5.464   5.991  2.9051 -0.8330 -1.2682
   98SAPS     P 9754   1.246   5.481   6.150  0.0894 -0.3083 -0.1755
   98SAPS   O13 9755   1.260   5.594   6.049  0.1678  0.0871 -0.4993
   98SAPS   O14 9756   1.113   5.453   6.204  0.0216 -0.2466 -0.7558
   98SAPS   O12 9757   1.307   5.348   6.087 -0.4289 -0.0599 -0.2627
   98SAPS   O11 9758   1.338   5.510   6.274 -0.4599 -0.1660  0.2054
   98SAPS    C1 9759   1.420   5.417   6.350  0.8506 -0.6881 -0.2143
   98SAPS    HA 9760   1.363   5.323   6.361  0.1575 -0.1959  0.5258
   98SAPS    HB 9761   1.526   5.408   6.318  0.7294  1.6333 -1.4443
   98SAPS    C2 9762   1.437   5.469   6.495 -0.0484 -0.2696 -0.6256
   98SAPS    HS 9763   1.508   5.401   6.546 -0.5679 -0.7862 -0.5753
   98SAPS   O21 9764   1.303   5.472   6.550 -0.5221  0.6123 -0.5088
   98SAPS   C21 9765   1.285   5.376   6.642 -0.1079 -0.4361  0.1678
   98SAPS   O22 9766   1.365   5.286   6.669 -0.1450 -0.7437 -0.5114
   98SAPS   C22 9767   1.147   5.390   6.705 -0.0233 -0.0317  0.4348
   98SAPS   H2R 9768   1.163   5.348   6.807  1.1224 -0.5337  0.0668
   98SAPS   H2S 9769   1.121   5.498   6.706  1.1432  0.2704 -0.4972
   98SAPS    C3 9770   1.496   5.612   6.494 -0.2409  0.4154  0.3705
   98SAPS    HX 9771   1.456   5.674   6.411 -0.0634  3.0289  2.1234
   98SAPS    HY 9772   1.602   5.607   6.463 -1.0814 -1.5487 -2.7960
   98SAPS   O31 9773   1.462   5.686   6.608  0.4710 -0.0440  0.2548
   98SAPS   C31 9774   1.556   5.662   6.703  0.1103 -0.2390 -0.0921
   98SAPS   O32 9775   1.654   5.592   6.691 -0.2305 -0.3709 -0.0514
   98SAPS   C32 9776   1.519   5.730   6.835  0.0707  0.0365  0.3675
   98SAPS   H2X 9777   1.468   5.824   6.804  1.9980  0.5426 -1.4955
   98SAPS   H2Y 9778   1.615   5.766   6.878  0.2757  1.6510 -1.3257
   98SAPS   C23 9779   1.041   5.304   6.628 -0.4649 -0.0252 -0.3947
   98SAPS   H3R 9780   1.083   5.208   6.592 -2.9423 -0.9144 -1.0993
   98SAPS   H3S 9781   1.018   5.364   6.538 -0.1186 -0.2651 -0.6454
   98SAPS   C24 9782   0.915   5.280   6.712  0.5355  0.5729 -0.1311
   98SAPS   H4R 9783   0.950   5.207   6.788 -2.5057  0.1244  0.9765
   98SAPS   H4S 9784   0.840   5.233   6.644  0.2747 -1.5418  1.5027
   98SAPS   C25 9785   0.853   5.412   6.757 -0.2448 -0.6669  0.4043
   98SAPS   H5R 9786   0.797   5.467   6.681 -0.8222  0.0663  1.3422
   98SAPS   C26 9787   0.854   5.472   6.876  0.1991  0.1658 -0.5204
   98SAPS   H6R 9788   0.798   5.566   6.885  1.3820  0.8437  0.0867
   98SAPS   C27 9789   0.914   5.409   6.997 -0.7840  1.0282  0.2403
   98SAPS   H7R 9790   1.024   5.393   6.989 -0.7246  1.4062  0.2624
   98SAPS   H7S 9791   0.871   5.308   7.011  0.8812  0.3188  0.4811
   98SAPS   C28 9792   0.900   5.505   7.112  0.3276 -0.0398 -0.0017
   98SAPS   H8R 9793   0.912   5.610   7.079  1.0152 -0.0565  0.1876
   98SAPS   C29 9794   0.857   5.476   7.238 -0.4663 -0.5166  0.1285
   98SAPS   H9R 9795   0.840   5.555   7.313  1.1687 -0.3361  0.3476
   98SAPS  C210 9796   0.827   5.337   7.287  0.3510 -0.2697 -0.2044
   98SAPS  H10R 9797   0.907   5.324   7.363 -0.5547  0.7684  0.9901
   98SAPS  H10S 9798   0.852   5.258   7.213  0.7123 -1.2379  0.9221
   98SAPS  C211 9799   0.687   5.322   7.349  0.3303 -0.3723  0.1793
   98SAPS  H11R 9800   0.604   5.318   7.277 -0.0830 -1.6493  0.7021
   98SAPS  C212 9801   0.659   5.323   7.480 -0.7537  0.2987 -0.3789
   98SAPS  H12R 9802   0.552   5.318   7.506 -0.5091  2.3290  1.3231
   98SAPS  C213 9803   0.764   5.331   7.591 -0.7114  0.6405 -0.0877
   98SAPS  H13R 9804   0.790   5.437   7.609  2.8956 -0.0707 -0.4827
   98SAPS  H13S 9805   0.865   5.290   7.569 -0.3164  0.2359  2.2248
   98SAPS  C214 9806   0.713   5.252   7.713  0.3664 -0.0927 -0.5180
   98SAPS  H14R 9807   0.700   5.143   7.711 -1.4363  0.0010  1.5166
   98SAPS  C215 9808   0.677   5.306   7.830 -0.3630  0.2156  0.3021
   98SAPS  H15R 9809   0.622   5.243   7.902 -1.5948 -0.3148 -1.0416
   98SAPS  C216 9810   0.678   5.449   7.864  0.4443 -0.0510 -0.5436
   98SAPS  H16R 9811   0.580   5.472   7.912  0.2578  1.0807 -1.4362
   98SAPS  H16S 9812   0.686   5.519   7.778  0.4090 -0.5504 -0.9584
   98SAPS  C217 9813   0.798   5.478   7.961 -0.2017 -0.0314  0.2029
   98SAPS  H17R 9814   0.782   5.581   7.999  0.3448 -0.0306  0.4415
   98SAPS  H17S 9815   0.887   5.483   7.896  0.2307  2.2326  0.8688
   98SAPS  C218 9816   0.813   5.388   8.082 -0.3827 -0.2441  0.5763
   98SAPS  H18R 9817   0.831   5.282   8.053 -0.6746  0.0566 -0.7924
   98SAPS  H18S 9818   0.719   5.398   8.140 -0.7287 -0.8555  0.1324
   98SAPS  C219 9819   0.924   5.446   8.168  0.4477 -0.1438  0.3947
   98SAPS  H19R 9820   0.930   5.556   8.181 -0.9326  0.0500 -0.4360
   98SAPS  H19S 9821   1.017   5.406   8.122  0.2254 -4.9724  3.4254
   98SAPS  C220 9822   0.912   5.391   8.316  0.6642 -0.2563  0.0605
   98SAPS  H20R 9823   1.010   5.402   8.367  0.6347  1.9044 -0.2394
   98SAPS  H20S 9824   0.888   5.283   8.305  1.9541 -0.5253 -0.1749
   98SAPS  H20T 9825   0.834   5.441   8.379 -0.2708  0.6853 -1.7591
   98SAPS   C33 9826   1.445   5.636   6.931  0.0702  0.4412 -0.8767
   98SAPS   H3X 9827   1.520   5.564   6.970 -1.4655 -0.5105  0.4544
   98SAPS   H3Y 9828   1.369   5.565   6.891  1.3765 -0.2345 -2.2647
   98SAPS   C34 9829   1.391   5.700   7.061  0.5180 -0.8135 -0.4154
   98SAPS   H4X 9830   1.308   5.767   7.030  0.5662 -1.2762 -1.5896
   98SAPS   H4Y 9831   1.477   5.746   7.115 -0.9810  1.5862  0.0955
   98SAPS   C35 9832   1.333   5.592   7.155 -0.6129 -0.1667  0.3668
   98SAPS   H5X 9833   1.396   5.501   7.169 -2.2248 -1.5918 -1.2296
   98SAPS   H5Y 9834   1.237   5.557   7.112 -0.1606  1.4733 -2.1735
   98SAPS   C36 9835   1.315   5.663   7.291 -0.3174  0.0197 -0.3835
   98SAPS   H6X 9836   1.260   5.757   7.267 -2.5989 -1.8005 -2.7134
   98SAPS   H6Y 9837   1.411   5.688   7.342 -0.5690  1.6112 -0.6479
   98SAPS   C37 9838   1.232   5.588   7.398 -0.3861 -0.2897  0.7840
   98SAPS   H7X 9839   1.285   5.492   7.417  0.6543  0.2126  0.4924
   98SAPS   H7Y 9840   1.124   5.582   7.375 -0.0707  0.6971 -1.1443
   98SAPS   C38 9841   1.246   5.667   7.524  0.1797  0.2421 -0.2211
   98SAPS   H8X 9842   1.234   5.775   7.502  0.1274 -0.0077 -1.4929
   98SAPS   H8Y 9843   1.355   5.667   7.548  0.0873  0.1907  0.2181
   98SAPS   C39 9844   1.165   5.608   7.644 -0.2563  0.0532 -0.2680
   98SAPS   H9X 9845   1.196   5.501   7.647 -1.0564 -0.1622  1.1746
   98SAPS   H9Y 9846   1.055   5.611   7.627 -0.2815 -1.4245 -0.5042
   98SAPS  C310 9847   1.194   5.685   7.767 -0.1506  0.7795 -0.9218
   98SAPS  H10X 9848   1.183   5.792   7.736  2.1434  1.4605  0.3665
   98SAPS  H10Y 9849   1.302   5.679   7.796 -0.1571  2.4431 -0.3998
   98SAPS  C311 9850   1.114   5.653   7.891 -0.0129 -0.3936 -1.0803
   98SAPS  H11X 9851   1.135   5.546   7.913 -0.9191 -0.3973 -0.1505
   98SAPS  H11Y 9852   1.004   5.668   7.882 -0.0483  0.9086  0.9211
   98SAPS  C312 9853   1.141   5.734   8.028 -0.7284  1.0481 -0.2255
   98SAPS  H12X 9854   1.100   5.669   8.108  1.9161 -1.2550 -0.5956
   98SAPS  H12Y 9855   1.072   5.821   8.032  0.8126  2.2869  0.1033
   98SAPS  C313 9856   1.282   5.771   8.060  0.1855 -0.7985  0.4241
   98SAPS  H13X 9857   1.295   5.872   8.016  0.7620 -1.2421 -0.4544
   98SAPS  H13Y 9858   1.363   5.698   8.037  0.1090 -0.9122  0.5130
   98SAPS  C314 9859   1.298   5.793   8.218 -0.0324  0.2364  0.2289
   98SAPS  H14X 9860   1.209   5.856   8.239 -1.4267 -1.9390  1.2156
   98SAPS  H14Y 9861   1.392   5.846   8.242 -0.6475  0.7835  1.5272
   98SAPS  C315 9862   1.294   5.661   8.295 -0.2712 -0.2169  0.3162
   98SAPS  H15X 9863   1.351   5.585   8.237  0.0218 -1.4644  2.1638
   98SAPS  H15Y 9864   1.192   5.620   8.311 -1.0253  0.8638 -1.3568
   98SAPS  C316 9865   1.356   5.668   8.440 -0.0836  0.9115  0.2336
   98SAPS  H16X 9866   1.465   5.689   8.439  0.2539 -0.5235  1.7258
   98SAPS  H16Y 9867   1.357   5.563   8.477  1.6117  1.3742  1.6318
   98SAPS  C317 9868   1.284   5.754   8.532 -0.4060 -0.3600  0.5837
   98SAPS  H17X 9869   1.312   5.859   8.511  1.1545 -0.3185  2.6013
   98SAPS  H17Y 9870   1.323   5.735   8.634 -1.1031 -0.9403  0.7518
   98SAPS  C318 9871   1.126   5.762   8.525 -0.0573 -0.1917  0.1125
   98SAPS  H18X 9872   1.084   5.664   8.556  2.4454 -1.5597 -0.5614
   98SAPS  H18Y 9873   1.097   5.781   8.419 -0.1247 -3.0261 -0.4504
   98SAPS  H18Z 9874   1.078   5.850   8.574 -0.7386 -0.3753 -0.2045
   99SAPS     N 9875   1.044   1.751   5.830  0.6764  0.6898  0.6177
   99SAPS   HN1 9876   1.096   1.810   5.763  0.4326  0.1074 -0.1042
   99SAPS   HN2 9877   1.118   1.745   5.903  0.9136  1.7054  0.4730
   99SAPS   HN3 9878   1.019   1.655   5.797 -3.1152  1.2505  1.3556
   99SAPS   C12 9879   0.919   1.809   5.883  0.7794 -0.2152  0.3226
   99SAPS  H12A 9880   0.942   1.915   5.876 -0.8584  0.3182  2.0983
   99SAPS   C13 9881   0.805   1.786   5.780 -0.3647 -0.2377 -0.4595
   99SAPS  O13A 9882   0.832   1.760   5.663 -0.2569  0.2306  0.8038
   99SAPS  O13B 9883   0.691   1.832   5.813 -0.2731 -0.2918  0.1600
   99SAPS   C11 9884   0.875   1.746   6.029 -0.1452 -0.4041  0.7780
   99SAPS  H11A 9885   0.836   1.642   6.019  1.6526 -1.1932  1.4249
   99SAPS  H11B 9886   0.790   1.807   6.065 -0.2925  0.7404 -1.3254
   99SAPS     P 9887   0.976   1.843   6.251  0.0252  0.2882 -0.1689
   99SAPS   O13 9888   1.092   1.811   6.333  0.3651  0.1877 -0.4384
   99SAPS   O14 9889   0.960   1.986   6.213  0.7769  0.0704  0.1078
   99SAPS   O12 9890   0.988   1.754   6.118  0.8303  0.3147  0.0842
   99SAPS   O11 9891   0.836   1.796   6.305 -0.3855  0.5088  0.7898
   99SAPS    C1 9892   0.830   1.664   6.361 -0.2334 -0.5774  0.1284
   99SAPS    HA 9893   0.833   1.585   6.284  0.6457  2.6560 -3.4500
   99SAPS    HB 9894   0.902   1.642   6.443 -0.2819 -1.5200 -0.0729
   99SAPS    C2 9895   0.693   1.662   6.434  0.2137  0.0124 -1.4061
   99SAPS    HS 9896   0.612   1.698   6.366 -0.8705 -1.9328 -1.2189
   99SAPS   O21 9897   0.715   1.754   6.541  0.0454  0.1705  0.0584
   99SAPS   C21 9898   0.600   1.793   6.594 -0.2264  0.4309 -0.6040
   99SAPS   O22 9899   0.493   1.778   6.536  0.1160 -0.1436  0.0962
   99SAPS   C22 9900   0.614   1.861   6.731  0.8683 -0.2268 -0.0077
   99SAPS   H2R 9901   0.670   1.795   6.801  1.0872  0.5616  0.5661
   99SAPS   H2S 9902   0.668   1.956   6.714  1.0985 -0.8537 -3.5297
   99SAPS    C3 9903   0.659   1.521   6.485 -0.4402 -0.7086  0.2793
   99SAPS    HX 9904   0.647   1.451   6.399  0.4076 -2.3433  1.4286
   99SAPS    HY 9905   0.575   1.524   6.558  1.1706 -1.2069  2.2516
   99SAPS   O31 9906   0.778   1.465   6.559  0.4591 -1.2011  0.0100
   99SAPS   C31 9907   0.792   1.493   6.678 -0.3887 -0.8066 -0.3624
   99SAPS   O32 9908   0.712   1.551   6.749  0.1852  0.2450 -0.0889
   99SAPS   C32 9909   0.931   1.442   6.730  0.1252 -0.2268 -0.2430
   99SAPS   H2X 9910   1.007   1.518   6.700  1.2585 -1.1920  0.1337
   99SAPS   H2Y 9911   0.972   1.363   6.663 -0.4297 -1.5471  0.9245
   99SAPS   C23 9912   0.478   1.890   6.797 -0.5068  0.2533 -1.0892
   99SAPS   H3R 9913   0.427   1.793   6.817  0.1193  0.3596  1.2474
   99SAPS   H3S 9914   0.418   1.951   6.725 -1.2895  1.4698  0.5470
   99SAPS   C24 9915   0.498   1.989   6.922  1.1222  0.0391  0.1535
   99SAPS   H4R 9916   0.399   2.035   6.940  1.0578 -0.6691  1.7070
   99SAPS   H4S 9917   0.568   2.067   6.884 -0.1209 -1.2512 -5.7187
   99SAPS   C25 9918   0.548   1.930   7.053  0.2870  0.1197 -0.0201
   99SAPS   H5R 9919   0.623   1.853   7.031  0.4788  0.5442 -0.9022
   99SAPS   C26 9920   0.497   1.941   7.178  0.2168 -0.0450  0.1181
   99SAPS   H6R 9921   0.544   1.888   7.262  1.7938 -0.6450 -1.0903
   99SAPS   C27 9922   0.376   2.017   7.228  0.1895  0.3444  0.3583
   99SAPS   H7R 9923   0.334   2.090   7.155 -2.0150  0.9347  2.0944
   99SAPS   H7S 9924   0.413   2.066   7.320  1.3826  1.4895 -0.6876
   99SAPS   C28 9925   0.267   1.915   7.258  0.3895 -0.7694 -0.1600
   99SAPS   H8R 9926   0.246   1.839   7.181 -1.6624 -1.1969  0.7448
   99SAPS   C29 9927   0.189   1.901   7.366 -0.4422  0.0581 -1.1403
   99SAPS   H9R 9928   0.119   1.816   7.374 -2.9553  2.1241  0.7560
   99SAPS  C210 9929   0.187   1.991   7.493  0.3152  0.1303  0.6094
   99SAPS  H10R 9930   0.220   2.093   7.464  2.1359 -0.6666 -0.2643
   99SAPS  H10S 9931   0.266   1.952   7.560 -0.9781  1.3067  2.9395
   99SAPS  C211 9932   0.050   2.004   7.560 -0.4191 -0.3418 -0.1977
   99SAPS  H11R 9933  -0.036   1.963   7.504  0.6830  0.5848 -2.7599
   99SAPS  C212 9934   0.032   2.072   7.674  0.4113 -0.0898  0.0266
   99SAPS  H12R 9935  -0.071   2.080   7.712 -0.0024 -1.0090 -0.8543
   99SAPS  C213 9936   0.137   2.148   7.756 -0.7729  0.9742  0.6242
   99SAPS  H13R 9937   0.096   2.241   7.800 -1.5381  0.9518 -0.0218
   99SAPS  H13S 9938   0.223   2.173   7.692 -0.2850 -0.8412  0.5092
   99SAPS  C214 9939   0.191   2.063   7.873  0.1277 -0.4923  0.1361
   99SAPS  H14R 9940   0.256   1.989   7.824 -1.0932  0.1165 -2.6079
   99SAPS  C215 9941   0.146   2.048   7.997  0.1672 -0.6385  0.4816
   99SAPS  H15R 9942   0.192   1.973   8.062  0.3998 -2.1796 -1.3799
   99SAPS  C216 9943   0.034   2.133   8.059  0.3524  0.8390 -0.5171
   99SAPS  H16R 9944  -0.043   2.059   8.088  0.7477  1.0003  1.0635
   99SAPS  H16S 9945  -0.020   2.203   7.992  0.6143 -0.4335 -2.1220
   99SAPS  C217 9946   0.066   2.193   8.204  0.2648 -0.5680 -0.5150
   99SAPS  H17R 9947   0.114   2.118   8.271  1.1732  1.3970  1.1417
   99SAPS  H17S 9948  -0.036   2.211   8.242  0.5351 -0.6880  0.2903
   99SAPS  C218 9949   0.150   2.328   8.204  0.2588 -0.4744  0.5609
   99SAPS  H18R 9950   0.250   2.305   8.161  0.6042 -1.7860  1.9669
   99SAPS  H18S 9951   0.170   2.363   8.308  1.1904  0.2760  0.1528
   99SAPS  C219 9952   0.089   2.447   8.133 -0.1771 -0.5727 -0.2385
   99SAPS  H19R 9953   0.076   2.420   8.027 -0.2608 -2.7062  0.2814
   99SAPS  H19S 9954   0.165   2.528   8.140  0.4758 -1.3205  2.5464
   99SAPS  C220 9955  -0.047   2.486   8.194  0.1453 -0.0504 -0.5907
   99SAPS  H20R 9956  -0.095   2.566   8.134 -0.0331 -0.0753 -0.4840
   99SAPS  H20S 9957  -0.040   2.518   8.300 -0.6171 -1.6701 -0.0219
   99SAPS  H20T 9958  -0.115   2.399   8.203 -0.6234  0.6668  0.7918
   99SAPS   C33 9959   0.938   1.411   6.879  0.4214 -0.7494  0.3493
   99SAPS   H3X 9960   0.886   1.318   6.910  0.4624 -0.7824  0.3185
   99SAPS   H3Y 9961   0.905   1.502   6.934  3.4769  0.4061  0.4995
   99SAPS   C34 9962   1.087   1.388   6.918 -0.4289  0.3967 -0.2926
   99SAPS   H4X 9963   1.141   1.485   6.920  0.0361  0.1413 -0.4006
   99SAPS   H4Y 9964   1.137   1.320   6.846 -0.6262  0.8983 -0.9153
   99SAPS   C35 9965   1.087   1.323   7.057  0.2229  0.4161 -0.4376
   99SAPS   H5X 9966   1.021   1.233   7.052  0.0274  0.4940  0.6971
   99SAPS   H5Y 9967   1.045   1.407   7.115  1.2885  1.2958 -0.8893
   99SAPS   C36 9968   1.231   1.283   7.107 -0.2798  0.6324  0.1062
   99SAPS   H6X 9969   1.306   1.364   7.100 -0.8215  1.0137 -2.2255
   99SAPS   H6Y 9970   1.269   1.200   7.044  0.9612  0.5753  0.9071
   99SAPS   C37 9971   1.236   1.233   7.250  0.0180  0.2653  0.0023
   99SAPS   H7X 9972   1.345   1.221   7.266  0.8417  1.6884 -3.4932
   99SAPS   H7Y 9973   1.187   1.134   7.240  1.4426 -0.4506 -0.1529
   99SAPS   C38 9974   1.180   1.319   7.363 -0.2981 -0.2986 -0.2378
   99SAPS   H8X 9975   1.070   1.323   7.377 -0.1571 -0.5625  1.0717
   99SAPS   H8Y 9976   1.209   1.425   7.343  0.2678  0.4882  3.8079
   99SAPS   C39 9977   1.254   1.279   7.494 -0.0898 -0.4949  0.9052
   99SAPS   H9X 9978   1.363   1.291   7.475 -0.1064  0.9948  1.6030
   99SAPS   H9Y 9979   1.242   1.170   7.510  1.3791 -0.7543  0.3538
   99SAPS  C310 9980   1.232   1.365   7.620  0.0371 -0.8648  0.4913
   99SAPS  H10X 9981   1.124   1.372   7.642  0.0383 -0.2868  0.3235
   99SAPS  H10Y 9982   1.270   1.465   7.591 -0.5143 -0.7798  0.0606
   99SAPS  C311 9983   1.304   1.309   7.745 -0.3481 -0.0673 -0.4451
   99SAPS  H11X 9984   1.411   1.307   7.713 -0.3516  1.5105 -0.6574
   99SAPS  H11Y 9985   1.264   1.208   7.768  1.0359 -0.5681 -0.1040
   99SAPS  C312 9986   1.280   1.410   7.860  0.2395  0.5822 -0.4840
   99SAPS  H12X 9987   1.172   1.403   7.883  0.3408 -1.6423 -0.4442
   99SAPS  H12Y 9988   1.294   1.516   7.831 -0.4221  0.4437 -1.3643
   99SAPS  C313 9989   1.360   1.384   7.986  0.1927  0.1259  0.5845
   99SAPS  H13X 9990   1.466   1.362   7.961  0.3935  0.4667  1.1246
   99SAPS  H13Y 9991   1.306   1.295   8.023 -0.7450 -0.3064 -1.6620
   99SAPS  C314 9992   1.350   1.507   8.082 -0.2313  0.9299 -0.1012
   99SAPS  H14X 9993   1.245   1.527   8.112 -0.1940  2.0611 -0.6831
   99SAPS  H14Y 9994   1.385   1.596   8.025 -2.1391  1.9823  0.3107
   99SAPS  C315 9995   1.444   1.491   8.201  0.3848  0.7605 -0.7342
   99SAPS  H15X 9996   1.544   1.461   8.164  0.5863  0.5187 -0.0110
   99SAPS  H15Y 9997   1.398   1.414   8.266  0.0565  2.1103  0.7118
   99SAPS  C316 9998   1.448   1.619   8.286 -0.2564 -0.1287 -0.2059
   99SAPS  H16X 9999   1.348   1.628   8.335  0.5178  2.4048  1.1184
   99SAPS  H16Y10000   1.458   1.701   8.212  1.0571 -0.8293 -0.8411
   99SAPS  C31710001   1.550   1.619   8.403 -0.0816  0.6333 -0.3824
   99SAPS  H17X10002   1.639   1.558   8.377 -0.6340 -0.9261  1.2079
   99SAPS  H17Y10003   1.504   1.563   8.487 -1.1669  2.3567  0.2263
   99SAPS  C31810004   1.588   1.755   8.460  0.2238  0.7272 -0.1077
   99SAPS  H18X10005   1.663   1.807   8.396  1.4776 -0.5734  0.2632
   99SAPS  H18Y10006   1.625   1.748   8.564 -0.1532  2.2839  0.1547
   99SAPS  H18Z10007   1.501   1.824   8.462  0.9692  1.9656 -3.3388
  100SAPS     N10008   5.404   5.042   6.138 -0.0836  0.6505  0.1724
  100SAPS   HN110009   5.410   5.141   6.171 -1.0017  0.9098 -0.3971
  100SAPS   HN210010   5.395   5.047   6.035  0.9430 -2.9593 -0.2198
  100SAPS   HN310011   5.321   5.005   6.189  0.3730  0.3759  0.7263
  100SAPS   C1210012   5.529   4.967   6.163  0.3381 -0.8865  0.0660
  100SAPS  H12A10013   5.518   4.908   6.252  0.0176  1.4097  1.6338
  100SAPS   C1310014   5.564   4.881   6.034 -0.2247  0.5764  0.3814
  100SAPS  O13A10015   5.466   4.848   5.962  0.0436 -0.3420  1.1334
  100SAPS  O13B10016   5.679   4.847   6.006  0.2720  0.5071  0.9722
  100SAPS   C1110017   5.637   5.083   6.172 -0.7847 -0.2294 -0.6090
  100SAPS  H11A10018   5.665   5.130   6.075 -0.5955  2.0274  0.4739
  100SAPS  H11B10019   5.736   5.041   6.200 -0.2842  0.5083 -1.2202
  100SAPS     P10020   5.673   5.216   6.412  0.1402  0.0720 -0.3576
  100SAPS   O1310021   5.796   5.132   6.433 -0.2409 -0.5079  0.0947
  100SAPS   O1410022   5.688   5.366   6.420  0.3467  0.6519 -0.4858
  100SAPS   O1210023   5.595   5.179   6.278  0.4481  0.2011  0.2229
  100SAPS   O1110024   5.569   5.171   6.522  0.3801  0.4741  0.3966
  100SAPS    C110025   5.453   5.085   6.508 -0.2662 -0.1834  0.4967
  100SAPS    HA10026   5.377   5.128   6.440 -1.8699 -2.1215  0.9954
  100SAPS    HB10027   5.477   4.984   6.468 -0.8918 -0.1915  0.1407
  100SAPS    C210028   5.389   5.071   6.641  0.2315  0.0053 -0.1033
  100SAPS    HS10029   5.365   5.175   6.671  1.7847  0.1304  0.8248
  100SAPS   O2110030   5.486   5.013   6.740  0.0399 -0.1364  0.4173
  100SAPS   C2110031   5.476   5.068   6.855 -0.2453 -0.1485 -0.2761
  100SAPS   O2210032   5.399   5.153   6.890  0.0091  0.0292  0.8537
  100SAPS   C2210033   5.564   4.996   6.953  0.1187 -0.3424 -0.8356
  100SAPS   H2R10034   5.547   4.886   6.951  3.4500 -0.9613 -0.7233
  100SAPS   H2S10035   5.667   4.999   6.911  0.9188 -0.3169  1.0032
  100SAPS    C310036   5.249   5.008   6.624 -0.5412  0.3005  0.4777
  100SAPS    HX10037   5.269   4.908   6.581  0.4476  0.4138  0.6514
  100SAPS    HY10038   5.183   5.054   6.548 -1.1042  0.2282  0.9148
  100SAPS   O3110039   5.179   4.987   6.748  0.1744 -0.2931 -0.8297
  100SAPS   C3110040   5.122   5.096   6.800  0.0295 -0.3776  0.1438
  100SAPS   O3210041   5.107   5.195   6.735  0.8090  0.6465 -0.0336
  100SAPS   C3210042   5.088   5.070   6.949  0.9403 -0.5553 -0.2282
  100SAPS   H2X10043   5.177   5.083   7.014 -0.4083  1.7698  1.2746
  100SAPS   H2Y10044   5.054   4.965   6.959  3.3518 -1.3776  0.0954
  100SAPS   C2310045   5.556   5.064   7.089 -0.0212  0.6128  0.2354
  100SAPS   H3R10046   5.456   5.052   7.135 -0.1334  1.5692  0.2495
  100SAPS   H3S10047   5.570   5.174   7.088  0.5993  0.5773  2.0572
  100SAPS   C2410048   5.655   4.999   7.194  0.0745 -0.2731 -0.6190
  100SAPS   H4R10049   5.673   5.085   7.262  0.5105  0.4705 -1.6373
  100SAPS   H4S10050   5.750   4.974   7.144 -0.2593 -0.3298 -1.2375
  100SAPS   C2510051   5.589   4.879   7.259  0.9161  0.6048 -0.2955
  100SAPS   H5R10052   5.569   4.799   7.186  1.5034  0.0266  0.1713
  100SAPS   C2610053   5.537   4.873   7.386  0.5722  0.0507 -0.1442
  100SAPS   H6R10054   5.501   4.775   7.420  1.0128 -0.2839 -0.6116
  100SAPS   C2710055   5.527   4.981   7.493  0.3771 -0.1946 -0.3542
  100SAPS   H7R10056   5.447   4.956   7.566  1.6538 -2.7851  0.2645
  100SAPS   H7S10057   5.503   5.080   7.448 -1.0400 -1.0559 -1.5513
  100SAPS   C2810058   5.660   5.000   7.559  0.0979 -0.0929 -0.5778
  100SAPS   H8R10059   5.754   5.017   7.505  0.8772  2.0606  1.2539
  100SAPS   C2910060   5.684   4.976   7.692  0.7812 -0.3394  0.0196
  100SAPS   H9R10061   5.783   4.984   7.739  0.3705 -1.0295  1.0477
  100SAPS  C21010062   5.580   4.926   7.790  0.2268  0.3869  0.4503
  100SAPS  H10R10063   5.483   4.888   7.750 -0.5105  0.4715  2.0775
  100SAPS  H10S10064   5.546   5.020   7.840  0.7892  0.8443 -0.0172
  100SAPS  C21110065   5.632   4.832   7.894  0.4657  0.5260 -0.6680
  100SAPS  H11R10066   5.740   4.835   7.913  0.1941 -0.0045  1.1635
  100SAPS  C21210067   5.562   4.748   7.974 -0.2934 -0.0067  0.6702
  100SAPS  H12R10068   5.628   4.676   8.026  2.8202  0.9587 -1.6813
  100SAPS  C21310069   5.413   4.738   7.981 -0.3158 -0.1835  0.1760
  100SAPS  H13R10070   5.377   4.783   7.886 -0.3651  2.9540  1.5783
  100SAPS  H13S10071   5.375   4.807   8.059 -0.2506 -0.6438  0.6128
  100SAPS  C21410072   5.384   4.588   8.012  0.0160  0.2961 -0.6555
  100SAPS  H14R10073   5.415   4.553   8.111 -0.1142 -2.1630 -1.4204
  100SAPS  C21510074   5.327   4.495   7.931 -0.4396 -0.4051  0.0666
  100SAPS  H15R10075   5.327   4.387   7.950  2.7364 -1.2401 -3.4757
  100SAPS  C21610076   5.266   4.521   7.792 -0.0507 -0.4562  0.3686
  100SAPS  H16R10077   5.278   4.630   7.772  1.2530 -0.9516 -1.9341
  100SAPS  H16S10078   5.156   4.502   7.791 -0.0632 -0.4357  1.2244
  100SAPS  C21710079   5.323   4.435   7.673  0.0928 -0.3495  0.2880
  100SAPS  H17R10080   5.291   4.330   7.689  0.6804 -0.4403  0.9509
  100SAPS  H17S10081   5.434   4.445   7.672  0.2343 -1.7555  0.6831
  100SAPS  C21810082   5.277   4.484   7.533 -0.0593 -0.6702 -0.2131
  100SAPS  H18R10083   5.333   4.579   7.524 -0.1923 -0.4461  1.0865
  100SAPS  H18S10084   5.170   4.514   7.537  0.3986  0.9154  1.1844
  100SAPS  C21910085   5.305   4.385   7.423  0.0453  0.8275 -0.0688
  100SAPS  H19R10086   5.222   4.402   7.351  0.2167  0.4111 -0.3690
  100SAPS  H19S10087   5.294   4.282   7.464 -0.5070  1.4125  1.3263
  100SAPS  C22010088   5.441   4.406   7.345  0.3053 -0.0298 -0.5472
  100SAPS  H20R10089   5.442   4.512   7.313 -0.8950  0.0607 -0.3591
  100SAPS  H20S10090   5.426   4.356   7.246 -0.0747  1.4389 -1.2620
  100SAPS  H20T10091   5.533   4.374   7.396  1.3537  1.2226 -1.5773
  100SAPS   C3310092   4.998   5.180   7.016  0.0198 -0.0021  0.1994
  100SAPS   H3X10093   4.913   5.171   6.946  2.2354  0.5173 -2.7602
  100SAPS   H3Y10094   5.036   5.282   6.993  1.8179 -0.9826 -1.4511
  100SAPS   C3410095   4.954   5.161   7.158  0.3280  0.3258  0.0412
  100SAPS   H4X10096   4.926   5.054   7.172  0.5423  0.2626 -0.0135
  100SAPS   H4Y10097   4.867   5.229   7.168  0.7097  0.7346  0.6034
  100SAPS   C3510098   5.065   5.191   7.265  0.1240  0.2348 -0.6464
  100SAPS   H5X10099   5.091   5.299   7.269  0.0824  0.2169  0.4153
  100SAPS   H5Y10100   5.150   5.123   7.242 -0.8633 -1.0925 -0.4649
  100SAPS   C3610101   5.010   5.150   7.405 -0.2786 -0.7927  0.0646
  100SAPS   H6X10102   4.971   5.047   7.406  1.8490 -1.7290 -2.2398
  100SAPS   H6Y10103   4.940   5.233   7.429  1.8730  0.8118  1.2196
  100SAPS   C3710104   5.130   5.165   7.513  0.2037  0.1863  0.4818
  100SAPS   H7X10105   5.180   5.263   7.504 -0.1871  0.3950  0.5419
  100SAPS   H7Y10106   5.190   5.074   7.492  0.0352  0.1095  0.3286
  100SAPS   C3810107   5.078   5.138   7.651 -0.2055 -0.5321  0.1937
  100SAPS   H8X10108   5.024   5.042   7.656 -0.5323 -0.3189  0.9356
  100SAPS   H8Y10109   5.010   5.223   7.671 -1.3988 -1.0848 -1.3515
  100SAPS   C3910110   5.198   5.123   7.747  0.2351 -0.0512  0.5619
  100SAPS   H9X10111   5.250   5.221   7.738 -2.2825  1.2735 -0.5524
  100SAPS   H9Y10112   5.262   5.037   7.719 -2.6079 -2.5136  1.0764
  100SAPS  C31010113   5.156   5.096   7.891 -1.0771 -0.7798  0.3635
  100SAPS  H10X10114   5.104   4.998   7.896 -0.2033 -1.2139  3.0286
  100SAPS  H10Y10115   5.089   5.179   7.921  1.7434  2.3306 -1.3566
  100SAPS  C31110116   5.265   5.083   7.996  0.1877  0.5527 -0.5616
  100SAPS  H11X10117   5.301   5.187   8.001 -2.7179  1.7839 -2.3993
  100SAPS  H11Y10118   5.342   5.009   7.967  1.5828  1.1491  1.4347
  100SAPS  C31210119   5.205   5.027   8.130 -0.3304  0.5977 -0.2889
  100SAPS  H12X10120   5.170   4.923   8.113  0.3653  0.6177 -2.0167
  100SAPS  H12Y10121   5.118   5.092   8.155 -0.7772 -0.3060  0.5715
  100SAPS  C31310122   5.313   5.025   8.235  0.2646  0.8377  0.2088
  100SAPS  H13X10123   5.363   5.122   8.255  1.5172  0.2713 -0.0540
  100SAPS  H13Y10124   5.391   4.951   8.206 -0.8604  0.2530 -1.4931
  100SAPS  C31410125   5.266   4.977   8.372  0.0069 -0.2774  0.6159
  100SAPS  H14X10126   5.186   5.049   8.398  0.5508  0.7743 -0.4964
  100SAPS  H14Y10127   5.351   5.001   8.440 -1.6744 -0.0925  2.7488
  100SAPS  C31510128   5.241   4.827   8.381 -0.0704  0.1655  0.3408
  100SAPS  H15X10129   5.334   4.778   8.346 -1.3679 -1.4572 -1.0122
  100SAPS  H15Y10130   5.156   4.804   8.312  0.2643  0.9376 -0.3514
  100SAPS  C31610131   5.217   4.787   8.525  0.7267  0.5265 -0.2160
  100SAPS  H16X10132   5.162   4.860   8.588 -2.3128 -2.3646  0.7717
  100SAPS  H16Y10133   5.313   4.770   8.576  1.0817  1.8958 -0.4017
  100SAPS  C31710134   5.149   4.648   8.537  0.3369 -0.2042  0.0648
  100SAPS  H17X10135   5.050   4.642   8.487 -0.0079  1.1706  0.5390
  100SAPS  H17Y10136   5.139   4.626   8.645  3.3271 -2.3913  0.0251
  100SAPS  C31810137   5.223   4.530   8.482 -0.3072 -0.5148 -1.0420
  100SAPS  H18X10138   5.213   4.503   8.374  2.1449 -0.5833 -1.3016
  100SAPS  H18Y10139   5.189   4.441   8.539 -0.3715  1.0740  1.5396
  100SAPS  H18Z10140   5.330   4.553   8.499 -1.1581  2.4735  0.9180
  101OSM      N10141   3.080   3.185  10.732 -0.6159  0.2422  0.6754
  101OSM    C1510142   3.042   3.160  10.587 -0.3533 -0.5821 -1.1117
  101OSM   H15A10143   2.941   3.122  10.587 -0.3897 -0.8170  2.6134
  101OSM   H15B10144   3.093   3.076  10.543  0.3189 -0.2352 -1.0128
  101OSM   H15C10145   3.067   3.242  10.520 -0.1039 -0.8334 -1.3253
  101OSM    C1410146   3.086   3.057  10.799  0.5037 -0.1022 -0.1819
  101OSM   H14A10147   3.156   2.986  10.757 -1.3230 -1.0380 -1.8185
  101OSM   H14B10148   2.986   3.015  10.801 -0.0015  1.0655 -0.4311
  101OSM   H14C10149   3.113   3.080  10.901 -0.4684  3.3278 -0.5897
  101OSM    C1310150   3.210   3.261  10.736  0.4649  0.1792 -0.3637
  101OSM   H13A10151   3.213   3.339  10.662 -0.8982 -0.2062 -0.8633
  101OSM   H13B10152   3.293   3.197  10.712  0.1589 -1.3753  2.3007
  101OSM   H13C10153   3.241   3.286  10.837  1.9401 -1.8676 -0.2424
  101OSM    C1210154   2.974   3.270  10.788 -0.0891  0.0192 -0.3197
  101OSM   H12A10155   2.946   3.336  10.708 -0.3788  0.6752  0.3123
  101OSM   H12B10156   3.012   3.338  10.863 -1.6953  1.4493 -0.7512
  101OSM    C1110157   2.846   3.207  10.840  0.3598  0.3823  0.3285
  101OSM   H11A10158   2.781   3.288  10.878  0.4142 -0.2292  1.7765
  101OSM   H11B10159   2.874   3.143  10.926 -0.1067  0.4685  0.5470
  101OSM      P10160   2.695   3.011  10.773  0.0781  0.2661  0.5941
  101OSM    O1310161   2.786   2.907  10.826 -0.7424  0.4482 -0.3997
  101OSM    O1410162   2.571   3.046  10.854 -0.0041 -0.4849  0.6940
  101OSM    O1110163   2.644   2.963  10.632  0.1556  1.1314 -0.3016
  101OSM    O1210164   2.780   3.132  10.737  0.2199  1.1682 -0.2233
  101OSM    C1S10165   2.599   3.060  10.535  0.1274  0.5878  0.3067
  101OSM    H1S10166   2.571   3.159  10.577 -0.4549  0.0974  1.1215
  101OSM    H1T10167   2.505   3.027  10.484  0.0231  1.7683 -0.2985
  101OSM     NF10168   2.633   3.168  10.324 -0.6491 -0.1072 -0.0491
  101OSM    HNF10169   2.597   3.130  10.239  0.1627 -0.3253 -0.2992
  101OSM    C2S10170   2.698   3.081  10.416 -0.5325 -0.5530  0.2828
  101OSM    H2S10171   2.789   3.121  10.466  0.2843 -1.9414 -0.0680
  101OSM    C3S10172   2.745   2.943  10.354  0.5812 -1.0799 -0.3225
  101OSM    H3S10173   2.661   2.894  10.302  0.8337 -1.9069  0.0377
  101OSM     O310174   2.788   2.839  10.441 -0.2644 -0.1095  0.3368
  101OSM    HO310175   2.776   2.889  10.522 -1.8825  0.4037 -0.1794
  101OSM    C4S10176   2.846   2.978  10.243  0.1694  0.2323 -0.5558
  101OSM    H4S10177   2.805   2.969  10.141  0.8010  1.5879 -0.9598
  101OSM    C5S10178   2.973   3.016  10.261  0.1197 -0.1780 -0.1698
  101OSM    H5S10179   3.008   3.023  10.365  0.2253 -1.3361 -0.1145
  101OSM    C6S10180   3.070   3.040  10.150  0.0995  0.2631  0.1219
  101OSM    H6S10181   3.163   2.984  10.174 -0.2697 -0.6234 -0.4641
  101OSM    H6T10182   3.097   3.147  10.156  1.4350  0.0422 -1.2448
  101OSM    C7S10183   3.029   3.028  10.001 -0.0150 -0.0660  0.1130
  101OSM    H7S10184   2.946   3.102   9.994 -0.5719 -0.5500  1.4543
  101OSM    H7T10185   2.978   2.935   9.966  1.0884  0.1674 -2.4007
  101OSM    C8S10186   3.141   3.071   9.903 -0.2138  0.6165  0.4451
  101OSM    H8S10187   3.218   2.994   9.885 -0.2014  0.9809 -1.1873
  101OSM    H8T10188   3.192   3.161   9.942  0.4912  1.5282 -2.3903
  101OSM    C9S10189   3.081   3.118   9.774 -0.0927 -0.4170  0.0730
  101OSM    H9S10190   3.027   3.214   9.789 -0.7152 -0.7644  0.0875
  101OSM    H9T10191   3.015   3.041   9.729  0.2700  1.1624 -3.5528
  101OSM   C10S10192   3.193   3.138   9.664 -0.9135  0.4132  0.1690
  101OSM   H10S10193   3.222   3.032   9.649 -4.6734 -0.4132 -3.0189
  101OSM   H10T10194   3.285   3.182   9.708 -0.2263  1.2580 -2.0010
  101OSM   C11S10195   3.155   3.190   9.523  0.5594 -0.0509  0.1578
  101OSM   H11S10196   3.235   3.182   9.445 -0.3125 -0.5416 -0.7043
  101OSM   H11T10197   3.128   3.297   9.535  0.8875  0.1813 -1.0418
  101OSM   C12S10198   3.033   3.118   9.468  0.6909  0.5975  0.2531
  101OSM   H12S10199   2.940   3.148   9.521 -0.0583 -0.7641 -0.2324
  101OSM   H12T10200   3.041   3.008   9.485 -0.9647  0.5274  0.7793
  101OSM   C13S10201   3.003   3.132   9.316 -0.7880 -0.5365 -0.6757
  101OSM   H13S10202   2.935   3.047   9.294 -0.0349 -1.3090 -0.1106
  101OSM   H13T10203   3.098   3.106   9.264  0.0193 -0.1646  0.5700
  101OSM   C14S10204   2.961   3.267   9.274  0.0562 -0.1355  0.3087
  101OSM   H14S10205   3.046   3.338   9.272  0.1998 -0.3241 -0.2319
  101OSM   H14T10206   2.887   3.310   9.345  1.2226  2.7656 -0.0945
  101OSM   C15S10207   2.901   3.273   9.130 -0.4055  0.1396 -0.1425
  101OSM   H15S10208   2.875   3.377   9.103  0.1665 -0.0581 -1.5769
  101OSM   H15T10209   2.807   3.214   9.128 -0.2792 -0.0512 -0.6764
  101OSM   C16S10210   2.994   3.212   9.013  0.8549 -0.8282 -0.3829
  101OSM   H16S10211   2.947   3.245   8.918  0.5641  0.8753  0.3260
  101OSM   H16T10212   2.994   3.102   9.033 -4.5860 -1.1564 -0.5936
  101OSM   C17S10213   3.144   3.264   9.007 -0.2434 -0.2854  0.0618
  101OSM   H17S10214   3.180   3.276   9.112 -0.6745  0.6403  0.1196
  101OSM   H17T10215   3.140   3.366   8.964  2.7020  0.4536  1.2793
  101OSM   C18S10216   3.237   3.176   8.926  0.1731 -0.2606  0.0273
  101OSM   H18S10217   3.212   3.172   8.818  0.7739  1.0081 -0.1739
  101OSM   H18T10218   3.245   3.073   8.969 -1.6932 -0.2588  0.4861
  101OSM   H18U10219   3.340   3.217   8.930  0.0220  0.2186 -0.8502
  101OSM    C1F10220   2.613   3.301  10.348 -0.0764  0.0929  0.2960
  101OSM     OF10221   2.633   3.352  10.455  0.7586 -0.1383 -0.5077
  101OSM    C2F10222   2.553   3.376  10.242 -0.3383 -0.3059  0.0655
  101OSM    H2F10223   2.455   3.334  10.212 -0.7806  1.5670 -1.3266
  101OSM    H2G10224   2.618   3.376  10.152  0.6048  1.1064  0.7039
  101OSM    C3F10225   2.514   3.516  10.279  0.1164 -0.0096  0.0175
  101OSM    H3F10226   2.613   3.565  10.296 -0.0732  0.2966  0.2431
  101OSM    H3G10227   2.447   3.535  10.365 -0.2476  0.3990 -0.3541
  101OSM    C4F10228   2.439   3.587  10.164  0.2896  0.0261 -0.4502
  101OSM    H4F10229   2.394   3.684  10.196 -0.0068 -1.6594  5.3707
  101OSM    H4G10230   2.357   3.523  10.126  0.8074 -0.3695 -0.9043
  101OSM    C5F10231   2.519   3.612  10.040 -0.4457 -0.0598 -0.3279
  101OSM    H5F10232   2.541   3.529   9.969 -0.0295 -0.6029  0.4183
  101OSM    H5G10233   2.624   3.645  10.059  0.4423 -0.5704 -3.6321
  101OSM    C6F10234   2.457   3.737   9.956 -1.7766  0.4141  0.6788
  101OSM    H6F10235   2.533   3.754   9.876  1.1939 -0.9940  3.0307
  101OSM    H6G10236   2.460   3.821  10.028 -0.9296  1.5863 -0.6619
  101OSM    C7F10237   2.326   3.702   9.890 -0.2295  0.4872 -0.5171
  101OSM    H7F10238   2.253   3.665   9.965  0.9160 -1.3786 -0.2782
  101OSM    H7G10239   2.337   3.611   9.828  0.1368 -0.0965  0.3919
  101OSM    C8F10240   2.257   3.816   9.813  0.4348 -0.1525  0.5449
  101OSM    H8F10241   2.219   3.883   9.893  0.1610  0.6037 -0.2023
  101OSM    H8G10242   2.161   3.788   9.763  0.4939 -0.6353  0.6976
  101OSM    C9F10243   2.350   3.878   9.712 -0.0588 -0.2092  0.5883
  101OSM    H9F10244   2.396   3.971   9.750 -0.1789 -0.3782  1.1530
  101OSM   C10F10245   2.404   3.819   9.601  0.1189 -0.0997 -0.2194
  101OSM   H10F10246   2.481   3.859   9.533  0.9883 -0.7886  0.3519
  101OSM   C11F10247   2.363   3.680   9.556  0.3028  0.0080 -0.5445
  101OSM   H11F10248   2.266   3.652   9.602  0.1787  1.1871 -0.0506
  101OSM   H11G10249   2.435   3.605   9.595  0.3864  0.7606  0.7971
  101OSM   C12F10250   2.346   3.653   9.399 -1.0148 -0.3997 -0.2930
  101OSM   H12F10251   2.289   3.742   9.367 -2.4146 -0.9119  0.6600
  101OSM   H12G10252   2.286   3.562   9.379  1.3037 -2.2916  0.8363
  101OSM   C13F10253   2.474   3.653   9.317  0.2598  0.4252 -0.5758
  101OSM   H13F10254   2.538   3.578   9.368  1.3705  1.1641 -0.8516
  101OSM   H13G10255   2.535   3.745   9.322  1.1914 -0.2313  1.2244
  101OSM   C14F10256   2.455   3.621   9.165 -0.1063 -0.6257 -0.1983
  101OSM   H14F10257   2.429   3.720   9.122  1.9440  0.2706  0.4841
  101OSM   H14G10258   2.375   3.546   9.149 -1.3447  0.4326  0.8177
  101OSM   C15F10259   2.581   3.573   9.097 -0.0809 -0.3901  0.2907
  101OSM   H15F10260   2.616   3.483   9.151  2.2596 -0.0045 -0.4623
  101OSM   H15G10261   2.661   3.651   9.100  0.2088  0.0064 -5.3532
  101OSM   C16F10262   2.546   3.516   8.954  0.0571 -0.0450  0.9092
  101OSM   H16F10263   2.533   3.594   8.876 -0.8749 -0.4276  0.6750
  101OSM   H16G10264   2.455   3.453   8.956 -0.6954  0.9980  3.6164
  101OSM   C17F10265   2.659   3.413   8.915  0.7995  0.8580 -0.8344
  101OSM   H17F10266   2.664   3.326   8.985  0.0548  1.6738  0.2727
  101OSM   H17G10267   2.759   3.459   8.928  0.1660  2.4996 -1.5253
  101OSM   C18F10268   2.653   3.346   8.780 -0.2862 -0.4854  0.0971
  101OSM   H18F10269   2.553   3.298   8.777 -1.1315  1.2172 -0.6536
  101OSM   H18G10270   2.735   3.274   8.760  1.8131  1.6636  0.4862
  101OSM   H18H10271   2.660   3.419   8.696  1.3169 -0.9321 -0.1976
  102OSM      N10272   2.440   3.468  10.718  0.0894 -0.2275 -0.5882
  102OSM    C1510273   2.495   3.598  10.658 -0.0060  0.7919 -0.0613
  102OSM   H15A10274   2.421   3.660  10.609  1.4578  4.0207  1.5261
  102OSM   H15B10275   2.573   3.583  10.584 -0.2205  2.9539 -0.7822
  102OSM   H15C10276   2.536   3.663  10.733  0.8896 -1.0559  1.1163
  102OSM    C1410277   2.552   3.392  10.785  0.8493 -0.5984 -0.0650
  102OSM   H14A10278   2.622   3.352  10.713  2.0530  3.2124 -1.2675
  102OSM   H14B10279   2.504   3.316  10.846 -0.8502  1.4473  1.2998
  102OSM   H14C10280   2.615   3.451  10.849 -0.5581 -2.6915  3.5200
  102OSM    C1310281   2.334   3.507  10.826 -0.7413  0.0400 -1.1517
  102OSM   H13A10282   2.293   3.418  10.872 -1.0364  0.6820 -0.1415
  102OSM   H13B10283   2.247   3.546  10.775 -2.1888 -0.2115  0.9855
  102OSM   H13C10284   2.374   3.567  10.906 -3.6813 -1.2932  1.5726
  102OSM    C1210285   2.370   3.379  10.621 -0.2973  0.3295 -0.3568
  102OSM   H12A10286   2.435   3.368  10.535 -0.8268 -0.3354 -0.6851
  102OSM   H12B10287   2.284   3.439  10.592 -0.9354  0.3292  1.3998
  102OSM    C1110288   2.319   3.239  10.669  0.3246 -0.2294 -0.5719
  102OSM   H11A10289   2.405   3.175  10.699 -0.5006 -1.3383 -0.4857
  102OSM   H11B10290   2.281   3.176  10.585 -2.1452  1.0441 -0.4855
  102OSM      P10291   2.076   3.264  10.742  0.7955 -0.0529  0.2720
  102OSM    O1310292   2.009   3.132  10.749  0.3114  0.1802 -0.1317
  102OSM    O1410293   2.013   3.361  10.834 -0.6255  0.4349  0.3627
  102OSM    O1110294   2.068   3.308  10.591  0.2840 -0.5668  0.5343
  102OSM    O1210295   2.227   3.253  10.779 -0.2367  0.5794  0.4011
  102OSM    C1S10296   1.947   3.312  10.518  0.0119  0.6822  0.1757
  102OSM    H1S10297   1.873   3.364  10.582  0.4937  1.2456  0.2837
  102OSM    H1T10298   1.921   3.205  10.503  2.9602 -0.7359  3.6663
  102OSM     NF10299   1.844   3.417  10.319 -0.4724  0.3474  0.1007
  102OSM    HNF10300   1.802   3.359  10.249 -3.5949  1.6391  0.7240
  102OSM    C2S10301   1.974   3.387  10.386 -0.2670  0.5172 -0.5152
  102OSM    H2S10302   2.030   3.482  10.400 -0.8385  0.9179 -0.9031
  102OSM    C3S10303   2.062   3.291  10.297  0.3947 -0.0717 -0.8066
  102OSM    H3S10304   2.016   3.190  10.290  4.6403 -2.4871  1.5069
  102OSM     O310305   2.193   3.257  10.349  0.7177  0.1497 -0.1447
  102OSM    HO310306   2.185   3.281  10.441 -0.5364  0.3607 -0.2890
  102OSM    C4S10307   2.084   3.359  10.170 -0.9581  0.3707  0.3588
  102OSM    H4S10308   2.148   3.449  10.176 -3.5387  2.3639 -0.0347
  102OSM    C5S10309   2.046   3.313  10.045 -0.4476  0.3966  0.4414
  102OSM    H5S10310   2.003   3.213  10.031  1.4284 -0.2233 -1.4195
  102OSM    C6S10311   2.068   3.384   9.910 -0.4850  0.3791  0.3566
  102OSM    H6S10312   2.119   3.316   9.839 -0.3395  1.4431 -0.5849
  102OSM    H6T10313   2.147   3.461   9.923  1.0998 -1.0384 -0.4437
  102OSM    C7S10314   1.940   3.425   9.835 -0.5638  0.3181 -0.1121
  102OSM    H7S10315   1.869   3.468   9.910 -2.3076 -0.2171 -1.3945
  102OSM    H7T10316   1.883   3.336   9.801 -2.3406  0.6923  1.6728
  102OSM    C8S10317   1.959   3.519   9.715 -0.4026  0.0824 -0.6241
  102OSM    H8S10318   2.035   3.597   9.739  0.6538 -0.3550 -2.3088
  102OSM    H8T10319   1.861   3.569   9.709 -0.1278  0.6931 -0.1437
  102OSM    C9S10320   1.989   3.450   9.580 -0.3965 -0.4271 -0.0023
  102OSM    H9S10321   1.908   3.378   9.561 -1.1652  0.7359 -1.3918
  102OSM    H9T10322   2.091   3.407   9.573 -0.7279 -1.7869  2.5157
  102OSM   C10S10323   1.988   3.551   9.458  0.6140  0.9290  0.7183
  102OSM   H10S10324   2.080   3.612   9.472  2.2095 -1.0986 -0.2004
  102OSM   H10T10325   1.897   3.614   9.459 -1.8466 -2.3867  0.8060
  102OSM   C11S10326   2.003   3.475   9.317 -0.1536 -0.0655  0.6787
  102OSM   H11S10327   1.911   3.416   9.296 -0.1634  0.2696 -0.2795
  102OSM   H11T10328   2.092   3.409   9.321 -0.3103 -0.6146 -2.4553
  102OSM   C12S10329   2.026   3.567   9.191  0.3957 -0.3148 -0.2182
  102OSM   H12S10330   2.099   3.648   9.210 -1.2732  1.5301 -1.2783
  102OSM   H12T10331   1.929   3.620   9.176  0.4920 -0.1922 -0.4116
  102OSM   C13S10332   2.061   3.497   9.059 -0.1777  0.0600  0.6626
  102OSM   H13S10333   1.984   3.423   9.028 -1.3756  1.5050  0.0507
  102OSM   H13T10334   2.160   3.448   9.071 -0.5391 -0.3904  2.0985
  102OSM   C14S10335   2.061   3.599   8.938 -0.1324  0.0359 -0.4262
  102OSM   H14S10336   2.099   3.697   8.973 -0.0376 -0.7236  1.7783
  102OSM   H14T10337   1.956   3.616   8.906 -0.0695 -0.3087 -0.8279
  102OSM   C15S10338   2.140   3.556   8.812 -0.4597  0.0081  0.4285
  102OSM   H15S10339   2.133   3.446   8.801 -2.4543  0.1833 -0.6370
  102OSM   H15T10340   2.247   3.584   8.801 -0.2633 -0.1764  1.7686
  102OSM   C16S10341   2.065   3.600   8.686 -0.0048  0.4154 -0.6836
  102OSM   H16S10342   1.966   3.552   8.674 -1.2353  2.9211 -1.1820
  102OSM   H16T10343   2.128   3.562   8.603 -1.0820 -0.3481 -1.1751
  102OSM   C17S10344   2.053   3.754   8.672  0.3231  0.6968  0.5780
  102OSM   H17S10345   2.152   3.793   8.700  0.9924  0.7350 -1.6272
  102OSM   H17T10346   1.976   3.797   8.739 -2.0924  2.3654 -2.9421
  102OSM   C18S10347   2.020   3.798   8.529  0.9027 -0.8032  0.1045
  102OSM   H18S10348   2.022   3.909   8.522  1.2162 -0.8375 -0.4060
  102OSM   H18T10349   1.914   3.769   8.510  0.1480  2.6800 -1.9953
  102OSM   H18U10350   2.084   3.751   8.451  2.5950  2.6246 -0.7666
  102OSM    C1F10351   1.755   3.498  10.367 -0.1109  0.1722  1.1698
  102OSM     OF10352   1.772   3.556  10.474  0.2521 -0.0921  0.1084
  102OSM    C2F10353   1.629   3.505  10.278  0.3471 -0.4089  0.5569
  102OSM    H2F10354   1.566   3.566  10.347 -0.2664  0.0293 -0.3680
  102OSM    H2G10355   1.591   3.403  10.260 -2.4311  0.0577  2.9948
  102OSM    C3F10356   1.631   3.607  10.158  0.0999  0.0824 -1.1199
  102OSM    H3F10357   1.697   3.576  10.075  1.7459 -2.3945  0.9681
  102OSM    H3G10358   1.670   3.705  10.194  2.7187 -2.0222  2.4280
  102OSM    C4F10359   1.485   3.616  10.089  0.1591  0.5657 -0.3557
  102OSM    H4F10360   1.411   3.590  10.167  1.1095  0.2145  0.4586
  102OSM    H4G10361   1.479   3.529  10.020  1.6664  1.8380 -2.1976
  102OSM    C5F10362   1.470   3.747  10.020  0.3046  0.7402  0.2530
  102OSM    H5F10363   1.543   3.757   9.937  1.2120 -0.4859  0.8719
  102OSM    H5G10364   1.486   3.825  10.097 -1.5837 -1.2494  2.8172
  102OSM    C6F10365   1.328   3.754   9.951  0.3914  0.4806  0.0824
  102OSM    H6F10366   1.305   3.859   9.924 -1.7054  0.2656  0.8828
  102OSM    H6G10367   1.257   3.717  10.027  1.3190 -0.9423  0.2973
  102OSM    C7F10368   1.310   3.684   9.820  0.0117 -0.1514 -0.3844
  102OSM    H7F10369   1.359   3.585   9.835  1.7968  0.6869 -0.3470
  102OSM    H7G10370   1.362   3.730   9.733 -1.1981  1.5174 -0.2696
  102OSM    C8F10371   1.162   3.669   9.776 -0.4028  0.6689 -0.5301
  102OSM    H8F10372   1.122   3.771   9.761  3.3455  2.3741  0.0189
  102OSM    H8G10373   1.113   3.623   9.865  0.5499  2.2389  0.8495
  102OSM    C9F10374   1.145   3.575   9.663 -0.0855  0.4725  0.1979
  102OSM    H9F10375   1.186   3.476   9.687 -0.1092  0.2497 -0.6323
  102OSM   C10F10376   1.094   3.605   9.546 -0.2801 -0.0706  0.0033
  102OSM   H10F10377   1.090   3.535   9.462 -0.8179  1.4178 -1.2722
  102OSM   C11F10378   1.033   3.742   9.509 -0.0997  0.2383 -0.1562
  102OSM   H11F10379   0.999   3.784   9.607  1.3584  0.6047  0.2209
  102OSM   H11G10380   0.956   3.747   9.430 -0.0641  2.5947 -0.1235
  102OSM   C12F10381   1.138   3.842   9.453  0.3923 -0.1002 -0.0118
  102OSM   H12F10382   1.142   3.819   9.344  0.7956  0.5700 -0.1401
  102OSM   H12G10383   1.238   3.834   9.500  0.2517  0.3251  0.3619
  102OSM   C13F10384   1.088   3.987   9.467 -0.2420  0.0851 -0.0150
  102OSM   H13F10385   1.046   3.990   9.570 -2.7729 -0.1110 -0.9695
  102OSM   H13G10386   0.995   3.999   9.407  0.8741  0.2828 -1.7708
  102OSM   C14F10387   1.194   4.096   9.451  0.3639 -0.5956 -0.1736
  102OSM   H14F10388   1.266   4.085   9.534 -1.4094 -0.3658  1.4637
  102OSM   H14G10389   1.146   4.194   9.468 -1.2194 -1.5744  1.3044
  102OSM   C15F10390   1.265   4.092   9.316  0.6120  0.0508 -1.0039
  102OSM   H15F10391   1.190   4.100   9.234 -0.4130 -1.0990 -0.2112
  102OSM   H15G10392   1.310   3.992   9.301 -1.1773 -1.0903  0.7751
  102OSM   C16F10393   1.369   4.205   9.295 -0.4233 -0.4931  1.3028
  102OSM   H16F10394   1.452   4.200   9.369  1.3941 -1.0635 -0.6634
  102OSM   H16G10395   1.317   4.302   9.306 -0.3264 -0.2438 -0.2257
  102OSM   C17F10396   1.426   4.199   9.150 -0.0936 -0.0213  0.3883
  102OSM   H17F10397   1.444   4.305   9.124 -0.3739 -0.2981 -1.0268
  102OSM   H17G10398   1.346   4.158   9.085  0.5140  2.3644 -2.0372
  102OSM   C18F10399   1.555   4.126   9.135 -0.4427  0.1623 -0.2500
  102OSM   H18F10400   1.633   4.173   9.199  1.0905 -1.7662 -0.5858
  102OSM   H18G10401   1.609   4.136   9.038 -1.9962 -2.0766 -1.4469
  102OSM   H18H10402   1.558   4.026   9.184 -2.5561  1.3954  2.6523
  103OSM      N10403   3.258   5.926  10.939  0.1344 -0.2106  0.4091
  103OSM    C1510404   3.391   5.902  10.886  0.3067 -0.1516 -0.1305
  103OSM   H15A10405   3.405   5.931  10.783  2.0274 -1.2128 -0.2306
  103OSM   H15B10406   3.412   5.796  10.886  1.7588  0.1138 -1.0657
  103OSM   H15C10407   3.465   5.957  10.943  0.2207  0.5419 -0.6646
  103OSM    C1410408   3.234   6.075  10.960  0.1149 -0.7175 -0.6748
  103OSM   H14A10409   3.136   6.083  11.006 -0.5979 -0.9585 -2.0761
  103OSM   H14B10410   3.238   6.131  10.867  0.8634 -0.3326 -0.4186
  103OSM   H14C10411   3.312   6.121  11.018 -0.9920  0.0730  0.2452
  103OSM    C1310412   3.156   5.873  10.850  0.2925  0.1627  0.3564
  103OSM   H13A10413   3.182   5.771  10.824  0.1321  0.0822  0.5099
  103OSM   H13B10414   3.141   5.929  10.759 -0.0652  0.3078  0.5041
  103OSM   H13C10415   3.064   5.873  10.907  0.4981 -0.7503  0.7016
  103OSM    C1210416   3.248   5.864  11.083  0.0623  0.4060  0.1309
  103OSM   H12A10417   3.144   5.878  11.109  0.0321  1.3139 -0.4553
  103OSM   H12B10418   3.302   5.926  11.152  1.6110 -2.0969  1.3369
  103OSM    C1110419   3.279   5.717  11.108  0.4521 -0.1710 -0.2070
  103OSM   H11A10420   3.207   5.660  11.047 -2.4549  1.0609  1.8614
  103OSM   H11B10421   3.261   5.687  11.213 -3.2583  0.5900 -0.5139
  103OSM      P10422   3.469   5.536  11.122 -0.2290 -0.4019 -0.1041
  103OSM    O1310423   3.610   5.545  11.166  0.4849  0.4762 -0.4525
  103OSM    O1410424   3.377   5.472  11.218 -0.4683 -0.1040  0.7524
  103OSM    O1110425   3.470   5.448  10.984 -0.2727 -0.3304 -0.4057
  103OSM    O1210426   3.415   5.681  11.074  0.6343 -0.5179  0.1379
  103OSM    C1S10427   3.394   5.495  10.876  0.1439  0.9844 -0.3063
  103OSM    H1S10428   3.444   5.586  10.835 -2.1306  1.9190 -1.1917
  103OSM    H1T10429   3.289   5.518  10.902 -0.1083 -0.1786 -0.2820
  103OSM     NF10430   3.331   5.452  10.638 -0.8964  0.0992  0.1497
  103OSM    HNF10431   3.233   5.436  10.644 -0.8100  0.0563  2.0469
  103OSM    C2S10432   3.404   5.394  10.754 -0.4252 -0.4144 -0.4163
  103OSM    H2S10433   3.510   5.372  10.728 -0.1727 -1.2228  1.2332
  103OSM    C3S10434   3.344   5.253  10.788  0.3361  0.5509  0.1516
  103OSM    H3S10435   3.235   5.266  10.808  0.2233 -1.6010  1.1429
  103OSM     O310436   3.401   5.182  10.902 -0.4839 -0.0673  0.6348
  103OSM    HO310437   3.449   5.248  10.952 -0.8138  2.8094 -2.4833
  103OSM    C4S10438   3.348   5.157  10.666 -0.0876 -0.4938 -0.4108
  103OSM    H4S10439   3.256   5.154  10.606  0.2802  0.7418 -1.0737
  103OSM    C5S10440   3.448   5.073  10.637 -0.2580  0.3644 -0.2248
  103OSM    H5S10441   3.539   5.077  10.698 -0.1963 -1.1231 -0.1856
  103OSM    C6S10442   3.461   4.984  10.517 -0.0048 -0.4226 -0.0341
  103OSM    H6S10443   3.460   4.880  10.555  2.0943 -0.0358  1.2374
  103OSM    H6T10444   3.558   4.987  10.463  0.7113  1.8877  1.2318
  103OSM    C7S10445   3.350   4.984  10.413 -0.3409 -0.6061  0.8515
  103OSM    H7S10446   3.328   5.088  10.380 -0.3956 -0.7082  0.5614
  103OSM    H7T10447   3.253   4.952  10.457  0.5939 -1.2452  2.5384
  103OSM    C8S10448   3.367   4.902  10.282  0.5750 -0.2359  0.1056
  103OSM    H8S10449   3.357   4.796  10.311  1.4001  0.1505  2.0136
  103OSM    H8T10450   3.464   4.925  10.232 -0.5843  0.7655 -1.8040
  103OSM    C9S10451   3.257   4.923  10.178  0.3348  0.0496 -0.4241
  103OSM    H9S10452   3.264   5.031  10.152 -0.5601  0.2556  0.1229
  103OSM    H9T10453   3.155   4.913  10.222 -0.1211 -0.0803 -1.4693
  103OSM   C10S10454   3.279   4.827  10.058  0.2134 -0.7241 -0.8945
  103OSM   H10S10455   3.246   4.726  10.090 -1.2397 -0.1613 -0.5211
  103OSM   H10T10456   3.388   4.822  10.041  0.3622 -0.5677 -0.0327
  103OSM   C11S10457   3.198   4.853   9.927 -0.7690 -0.4487 -0.1007
  103OSM   H11S10458   3.217   4.959   9.898 -0.5552  0.3058  2.5280
  103OSM   H11T10459   3.095   4.823   9.954 -0.9561  0.2734  0.0018
  103OSM   C12S10460   3.246   4.767   9.807  1.3095 -0.3104 -0.1932
  103OSM   H12S10461   3.159   4.763   9.738  0.0195  4.9169  0.6876
  103OSM   H12T10462   3.261   4.661   9.837 -1.9336 -1.1960 -1.2912
  103OSM   C13S10463   3.373   4.806   9.734  0.4416  0.1708 -1.1397
  103OSM   H13S10464   3.408   4.715   9.681  1.8211  0.2511 -0.4222
  103OSM   H13T10465   3.459   4.853   9.786  0.7724 -1.9184  0.3251
  103OSM   C14S10466   3.338   4.919   9.630 -0.3943 -0.2495 -0.3052
  103OSM   H14S10467   3.430   4.964   9.587 -0.7269  0.0274 -0.7349
  103OSM   H14T10468   3.292   4.999   9.692 -1.6954  0.1773 -1.7619
  103OSM   C15S10469   3.242   4.890   9.512  0.8582  0.3175  0.3386
  103OSM   H15S10470   3.196   4.982   9.473  0.8616  0.0725 -0.2569
  103OSM   H15T10471   3.156   4.828   9.546 -0.1893  1.7838  0.4468
  103OSM   C16S10472   3.307   4.812   9.391  0.7460 -0.0239  0.5183
  103OSM   H16S10473   3.334   4.712   9.429 -0.8558 -0.8714 -0.4693
  103OSM   H16T10474   3.392   4.868   9.347  1.6186 -1.3972  0.4369
  103OSM   C17S10475   3.202   4.784   9.280  0.6021  0.1665 -0.7094
  103OSM   H17S10476   3.151   4.880   9.257 -1.2933 -1.0518 -1.9388
  103OSM   H17T10477   3.123   4.718   9.323  0.2935  0.4647 -0.8116
  103OSM   C18S10478   3.257   4.724   9.155 -0.0549  0.0994  0.3884
  103OSM   H18S10479   3.172   4.715   9.084 -2.6365  1.1640  3.1886
  103OSM   H18T10480   3.294   4.621   9.172  0.4134  0.1340 -0.3297
  103OSM   H18U10481   3.335   4.784   9.103  1.1224 -0.3457  1.5858
  103OSM    C1F10482   3.367   5.544  10.545 -0.7613 -0.3838  0.3213
  103OSM     OF10483   3.482   5.597  10.551  0.3790  0.2290  0.4117
  103OSM    C2F10484   3.279   5.571  10.421 -1.1010 -0.2915  0.4321
  103OSM    H2F10485   3.178   5.599  10.458 -2.0996 -2.4619 -0.4178
  103OSM    H2G10486   3.258   5.475  10.368  2.1364 -0.2565 -1.1398
  103OSM    C3F10487   3.346   5.669  10.325  0.5376 -0.2423  0.2129
  103OSM    H3F10488   3.449   5.628  10.310  1.5273  2.4090 -0.7900
  103OSM    H3G10489   3.369   5.766  10.374  1.7098 -0.2828 -0.2150
  103OSM    C4F10490   3.275   5.680  10.186  1.2149 -0.3531  0.0815
  103OSM    H4F10491   3.249   5.580  10.145  0.5500 -0.2677  0.2900
  103OSM    H4G10492   3.344   5.722  10.109 -0.7670  3.2078  0.0159
  103OSM    C5F10493   3.158   5.772  10.198  0.8693  0.0587  0.6234
  103OSM    H5F10494   3.199   5.875  10.199 -1.2379  0.9717 -0.1034
  103OSM    H5G10495   3.110   5.760  10.297 -0.7180  0.3717 -0.0560
  103OSM    C6F10496   3.048   5.748  10.094 -0.0362  0.9038  0.5458
  103OSM    H6F10497   3.002   5.650  10.118  2.2623 -0.4704 -0.3516
  103OSM    H6G10498   3.103   5.738   9.998  1.7870 -1.5969  1.7297
  103OSM    C7F10499   2.947   5.856  10.079  0.5284  0.4200  0.2684
  103OSM    H7F10500   2.898   5.854   9.979 -2.6794 -0.8035  1.7281
  103OSM    H7G10501   3.013   5.944  10.089  3.1375 -1.3181 -0.6266
  103OSM    C8F10502   2.837   5.853  10.181  0.0832  0.4617  0.1764
  103OSM    H8F10503   2.788   5.952  10.175 -0.8958 -0.0674 -0.9918
  103OSM    H8G10504   2.875   5.844  10.285 -0.1681  1.0810  0.3259
  103OSM    C9F10505   2.733   5.747  10.147 -0.5670  0.4463  0.3541
  103OSM    H9F10506   2.735   5.666  10.222 -0.7206  2.0823  2.1860
  103OSM   C10F10507   2.635   5.735  10.054  0.3301 -0.3370 -0.3949
  103OSM   H10F10508   2.563   5.653  10.046  1.8480 -1.5264 -3.1100
  103OSM   C11F10509   2.607   5.840   9.955 -0.0650 -0.6789  0.0500
  103OSM   H11F10510   2.671   5.928   9.980 -2.7300  1.1179  1.0178
  103OSM   H11G10511   2.502   5.874   9.957 -0.2758 -1.3254  0.0589
  103OSM   C12F10512   2.641   5.784   9.813  0.4923  0.0605 -0.1570
  103OSM   H12F10513   2.564   5.712   9.777  1.3626 -1.2105  0.4388
  103OSM   H12G10514   2.737   5.731   9.797 -0.7994 -2.1501 -1.2337
  103OSM   C13F10515   2.657   5.895   9.712  0.3647 -0.4016  0.3752
  103OSM   H13F10516   2.583   5.977   9.724  1.9578  1.3152 -0.9365
  103OSM   H13G10517   2.759   5.937   9.730 -0.1358 -0.0144  2.7287
  103OSM   C14F10518   2.626   5.851   9.565 -0.1202 -0.0783 -0.8145
  103OSM   H14F10519   2.516   5.836   9.557 -0.7433  2.1837  2.0651
  103OSM   H14G10520   2.665   5.747   9.555  0.4279  0.0786 -0.3202
  103OSM   C15F10521   2.686   5.950   9.473 -0.5402  0.2015  0.1581
  103OSM   H15F10522   2.795   5.965   9.491 -0.5337  1.5760 -0.8604
  103OSM   H15G10523   2.640   6.051   9.485 -1.8833 -0.0909 -1.9094
  103OSM   C16F10524   2.660   5.925   9.322 -0.2340  0.0048 -0.5866
  103OSM   H16F10525   2.550   5.907   9.318 -0.1786 -0.5278 -0.0296
  103OSM   H16G10526   2.705   5.823   9.316 -1.0066 -0.4321  0.5620
  103OSM   C17F10527   2.714   6.035   9.232  0.7809 -0.2000  0.9058
  103OSM   H17F10528   2.819   6.063   9.257  0.8029  0.6853 -0.1318
  103OSM   H17G10529   2.659   6.131   9.231  0.7941 -0.1940 -0.3573
  103OSM   C18F10530   2.715   5.992   9.076  0.0344 -0.6870 -0.3886
  103OSM   H18F10531   2.767   6.069   9.016  1.1939 -2.8906 -2.3470
  103OSM   H18G10532   2.615   5.975   9.030 -0.4386 -0.0323  0.3729
  103OSM   H18H10533   2.774   5.898   9.066  2.5641  0.7912 -0.0604
  104OSM      N10534   0.193   0.851  10.907 -0.2566  0.2107 -0.5849
  104OSM    C1510535   0.248   0.901  11.031 -0.3234 -0.7732  0.2879
  104OSM   H15A10536   0.186   0.976  11.077 -2.6268 -0.5613 -2.8111
  104OSM   H15B10537   0.353   0.922  11.020 -0.5424  0.6033  0.5943
  104OSM   H15C10538   0.234   0.825  11.106 -0.8719 -1.5154 -0.5398
  104OSM    C1410539   0.055   0.805  10.928  0.0028 -0.0767 -0.0444
  104OSM   H14A10540   0.030   0.752  11.019 -2.1881  1.1853  0.1517
  104OSM   H14B10541   0.027   0.753  10.838  0.6643  0.0661 -0.3383
  104OSM   H14C10542  -0.011   0.889  10.942 -1.6741 -1.3802  0.3316
  104OSM    C1310543   0.194   0.961  10.811  0.5746  0.1094  0.7527
  104OSM   H13A10544   0.135   0.935  10.724 -0.7644  0.2998  1.5780
  104OSM   H13B10545   0.294   0.993  10.785 -0.3776  1.0086 -2.0953
  104OSM   H13C10546   0.137   1.039  10.859  0.9258  0.0767  1.2444
  104OSM    C1210547   0.272   0.727  10.865 -1.0317  1.1450  0.6506
  104OSM   H12A10548   0.275   0.656  10.946 -2.1645  1.9833  1.4524
  104OSM   H12B10549   0.377   0.753  10.861 -0.4709 -0.7888  1.5240
  104OSM    C1110550   0.220   0.652  10.744  0.5352  0.2725  0.3992
  104OSM   H11A10551   0.302   0.581  10.718 -2.1261 -2.9380  0.1310
  104OSM   H11B10552   0.192   0.702  10.649  2.6662 -0.5758 -0.7551
  104OSM      P10553   0.124   0.431  10.862  0.5204 -0.2649  0.1293
  104OSM    O1310554   0.255   0.424  10.921 -0.7671 -0.8754 -0.2709
  104OSM    O1410555   0.006   0.426  10.957 -0.5784 -0.4940  0.2968
  104OSM    O1110556   0.103   0.313  10.748  0.3545  0.4328  0.4500
  104OSM    O1210557   0.118   0.552  10.769 -0.7770 -0.0679  0.4212
  104OSM    C1S10558   0.003   0.335  10.650 -0.0376 -0.2833  0.3999
  104OSM    H1S10559  -0.011   0.437  10.608  0.2324 -0.0827  0.7889
  104OSM    H1T10560  -0.102   0.320  10.685 -0.7936  1.0599 -1.1089
  104OSM     NF10561  -0.079   0.273  10.422  0.1567 -0.2027 -0.5458
  104OSM    HNF10562  -0.167   0.227  10.435 -0.2283  0.1513 -1.7117
  104OSM    C2S10563   0.011   0.237  10.533 -0.4318 -0.5145 -0.0757
  104OSM    H2S10564   0.111   0.257  10.488 -0.1872 -0.9943  0.2433
  104OSM    C3S10565  -0.007   0.094  10.594 -0.4104 -0.1800  0.8911
  104OSM    H3S10566  -0.110   0.090  10.635 -0.9569 -0.4895 -0.4545
  104OSM     O310567   0.084   0.064  10.701 -0.4707  0.4748 -0.3145
  104OSM    HO310568   0.087   0.147  10.748 -1.8541 -0.0092  0.6856
  104OSM    C4S10569   0.002  -0.007  10.486  0.1357  0.2311 -0.0076
  104OSM    H4S10570  -0.091  -0.037  10.436  0.2366 -0.6398  0.3164
  104OSM    C5S10571   0.122  -0.073  10.463  0.4941  0.2232 -0.2118
  104OSM    H5S10572   0.215  -0.044  10.515  0.0212  0.5995  0.4489
  104OSM    C6S10573   0.121  -0.185  10.364 -0.0824 -0.5109  0.5032
  104OSM    H6S10574   0.019  -0.225  10.347 -1.4065  2.4869  0.7463
  104OSM    H6T10575   0.185  -0.260  10.416 -0.3029  0.4863  2.3110
  104OSM    C7S10576   0.196  -0.163  10.227  0.2030 -0.0942 -0.3510
  104OSM    H7S10577   0.295  -0.117  10.245 -0.6766  1.6683  0.2501
  104OSM    H7T10578   0.137  -0.084  10.174 -2.8543 -2.5376 -0.9043
  104OSM    C8S10579   0.175  -0.292  10.145 -0.1757 -0.0387 -0.1876
  104OSM    H8S10580   0.065  -0.309  10.133 -0.2611  0.5464 -0.2557
  104OSM    H8T10581   0.226  -0.379  10.193  0.8448  1.9661  2.5967
  104OSM    C9S10582   0.217  -0.273  10.003 -0.0826 -0.0229 -0.8093
  104OSM    H9S10583   0.327  -0.257   9.998 -0.0263  0.1415  0.5594
  104OSM    H9T10584   0.170  -0.181   9.961  0.7840  0.1964 -1.3321
  104OSM   C10S10585   0.176  -0.390   9.909 -0.5314 -0.5792 -0.1865
  104OSM   H10S10586   0.065  -0.389   9.898 -0.8130  1.4822  2.0568
  104OSM   H10T10587   0.213  -0.484   9.955 -0.0546  0.1767  1.0376
  104OSM   C11S10588   0.216  -0.375   9.760 -0.0934  0.3896 -0.0614
  104OSM   H11S10589   0.172  -0.457   9.699  1.7159 -0.2862 -0.5124
  104OSM   H11T10590   0.326  -0.391   9.755  0.0585  0.2014  2.5356
  104OSM   C12S10591   0.162  -0.243   9.698 -0.0610  0.6847 -0.1290
  104OSM   H12S10592   0.212  -0.155   9.744  0.9130 -0.5497  1.2691
  104OSM   H12T10593   0.059  -0.236   9.740  0.0494  1.2968  0.0494
  104OSM   C13S10594   0.162  -0.234   9.544  0.6031  0.1896  0.6093
  104OSM   H13S10595   0.115  -0.134   9.527  3.3058  1.7478  1.7858
  104OSM   H13T10596   0.090  -0.311   9.508  0.4748 -1.0814  3.3672
  104OSM   C14S10597   0.294  -0.249   9.477 -0.5294  0.1589 -0.8142
  104OSM   H14S10598   0.335  -0.350   9.501  2.0006  0.9795 -1.3108
  104OSM   H14T10599   0.364  -0.174   9.519  0.2074  0.1750 -2.0181
  104OSM   C15S10600   0.286  -0.234   9.327 -0.3515 -0.2675  0.5967
  104OSM   H15S10601   0.392  -0.231   9.296 -0.7624  1.5295 -0.8071
  104OSM   H15T10602   0.243  -0.138   9.292 -0.9768 -0.5369  0.6101
  104OSM   C16S10603   0.208  -0.345   9.251 -0.6547  0.1867 -0.5895
  104OSM   H16S10604   0.103  -0.331   9.282 -0.3812  1.0917 -0.0123
  104OSM   H16T10605   0.243  -0.447   9.278 -0.9314  0.4077  0.6401
  104OSM   C17S10606   0.233  -0.323   9.098  0.2918 -0.0856 -0.6565
  104OSM   H17S10607   0.195  -0.223   9.070  0.9327  0.1980 -0.5442
  104OSM   H17T10608   0.163  -0.383   9.035  0.3119  0.0065 -0.7677
  104OSM   C18S10609   0.377  -0.336   9.055  0.2473  0.0008 -0.1729
  104OSM   H18S10610   0.417  -0.434   9.088 -1.5406 -1.1454 -1.2600
  104OSM   H18T10611   0.438  -0.255   9.101  0.0899 -0.2702  0.5168
  104OSM   H18U10612   0.389  -0.320   8.945 -0.5874  1.5129 -0.0662
  104OSM    C1F10613  -0.074   0.379  10.336  1.0300 -0.0984 -0.8772
  104OSM     OF10614   0.012   0.464  10.354 -0.0313  0.1267  0.1385
  104OSM    C2F10615  -0.189   0.393  10.247 -0.7045 -0.0349  0.0269
  104OSM    H2F10616  -0.282   0.428  10.296 -1.5857 -1.9110 -0.2183
  104OSM    H2G10617  -0.211   0.290  10.213 -0.1533 -0.8493  2.0233
  104OSM    C3F10618  -0.153   0.487  10.132 -0.9072  0.2471  0.0669
  104OSM    H3F10619  -0.066   0.444  10.078 -1.4509  1.6908 -2.0679
  104OSM    H3G10620  -0.115   0.589  10.155  1.7119 -0.2482 -1.6123
  104OSM    C4F10621  -0.269   0.498  10.038 -0.1162  0.5271  0.5334
  104OSM    H4F10622  -0.340   0.574  10.077 -2.1240 -0.8838 -0.2189
  104OSM    H4G10623  -0.329   0.405  10.035 -1.7535  1.4404  2.5937
  104OSM    C5F10624  -0.238   0.510   9.894  0.4423 -0.1343  0.6263
  104OSM    H5F10625  -0.335   0.483   9.847  0.2057  0.4709  0.7491
  104OSM    H5G10626  -0.168   0.428   9.870  3.0175  1.1852  3.0792
  104OSM    C6F10627  -0.184   0.646   9.846  0.3185  0.3999  0.1550
  104OSM    H6F10628  -0.091   0.667   9.902  0.2441  0.6981  0.1654
  104OSM    H6G10629  -0.262   0.724   9.861 -1.2006 -0.6631 -1.6775
  104OSM    C7F10630  -0.136   0.649   9.701 -0.0023  0.5334  0.3343
  104OSM    H7F10631  -0.228   0.625   9.643 -0.7109 -0.7304  1.8939
  104OSM    H7G10632  -0.069   0.561   9.693  0.0439  0.6422 -0.5360
  104OSM    C8F10633  -0.062   0.773   9.664 -0.4344  0.0253 -0.4348
  104OSM    H8F10634  -0.048   0.764   9.554 -1.7045 -2.7239 -0.4472
  104OSM    H8G10635   0.034   0.758   9.719 -0.1700 -1.5589 -1.2726
  104OSM    C9F10636  -0.132   0.903   9.694 -0.4170  0.0765 -0.2078
  104OSM    H9F10637  -0.109   0.934   9.797  2.0514  2.2015 -1.2931
  104OSM   C10F10638  -0.211   0.979   9.620 -0.9208 -0.4655  0.2064
  104OSM   H10F10639  -0.251   1.074   9.657  1.1168  0.5802 -0.1392
  104OSM   C11F10640  -0.240   0.929   9.477 -0.8086 -0.4696 -0.6078
  104OSM   H11F10641  -0.348   0.956   9.465 -0.7500  1.1206  1.7268
  104OSM   H11G10642  -0.228   0.821   9.455  0.7473 -0.8738  1.8595
  104OSM   C12F10643  -0.147   1.016   9.381  1.3859  0.1937 -0.2798
  104OSM   H12F10644  -0.040   0.991   9.395  0.8684 -1.6997  0.6504
  104OSM   H12G10645  -0.168   1.124   9.396  2.1289  0.1594  1.1166
  104OSM   C13F10646  -0.185   0.983   9.239  0.2208 -0.4575 -0.1925
  104OSM   H13F10647  -0.293   1.005   9.226 -0.1046 -0.7819  1.5957
  104OSM   H13G10648  -0.163   0.877   9.216  0.6601 -0.4912  0.3487
  104OSM   C14F10649  -0.119   1.073   9.128 -0.1175  0.3040  0.1916
  104OSM   H14F10650  -0.012   1.045   9.120 -0.8368 -2.4330 -1.1738
  104OSM   H14G10651  -0.124   1.181   9.153 -0.3686  0.2405  0.4180
  104OSM   C15F10652  -0.176   1.055   8.982  0.1790 -0.1586  0.2668
  104OSM   H15F10653  -0.285   1.072   8.990  0.4757  2.5143 -0.4055
  104OSM   H15G10654  -0.162   0.950   8.947 -1.8723  0.3826 -2.5254
  104OSM   C16F10655  -0.114   1.170   8.898 -0.3380 -0.6275  0.2766
  104OSM   H16F10656  -0.009   1.182   8.930 -0.1389 -2.0827  0.2373
  104OSM   H16G10657  -0.173   1.264   8.909 -0.0790 -0.3604 -0.5546
  104OSM   C17F10658  -0.102   1.149   8.748 -0.7374  0.0974 -0.1395
  104OSM   H17F10659  -0.045   1.053   8.748  1.9905  1.5480  1.9036
  104OSM   H17G10660  -0.049   1.231   8.695 -2.5127  0.9392 -0.6758
  104OSM   C18F10661  -0.241   1.137   8.685  0.0962 -0.4092  0.0769
  104OSM   H18F10662  -0.285   1.239   8.683  2.7783  0.8470  0.4036
  104OSM   H18G10663  -0.309   1.065   8.734 -2.2636  0.4758 -1.7059
  104OSM   H18H10664  -0.240   1.105   8.579  2.8131 -0.7433  0.1233
  105OSM      N10665   0.502   5.707  11.057  1.4885  0.4306  0.0368
  105OSM    C1510666   0.513   5.597  10.961  1.2275  0.0357  0.0699
  105OSM   H15A10667   0.431   5.600  10.892 -0.4241  1.7821  1.9901
  105OSM   H15B10668   0.495   5.500  11.007  0.8378 -0.1847 -0.5416
  105OSM   H15C10669   0.607   5.574  10.914  0.4376  0.2312 -1.6574
  105OSM    C1410670   0.596   5.667  11.163  0.2162  0.2410 -0.1361
  105OSM   H14A10671   0.691   5.672  11.112 -0.8210 -0.3670 -2.2289
  105OSM   H14B10672   0.583   5.562  11.181 -0.6500  0.4830  0.8025
  105OSM   H14C10673   0.583   5.717  11.258 -1.3124  0.8576 -0.6435
  105OSM    C1310674   0.554   5.833  10.997 -0.1188 -0.7832 -0.7137
  105OSM   H13A10675   0.652   5.806  10.961  0.7714  0.2644  0.8450
  105OSM   H13B10676   0.571   5.907  11.073  0.5666 -2.4475  0.8240
  105OSM   H13C10677   0.482   5.861  10.921 -1.3044 -1.3125  0.1756
  105OSM    C1210678   0.358   5.731  11.105 -0.3380 -0.3501  0.2052
  105OSM   H12A10679   0.365   5.808  11.180  1.1093  1.5752 -1.7678
  105OSM   H12B10680   0.316   5.640  11.145  2.8981 -2.4716 -0.7625
  105OSM    C1110681   0.251   5.777  11.000  0.6841 -1.0771  0.1279
  105OSM   H11A10682   0.284   5.869  10.947 -0.2604 -1.3164 -0.9131
  105OSM   H11B10683   0.158   5.806  11.053  1.1680  0.2681  0.2880
  105OSM      P10684   0.130   5.561  10.908  0.1272 -0.1924  0.5032
  105OSM    O1310685   0.195   5.449  10.836 -0.5826  0.5170 -0.5905
  105OSM    O1410686   0.094   5.543  11.046 -0.2133  0.5679  0.4419
  105OSM    O1110687   0.005   5.608  10.827  0.4564  0.1032  0.7286
  105OSM    O1210688   0.237   5.679  10.903  0.5831 -0.0271  0.4068
  105OSM    C1S10689  -0.002   5.727  10.748  0.2700 -0.0698  0.2666
  105OSM    H1S10690   0.086   5.792  10.770  1.3533 -1.6370  0.7081
  105OSM    H1T10691  -0.089   5.794  10.765  0.3063 -0.2184  1.0676
  105OSM     NF10692  -0.003   5.834  10.533  0.2064 -0.6119 -0.2470
  105OSM    HNF10693  -0.078   5.871  10.478  2.6294  2.7445 -1.5719
  105OSM    C2S10694   0.007   5.706  10.596 -0.0048 -0.0506 -0.1397
  105OSM    H2S10695   0.110   5.674  10.567 -0.7875 -1.0173 -2.0155
  105OSM    C3S10696  -0.094   5.607  10.532  0.0464 -0.6965  0.9592
  105OSM    H3S10697  -0.195   5.653  10.541 -1.0692 -2.7211 -0.3640
  105OSM     O310698  -0.108   5.482  10.597 -0.4736 -0.3276  0.4233
  105OSM    HO310699  -0.073   5.498  10.685  2.1458  1.1040 -0.7492
  105OSM    C4S10700  -0.056   5.585  10.387  0.3986 -0.2413  0.4777
  105OSM    H4S10701   0.048   5.591  10.352 -0.3029 -1.4809 -2.0218
  105OSM    C5S10702  -0.149   5.586  10.291  0.6097  0.2164 -0.7360
  105OSM    H5S10703  -0.252   5.595  10.329  1.3971  1.2799  1.2669
  105OSM    C6S10704  -0.128   5.586  10.138 -0.6170 -0.0710  0.7151
  105OSM    H6S10705  -0.024   5.606  10.106 -1.1293  1.5190 -0.0575
  105OSM    H6T10706  -0.190   5.670  10.098 -0.3341 -0.1040  0.1996
  105OSM    C7S10707  -0.173   5.454  10.076 -0.7969  0.4442 -0.0920
  105OSM    H7S10708  -0.284   5.450  10.087 -0.8214  0.2732 -0.3905
  105OSM    H7T10709  -0.131   5.374  10.140 -2.0321  0.0956  0.3010
  105OSM    C8S10710  -0.144   5.439   9.928  0.1676 -0.8353  1.3321
  105OSM    H8S10711  -0.211   5.355   9.900 -2.1918  1.8503 -2.0080
  105OSM    H8T10712  -0.043   5.409   9.894  0.1361 -0.7333  1.1394
  105OSM    C9S10713  -0.204   5.558   9.845 -0.0372 -0.8361 -0.2927
  105OSM    H9S10714  -0.170   5.657   9.882 -2.3211 -0.0192 -0.2151
  105OSM    H9T10715  -0.314   5.552   9.852 -0.0733 -0.1334 -0.1990
  105OSM   C10S10716  -0.161   5.544   9.700  0.1338  0.3576  0.6757
  105OSM   H10S10717  -0.173   5.441   9.659  0.2739  1.0820 -1.3033
  105OSM   H10T10718  -0.052   5.545   9.717  0.4119  0.7305 -0.9001
  105OSM   C11S10719  -0.229   5.647   9.604 -1.0117 -0.7795 -1.2441
  105OSM   H11S10720  -0.207   5.745   9.652  0.3270 -2.1972  1.2344
  105OSM   H11T10721  -0.338   5.626   9.600 -1.1845 -0.4440  0.8811
  105OSM   C12S10722  -0.179   5.632   9.464  0.1836  0.3645 -0.2660
  105OSM   H12S10723  -0.184   5.524   9.437 -0.8638  0.0911  0.8730
  105OSM   H12T10724  -0.071   5.659   9.468  0.1861  0.2183  2.0687
  105OSM   C13S10725  -0.267   5.722   9.372  0.2338  0.4354 -0.0152
  105OSM   H13S10726  -0.235   5.825   9.396 -0.9129  1.3913 -2.2883
  105OSM   H13T10727  -0.375   5.713   9.398 -0.0933  1.2243 -1.0473
  105OSM   C14S10728  -0.243   5.701   9.223 -0.0261 -0.5749  0.1598
  105OSM   H14S10729  -0.288   5.606   9.185 -0.8864 -0.0831 -0.0944
  105OSM   H14T10730  -0.133   5.701   9.208  0.0835 -0.4948  0.8996
  105OSM   C15S10731  -0.305   5.809   9.129 -0.0742 -0.0958  0.7369
  105OSM   H15S10732  -0.266   5.909   9.157 -0.5697  0.2823  0.1195
  105OSM   H15T10733  -0.414   5.812   9.149  0.5203 -0.9175  4.8087
  105OSM   C16S10734  -0.267   5.778   8.983  0.3523  0.1569  1.3794
  105OSM   H16S10735  -0.315   5.680   8.962 -2.1775  1.3199  1.3319
  105OSM   H16T10736  -0.163   5.768   8.944 -0.0036  1.1343  0.0861
  105OSM   C17S10737  -0.332   5.876   8.882  0.2952 -0.2563  0.5711
  105OSM   H17S10738  -0.285   5.847   8.786  2.1874 -0.8384  1.6256
  105OSM   H17T10739  -0.301   5.981   8.901  1.3806 -0.3177 -0.7177
  105OSM   C18S10740  -0.482   5.861   8.869  0.7260 -0.5008 -0.1496
  105OSM   H18S10741  -0.543   5.870   8.961  1.8746 -0.1270  0.5978
  105OSM   H18T10742  -0.501   5.760   8.828  1.2871 -1.2262  1.3257
  105OSM   H18U10743  -0.528   5.934   8.799  0.8138 -0.8201 -0.5448
  105OSM    C1F10744   0.087   5.930  10.544  0.5611 -0.5969 -0.2844
  105OSM     OF10745   0.206   5.906  10.558  0.2624 -0.1802  0.5008
  105OSM    C2F10746   0.038   6.068  10.529  0.4479 -0.1905  0.2339
  105OSM    H2F10747   0.091   6.138  10.597  1.4890 -0.2105 -0.5344
  105OSM    H2G10748  -0.070   6.070  10.556  0.5005  1.2819  0.4041
  105OSM    C3F10749   0.073   6.131  10.391  0.0204  0.1606 -0.1438
  105OSM    H3F10750   0.181   6.153  10.382  0.4280 -0.9235  1.7196
  105OSM    H3G10751   0.029   6.233  10.395  1.6714  0.8600  2.9065
  105OSM    C4F10752   0.027   6.047  10.273 -0.1390  0.4630 -0.0829
  105OSM    H4F10753  -0.083   6.046  10.257 -0.4606  2.3038  1.6657
  105OSM    H4G10754   0.078   5.949  10.285 -1.4204 -0.2297 -0.1023
  105OSM    C5F10755   0.101   6.095  10.145  0.2530 -0.0826 -0.1564
  105OSM    H5F10756   0.204   6.128  10.170 -0.2015  1.5280 -0.3426
  105OSM    H5G10757   0.059   6.189  10.103 -0.8794 -1.0320 -1.2516
  105OSM    C6F10758   0.112   5.981  10.046  0.9099 -0.2653 -0.1579
  105OSM    H6F10759   0.015   5.936  10.017  0.4296 -0.8953  2.2698
  105OSM    H6G10760   0.168   5.901  10.098  0.4002 -0.6476 -0.1937
  105OSM    C7F10761   0.188   6.017   9.917  0.0677  0.5772  0.2543
  105OSM    H7F10762   0.284   6.065   9.948  2.4946 -3.1054 -0.8618
  105OSM    H7G10763   0.137   6.089   9.850 -0.6226 -1.1806 -1.1664
  105OSM    C8F10764   0.226   5.882   9.836  1.0524  0.2927  0.0704
  105OSM    H8F10765   0.246   5.805   9.913 -1.8163  0.7110  1.3696
  105OSM    H8G10766   0.315   5.924   9.785  0.3796 -1.6384 -2.9738
  105OSM    C9F10767   0.109   5.837   9.754  0.3589  0.3943  0.3435
  105OSM    H9F10768   0.033   5.768   9.792 -1.5268  1.7356 -0.8082
  105OSM   C10F10769   0.099   5.880   9.626  0.0638 -0.2849 -0.0115
  105OSM   H10F10770   0.009   5.850   9.571 -0.5175 -0.5813  1.0711
  105OSM   C11F10771   0.192   5.965   9.546  0.0563 -0.3378 -0.2831
  105OSM   H11F10772   0.293   5.923   9.564  1.0511  1.7192 -0.6486
  105OSM   H11G10773   0.197   6.069   9.585 -1.8072 -0.1192 -0.5579
  105OSM   C12F10774   0.176   5.951   9.396  0.3151 -0.4294  0.4237
  105OSM   H12F10775   0.191   5.846   9.365  0.7971  1.0377 -5.4675
  105OSM   H12G10776   0.261   6.004   9.349 -0.2560 -0.1414 -0.3062
  105OSM   C13F10777   0.042   5.994   9.326  0.4870  0.5309  0.5805
  105OSM   H13F10778   0.020   6.101   9.350 -1.3547  0.0978  1.0112
  105OSM   H13G10779  -0.038   5.945   9.385  0.9999 -0.8936  0.1233
  105OSM   C14F10780   0.035   5.964   9.177 -0.3661 -0.2977  0.6092
  105OSM   H14F10781  -0.066   5.991   9.138  0.8867  3.7522 -0.3529
  105OSM   H14G10782   0.058   5.857   9.158 -1.3152 -0.6067  1.1190
  105OSM   C15F10783   0.136   6.050   9.096 -0.0870 -0.0522  0.3554
  105OSM   H15F10784   0.241   6.014   9.106 -0.1759  0.2624  3.5374
  105OSM   H15G10785   0.137   6.160   9.111 -1.0948  0.3442 -2.0290
  105OSM   C16F10786   0.100   6.045   8.945 -0.7421  0.6095 -0.2518
  105OSM   H16F10787   0.053   5.947   8.924 -0.5134  0.1092  1.4527
  105OSM   H16G10788   0.198   6.059   8.894  0.1224  0.6768  1.3548
  105OSM   C17F10789  -0.012   6.144   8.903  0.1613 -0.5384  0.2341
  105OSM   H17F10790   0.015   6.237   8.957 -0.3854 -0.3671  0.2171
  105OSM   H17G10791  -0.108   6.117   8.951 -0.0768 -0.1126  0.0018
  105OSM   C18F10792  -0.016   6.169   8.752 -0.1528  0.1054  0.3877
  105OSM   H18F10793   0.088   6.186   8.717 -0.0167 -0.6719  0.3943
  105OSM   H18G10794  -0.090   6.241   8.712 -1.4073 -0.2021  2.0272
  105OSM   H18H10795  -0.049   6.071   8.710  1.1535  0.1453 -0.7784
  106OSM      N10796   1.402   3.382  10.944 -0.1584 -0.2752  0.3232
  106OSM    C1510797   1.476   3.385  11.079  0.4885 -0.2467  0.4058
  106OSM   H15A10798   1.402   3.401  11.156  0.1317 -0.6420  0.1475
  106OSM   H15B10799   1.557   3.456  11.079  0.6683 -0.4499  0.6649
  106OSM   H15C10800   1.528   3.295  11.107  1.8903  0.2489 -0.4941
  106OSM    C1410801   1.297   3.271  10.953  0.0074  0.6825  0.4892
  106OSM   H14A10802   1.254   3.258  10.855  0.1442  0.1612  0.4961
  106OSM   H14B10803   1.218   3.307  11.018 -0.4053 -0.3313  0.5791
  106OSM   H14C10804   1.338   3.180  10.996  0.8604  0.1414 -1.3688
  106OSM    C1310805   1.329   3.512  10.926 -0.4962 -0.8287  0.3320
  106OSM   H13A10806   1.268   3.519  10.837 -1.2701 -0.9356  0.8513
  106OSM   H13B10807   1.404   3.590  10.919  1.0605 -2.3013 -0.2607
  106OSM   H13C10808   1.258   3.531  11.005  0.4166  0.1109  0.9503
  106OSM    C1210809   1.500   3.360  10.829 -0.1989 -0.7400  0.1945
  106OSM   H12A10810   1.557   3.275  10.863  4.0067  1.6289 -0.2832
  106OSM   H12B10811   1.572   3.440  10.829 -0.7102 -0.2755  0.5662
  106OSM    C1110812   1.452   3.323  10.688  0.2145  0.3141  0.6665
  106OSM   H11A10813   1.531   3.334  10.610 -0.3887  0.6169  0.0872
  106OSM   H11B10814   1.381   3.403  10.660  0.2664  1.1750  2.7969
  106OSM      P10815   1.468   3.059  10.699 -0.2761 -0.0513 -0.0259
  106OSM    O1310816   1.541   3.060  10.828  0.1874  0.2136 -0.1135
  106OSM    O1410817   1.372   2.949  10.674  0.2922 -0.6182 -0.7384
  106OSM    O1110818   1.578   3.056  10.589  0.0772  0.0391 -0.0641
  106OSM    O1210819   1.384   3.197  10.673  0.1744  0.2561  0.3050
  106OSM    C1S10820   1.537   3.087  10.449 -0.0471 -0.2783  0.0318
  106OSM    H1S10821   1.564   3.194  10.436 -2.1098  0.6000  2.0756
  106OSM    H1T10822   1.427   3.104  10.438  0.0243 -0.0449 -0.3085
  106OSM     NF10823   1.527   3.040  10.209  0.3273  0.5369  0.2793
  106OSM    HNF10824   1.448   2.997  10.165  0.8742 -1.3321  1.0105
  106OSM    C2S10825   1.586   2.997  10.336  0.2962 -0.2157  0.0661
  106OSM    H2S10826   1.696   3.001  10.322  0.2027  4.7355 -1.2250
  106OSM    C3S10827   1.558   2.851  10.373 -0.2705 -0.6412  1.0570
  106OSM    H3S10828   1.456   2.837  10.417 -0.9680  0.1734 -0.2303
  106OSM     O310829   1.651   2.809  10.476 -0.2022  0.8313 -0.7427
  106OSM    HO310830   1.703   2.877  10.519 -0.3388  0.7917 -0.5102
  106OSM    C4S10831   1.588   2.764  10.258  0.1597  0.1444  0.4213
  106OSM    H4S10832   1.694   2.741  10.238 -0.0769 -0.2870 -0.3730
  106OSM    C5S10833   1.503   2.691  10.176  0.5141 -0.1691 -0.4296
  106OSM    H5S10834   1.393   2.697  10.183  0.5834  1.0478 -0.3129
  106OSM    C6S10835   1.560   2.609  10.061  0.0389  0.3348  0.0470
  106OSM    H6S10836   1.518   2.506  10.062  0.7121  0.0534  0.0210
  106OSM    H6T10837   1.671   2.607  10.064  0.2784  1.8334 -3.2893
  106OSM    C7S10838   1.518   2.668   9.923 -0.1557 -0.5506 -0.1679
  106OSM    H7S10839   1.407   2.675   9.929 -0.3643 -2.5318 -1.2511
  106OSM    H7T10840   1.551   2.607   9.836  3.7008  1.6153 -0.4625
  106OSM    C8S10841   1.558   2.814   9.902  0.3395 -0.0016  0.5835
  106OSM    H8S10842   1.669   2.825   9.911  0.5454 -1.5294  0.1272
  106OSM    H8T10843   1.504   2.881   9.972  1.7092 -0.3186  2.0215
  106OSM    C9S10844   1.529   2.867   9.762 -0.4847 -1.0434 -0.2126
  106OSM    H9S10845   1.601   2.820   9.691 -0.6661  0.0556 -1.1580
  106OSM    H9T10846   1.553   2.976   9.769 -1.0910 -1.0110  1.7959
  106OSM   C10S10847   1.378   2.853   9.727  0.4611  0.1274 -0.0594
  106OSM   H10S10848   1.311   2.913   9.793 -1.4823 -0.3938 -1.4505
  106OSM   H10T10849   1.343   2.748   9.720  0.7842  0.0601 -0.8446
  106OSM   C11S10850   1.351   2.894   9.585  0.4495  0.7974 -0.0065
  106OSM   H11S10851   1.388   2.997   9.568 -1.0576  1.3452 -0.1042
  106OSM   H11T10852   1.241   2.898   9.570  0.4805  1.6224 -0.0191
  106OSM   C12S10853   1.410   2.797   9.482 -0.4074  0.0148  0.6760
  106OSM   H12S10854   1.390   2.692   9.513  0.2340 -0.1931  0.3983
  106OSM   H12T10855   1.521   2.794   9.476 -0.4574 -0.1992 -0.1674
  106OSM   C13S10856   1.346   2.820   9.337 -0.1154 -0.0714 -0.9584
  106OSM   H13S10857   1.358   2.929   9.318  0.3790 -0.7617 -5.9628
  106OSM   H13T10858   1.238   2.794   9.343 -0.2711  0.7214  3.3149
  106OSM   C14S10859   1.413   2.758   9.216 -0.2105  0.6835  0.3941
  106OSM   H14S10860   1.356   2.785   9.125 -2.0118  1.1063  1.5940
  106OSM   H14T10861   1.395   2.648   9.225  2.5208  0.0601 -0.7764
  106OSM   C15S10862   1.562   2.777   9.192  0.1932 -0.2668 -0.1855
  106OSM   H15S10863   1.625   2.743   9.277  2.4104  0.7931 -1.3012
  106OSM   H15T10864   1.591   2.884   9.180 -2.4418  0.5508  0.2043
  106OSM   C16S10865   1.613   2.697   9.081 -0.2650 -0.2698  0.0835
  106OSM   H16S10866   1.563   2.722   8.984  1.4655  0.2955 -0.7098
  106OSM   H16T10867   1.592   2.591   9.107  0.9275 -0.3107  0.9551
  106OSM   C17S10868   1.764   2.716   9.050 -0.3892  0.5048 -0.3073
  106OSM   H17S10869   1.791   2.624   8.994 -2.0068  0.7029 -1.4929
  106OSM   H17T10870   1.818   2.730   9.146  0.2879  0.2175 -0.6332
  106OSM   C18S10871   1.809   2.820   8.958 -0.9142 -0.0489  0.0490
  106OSM   H18S10872   1.769   2.802   8.856  0.3598 -0.3773 -0.4096
  106OSM   H18T10873   1.919   2.817   8.946 -0.6427  2.3831  1.3066
  106OSM   H18U10874   1.797   2.925   8.992  0.6516  0.4222 -0.7470
  106OSM    C1F10875   1.573   3.148  10.149 -0.0415 -0.3621 -0.1781
  106OSM     OF10876   1.682   3.201  10.180 -0.3731  0.6098  0.1323
  106OSM    C2F10877   1.491   3.206  10.034 -0.1063 -0.5884  0.2007
  106OSM    H2F10878   1.421   3.284  10.071 -0.3212 -0.2277 -0.9331
  106OSM    H2G10879   1.432   3.117  10.006  0.7678 -0.5528 -1.8752
  106OSM    C3F10880   1.578   3.250   9.906  0.6264 -0.2747 -0.4410
  106OSM    H3F10881   1.648   3.174   9.867  0.0717 -0.8108 -0.4175
  106OSM    H3G10882   1.637   3.339   9.936 -0.7330  1.7605 -3.3450
  106OSM    C4F10883   1.490   3.299   9.787 -0.3000 -0.2571 -0.3273
  106OSM    H4F10884   1.424   3.381   9.821 -0.4076 -0.5679  0.2386
  106OSM    H4G10885   1.420   3.221   9.751 -1.3640  0.6781 -0.3268
  106OSM    C5F10886   1.586   3.346   9.675 -0.1878  0.6981  0.4884
  106OSM    H5F10887   1.634   3.253   9.637  0.2029  1.0918  0.0088
  106OSM    H5G10888   1.664   3.405   9.727 -0.5628 -0.3084  2.2889
  106OSM    C6F10889   1.498   3.425   9.576  0.2737 -0.0356 -0.1785
  106OSM    H6F10890   1.442   3.493   9.645 -0.2553 -2.8120  2.3254
  106OSM    H6G10891   1.430   3.357   9.521 -0.9377 -0.2132  1.4343
  106OSM    C7F10892   1.572   3.516   9.484 -0.1853 -0.0204 -0.2208
  106OSM    H7F10893   1.631   3.463   9.406  1.4447  0.3220  0.7260
  106OSM    H7G10894   1.647   3.568   9.548  0.2305 -0.2807 -0.4861
  106OSM    C8F10895   1.490   3.627   9.415  0.6003 -0.1202 -0.2570
  106OSM    H8F10896   1.561   3.694   9.362 -1.5253  1.8434 -0.7580
  106OSM    H8G10897   1.440   3.690   9.492 -1.7106  0.2533 -1.9502
  106OSM    C9F10898   1.392   3.566   9.313 -0.7193  0.9083  0.1313
  106OSM    H9F10899   1.307   3.523   9.369 -0.2122 -0.5879 -0.1962
  106OSM   C10F10900   1.402   3.575   9.182  0.0265  0.4349  0.8953
  106OSM   H10F10901   1.317   3.549   9.117  0.5450  2.2892 -0.6235
  106OSM   C11F10902   1.514   3.638   9.106 -0.5027 -0.9333  0.0076
  106OSM   H11F10903   1.551   3.566   9.029  0.3894 -1.2720  0.7411
  106OSM   H11G10904   1.606   3.659   9.165 -1.8247 -0.8673  2.1414
  106OSM   C12F10905   1.466   3.769   9.045 -0.0543 -0.3922 -0.2185
  106OSM   H12F10906   1.456   3.852   9.118  0.2038 -0.7239  0.2040
  106OSM   H12G10907   1.367   3.750   8.997  0.6154 -0.9201 -1.4470
  106OSM   C13F10908   1.563   3.813   8.935 -0.8518  0.5991  0.6864
  106OSM   H13F10909   1.594   3.725   8.874  1.0318  0.6049  1.5642
  106OSM   H13G10910   1.658   3.855   8.975 -0.2620  0.3504 -0.4081
  106OSM   C14F10911   1.508   3.926   8.848  0.3754 -1.0385 -0.0749
  106OSM   H14F10912   1.492   4.022   8.900  1.3929  1.2512 -3.5901
  106OSM   H14G10913   1.408   3.895   8.810  0.0448 -1.6057  1.2035
  106OSM   C15F10914   1.595   3.977   8.728  0.1680  0.3370  0.0634
  106OSM   H15F10915   1.533   4.040   8.661 -0.6645 -1.8523 -1.2984
  106OSM   H15G10916   1.620   3.890   8.664  2.9031  1.5409 -0.6800
  106OSM   C16F10917   1.735   4.022   8.765 -0.9961 -0.5836 -0.4695
  106OSM   H16F10918   1.798   3.946   8.815 -0.2653 -0.5129 -1.2424
  106OSM   H16G10919   1.735   4.089   8.853  1.0040 -2.3186  0.9437
  106OSM   C17F10920   1.810   4.092   8.652  0.0277  0.7445 -0.3008
  106OSM   H17F10921   1.776   4.037   8.563  0.6268  0.7872 -0.5635
  106OSM   H17G10922   1.920   4.081   8.664  0.0860  3.1373  2.4718
  106OSM   C18F10923   1.769   4.232   8.620  0.0544  0.4265 -0.4022
  106OSM   H18F10924   1.664   4.227   8.584 -0.7114 -0.1136  1.7652
  106OSM   H18G10925   1.822   4.271   8.530  0.9008  2.2239  0.8309
  106OSM   H18H10926   1.776   4.306   8.701 -0.9992  0.3664 -0.2351
  107OSM      N10927   3.092   0.767  11.259  0.3984 -0.5104  0.2154
  107OSM    C1510928   3.131   0.691  11.380  0.6366 -0.1043  0.2642
  107OSM   H15A10929   3.052   0.621  11.400 -1.1533  1.6700 -0.2765
  107OSM   H15B10930   3.124   0.758  11.464  0.4569  0.3305 -0.0911
  107OSM   H15C10931   3.225   0.642  11.360  0.6893 -0.5408  1.4716
  107OSM    C1410932   3.086   0.667  11.151  0.4739 -0.1461  0.6247
  107OSM   H14A10933   3.024   0.585  11.185  0.3685 -0.5009 -0.3891
  107OSM   H14B10934   3.188   0.642  11.127  0.8431  2.0840 -0.3185
  107OSM   H14C10935   3.030   0.711  11.070  1.1799 -0.2106  0.0968
  107OSM    C1310936   2.956   0.828  11.279 -0.2325  0.3840 -0.4162
  107OSM   H13A10937   2.968   0.910  11.349  1.4447  0.0196 -0.2377
  107OSM   H13B10938   2.886   0.756  11.317  0.7548 -0.6056 -0.4309
  107OSM   H13C10939   2.928   0.868  11.183  0.8446 -3.9912 -2.7850
  107OSM    C1210940   3.184   0.879  11.232  1.2463 -0.3089 -0.4640
  107OSM   H12A10941   3.281   0.832  11.219 -0.2241 -2.9167 -3.2784
  107OSM   H12B10942   3.185   0.940  11.320 -1.4781  2.0910 -1.9159
  107OSM    C1110943   3.143   0.978  11.122  0.6764 -1.0297  0.2228
  107OSM   H11A10944   3.105   0.926  11.032  0.9522  0.2091 -0.6334
  107OSM   H11B10945   3.238   1.028  11.094  1.3601 -1.4788  1.6579
  107OSM      P10946   3.011   1.192  11.070  0.2936  0.3332  0.1715
  107OSM    O1310947   2.864   1.186  11.064 -0.1569  0.4591 -0.1009
  107OSM    O1410948   3.063   1.325  11.105  0.7298 -0.0733 -0.3914
  107OSM    O1110949   3.070   1.149  10.931 -0.6801 -0.6307  0.2700
  107OSM    O1210950   3.056   1.081  11.177 -0.1371  0.0778 -0.7006
  107OSM    C1S10951   2.990   1.152  10.817 -0.9544 -0.0693  0.4280
  107OSM    H1S10952   2.927   1.244  10.810 -2.0371 -0.8812 -0.9712
  107OSM    H1T10953   2.923   1.063  10.818 -1.3594  0.0644 -2.8185
  107OSM     NF10954   2.961   1.160  10.581 -0.2811 -0.2692  0.0164
  107OSM    HNF10955   2.931   1.076  10.535 -0.0467 -0.7701  0.7537
  107OSM    C2S10956   3.065   1.151  10.683  0.5550  0.8745 -0.0668
  107OSM    H2S10957   3.126   1.243  10.681  0.2577  1.1676  1.8419
  107OSM    C3S10958   3.170   1.032  10.668 -0.4239 -0.4438 -0.3552
  107OSM    H3S10959   3.102   0.946  10.650 -1.8152  0.5812 -0.1442
  107OSM     O310960   3.245   1.005  10.780  0.5817 -0.4426 -0.6166
  107OSM    HO310961   3.222   1.066  10.850 -1.3469 -1.4111 -0.3239
  107OSM    C4S10962   3.260   1.058  10.553  0.1861  0.1043 -0.1802
  107OSM    H4S10963   3.348   1.122  10.568 -0.5876  0.8198  1.5145
  107OSM    C5S10964   3.237   1.003  10.434 -0.4938  0.3534  0.2819
  107OSM    H5S10965   3.150   0.937  10.424 -0.7171  0.9213 -2.1677
  107OSM    C6S10966   3.320   1.018  10.314 -0.1008 -0.5288 -1.6271
  107OSM    H6S10967   3.378   0.924  10.305  2.3079  0.5562  1.1182
  107OSM    H6T10968   3.395   1.099  10.326 -0.4804 -0.3867  0.0542
  107OSM    C7S10969   3.231   1.034  10.191 -1.0573  0.7248 -0.0424
  107OSM    H7S10970   3.157   1.117  10.194 -0.8961  0.8506  1.8300
  107OSM    H7T10971   3.168   0.943  10.185 -3.3530  1.9359  2.9621
  107OSM    C8S10972   3.315   1.032  10.056  0.1200 -0.1590 -0.4131
  107OSM    H8S10973   3.396   0.957  10.063  1.3084  0.5044 -4.5014
  107OSM    H8T10974   3.347   1.136  10.037 -1.6052  1.2206  3.2123
  107OSM    C9S10975   3.229   0.999   9.934 -1.0453  0.4244 -0.6086
  107OSM    H9S10976   3.140   1.066   9.934 -2.0680 -0.9080 -1.3370
  107OSM    H9T10977   3.200   0.892   9.937 -1.6048  0.5824  1.8091
  107OSM   C10S10978   3.300   1.026   9.805 -0.3482 -0.1850  0.3942
  107OSM   H10S10979   3.394   0.967   9.805 -0.1698  0.0886  0.9272
  107OSM   H10T10980   3.307   1.137   9.796  0.3532 -0.3584 -1.8262
  107OSM   C11S10981   3.209   0.982   9.682  0.6264 -0.3946 -0.1806
  107OSM   H11S10982   3.117   1.044   9.685 -0.5711 -1.7218 -3.8379
  107OSM   H11T10983   3.172   0.878   9.697 -0.5235  0.1368  0.8190
  107OSM   C12S10984   3.263   0.996   9.544  0.4982 -0.1141  0.1139
  107OSM   H12S10985   3.287   1.099   9.510  1.0235 -0.1180  0.4521
  107OSM   H12T10986   3.182   0.961   9.477  0.4305  3.5460 -1.9710
  107OSM   C13S10987   3.394   0.914   9.516  0.1020  0.6201  0.1295
  107OSM   H13S10988   3.379   0.807   9.540 -0.0490  0.8182  0.9627
  107OSM   H13T10989   3.473   0.954   9.584  0.4200  1.4722 -0.7133
  107OSM   C14S10990   3.449   0.910   9.372  0.1045 -0.2450  0.0111
  107OSM   H14S10991   3.456   1.015   9.338  0.5499 -0.4451 -0.5200
  107OSM   H14T10992   3.362   0.871   9.315 -0.7784 -0.6928  1.5902
  107OSM   C15S10993   3.575   0.826   9.355 -0.2129  0.0352  0.6271
  107OSM   H15S10994   3.549   0.730   9.404 -1.1640  0.2822  0.6334
  107OSM   H15T10995   3.655   0.879   9.410  1.6117 -1.3214 -0.6141
  107OSM   C16S10996   3.601   0.818   9.201  0.3056  0.1929  0.5376
  107OSM   H16S10997   3.591   0.912   9.143  2.0873  0.0019 -0.1489
  107OSM   H16T10998   3.532   0.739   9.165 -0.2412  0.7862  0.2771
  107OSM   C17S10999   3.748   0.786   9.172 -0.0445 -0.2538 -0.5248
  107OSM   H17S11000   3.765   0.683   9.208  2.3250  0.5179  0.7437
  107OSM   H17T11001   3.807   0.861   9.229 -1.1331  0.9261 -0.8973
  107OSM   C18S11002   3.785   0.800   9.025  0.7461 -0.0832  0.2464
  107OSM   H18S11003   3.864   0.738   8.978 -1.0488 -0.6523 -2.2317
  107OSM   H18T11004   3.827   0.901   9.004  1.7282 -0.3478  0.8590
  107OSM   H18U11005   3.691   0.791   8.965  0.9174 -1.8536  0.1921
  107OSM    C1F11006   2.902   1.273  10.549  0.6651  0.0535 -0.3637
  107OSM     OF11007   2.938   1.373  10.606  0.1214 -0.9736  0.2877
  107OSM    C2F11008   2.795   1.276  10.455 -0.1578 -0.0121 -0.2544
  107OSM    H2F11009   2.744   1.373  10.469 -0.7010 -0.3532  0.1809
  107OSM    H2G11010   2.731   1.187  10.472 -1.1232  0.9673  1.5238
  107OSM    C3F11011   2.864   1.293  10.312 -0.5893  0.0903 -0.1371
  107OSM    H3F11012   2.917   1.200  10.283  3.6789  3.0244 -3.0252
  107OSM    H3G11013   2.947   1.368  10.312  0.4267 -1.0097 -0.1097
  107OSM    C4F11014   2.754   1.321  10.201  0.0120  0.1401 -0.2080
  107OSM    H4F11015   2.693   1.407  10.237 -1.6185 -1.4629  1.0890
  107OSM    H4G11016   2.692   1.229  10.201  1.2612 -0.7284 -0.8302
  107OSM    C5F11017   2.808   1.361  10.065 -0.0948 -0.7249  0.0562
  107OSM    H5F11018   2.880   1.443  10.086 -0.5677 -0.4489  0.6377
  107OSM    H5G11019   2.737   1.411   9.996  0.2669  0.6882  0.6822
  107OSM    C6F11020   2.858   1.238   9.991  0.2677  0.5420 -0.3537
  107OSM    H6F11021   2.775   1.175   9.951 -0.4078  0.4662  1.0969
  107OSM    H6G11022   2.896   1.164  10.066 -1.1589 -0.4807 -0.5970
  107OSM    C7F11023   2.954   1.252   9.873  0.0230  0.1099  0.6246
  107OSM    H7F11024   2.983   1.153   9.831  0.6666  0.7127 -0.4122
  107OSM    H7G11025   3.050   1.292   9.910  1.4962 -0.7647 -1.9732
  107OSM    C8F11026   2.895   1.330   9.754 -0.4456 -0.7037 -0.4105
  107OSM    H8F11027   2.975   1.328   9.677  0.8316 -0.2722  0.8564
  107OSM    H8G11028   2.872   1.432   9.790 -0.9563 -0.8557 -0.3024
  107OSM    C9F11029   2.768   1.254   9.703  0.8641 -0.5729 -0.2299
  107OSM    H9F11030   2.673   1.283   9.750  0.7455 -0.6359 -0.4315
  107OSM   C10F11031   2.772   1.166   9.603  0.3904  0.9005 -0.6383
  107OSM   H10F11032   2.680   1.108   9.590  0.0738  0.5676  2.2723
  107OSM   C11F11033   2.897   1.135   9.515  0.6886 -0.4033 -0.0860
  107OSM   H11F11034   2.901   1.030   9.479  1.1470 -1.0431  1.7114
  107OSM   H11G11035   2.988   1.147   9.577  2.0502  0.9107 -2.1943
  107OSM   C12F11036   2.922   1.239   9.395  0.3393 -0.9478 -0.3222
  107OSM   H12F11037   2.927   1.344   9.431 -1.3048 -0.0131 -2.6150
  107OSM   H12G11038   2.827   1.234   9.338  0.0800  1.0893 -0.1092
  107OSM   C13F11039   3.041   1.194   9.314 -0.3391  0.2531 -0.2476
  107OSM   H13F11040   3.031   1.098   9.258  1.7439 -3.0502  4.3568
  107OSM   H13G11041   3.133   1.184   9.376 -1.2727  0.8396  1.3004
  107OSM   C14F11042   3.065   1.304   9.203 -0.7816  0.3917  0.1258
  107OSM   H14F11043   3.085   1.399   9.257  1.9548  0.1540 -0.3339
  107OSM   H14G11044   2.967   1.323   9.154  0.5086  3.3787 -1.5060
  107OSM   C15F11045   3.175   1.279   9.098 -0.3296  0.2393  0.1690
  107OSM   H15F11046   3.272   1.252   9.145  0.7075 -3.0765 -3.3644
  107OSM   H15G11047   3.182   1.362   9.025  0.6465 -0.6025 -0.7194
  107OSM   C16F11048   3.159   1.159   9.008  0.8378 -0.4108  0.1958
  107OSM   H16F11049   3.078   1.177   8.934  1.4017  3.1188  0.2383
  107OSM   H16G11050   3.135   1.068   9.067 -1.4542  0.9174  1.4971
  107OSM   C17F11051   3.290   1.137   8.924  0.3850  0.1653 -0.0476
  107OSM   H17F11052   3.381   1.117   8.985  0.6260 -0.3722 -0.5797
  107OSM   H17G11053   3.320   1.225   8.863 -0.0666  0.8892  0.7445
  107OSM   C18F11054   3.275   1.007   8.837  0.4256  0.8269 -0.2660
  107OSM   H18F11055   3.349   0.999   8.754 -1.3461  0.7464 -1.9040
  107OSM   H18G11056   3.177   0.974   8.796  0.7960 -2.8270  1.3934
  107OSM   H18H11057   3.302   0.924   8.906  2.1634  3.5495  2.5438
  108OSM      N11058   6.494   5.677  11.047  0.2220 -0.6405 -0.6407
  108OSM    C1511059   6.573   5.796  11.022 -0.2938 -0.4798 -0.4336
  108OSM   H15A11060   6.651   5.777  10.949  2.3523 -0.5403  2.2416
  108OSM   H15B11061   6.623   5.826  11.113 -0.2597 -2.8137  0.3958
  108OSM   H15C11062   6.514   5.883  10.996  1.4014  0.4460 -1.3716
  108OSM    C1411063   6.430   5.636  10.923  0.6478 -0.1319  0.4827
  108OSM   H14A11064   6.509   5.600  10.858  0.4965  0.9882 -0.3416
  108OSM   H14B11065   6.369   5.713  10.879 -0.1654 -1.2966 -0.5119
  108OSM   H14C11066   6.362   5.553  10.935 -1.2306  0.7390 -2.7706
  108OSM    C1311067   6.577   5.566  11.114  0.2590 -0.2463 -0.1026
  108OSM   H13A11068   6.557   5.468  11.073 -2.2383  0.9410 -1.9397
  108OSM   H13B11069   6.555   5.563  11.220 -1.2114  1.1326 -0.3388
  108OSM   H13C11070   6.682   5.588  11.100 -0.0330  0.5662 -1.1276
  108OSM    C1211071   6.373   5.710  11.133  0.5879 -0.4767 -0.0569
  108OSM   H12A11072   6.398   5.758  11.227 -2.8361  2.6517 -0.5425
  108OSM   H12B11073   6.313   5.622  11.151 -1.9004  0.2349 -3.7890
  108OSM    C1111074   6.270   5.823  11.078 -0.0266  0.4962  0.4519
  108OSM   H11A11075   6.332   5.909  11.043 -0.9647  0.0428 -2.5957
  108OSM   H11B11076   6.210   5.866  11.161 -1.1225  3.2156 -1.5997
  108OSM      P11077   6.074   5.672  10.999  0.2638 -0.3793 -0.3463
  108OSM    O1311078   6.129   5.551  11.070  0.0226 -0.2739 -0.4507
  108OSM    O1411079   5.958   5.748  11.059  0.4171 -0.3172  0.4406
  108OSM    O1111080   6.037   5.626  10.854  0.5941  0.3617  0.0600
  108OSM    O1211081   6.191   5.779  10.967  0.7829 -0.1151  0.2075
  108OSM    C1S11082   6.019   5.702  10.737  0.0924 -0.9507 -0.1734
  108OSM    H1S11083   6.120   5.735  10.706  0.5543 -2.3640 -0.2105
  108OSM    H1T11084   5.953   5.789  10.760  0.4873 -0.7839  0.3180
  108OSM     NF11085   5.966   5.699  10.499  0.1504 -0.0072  0.4958
  108OSM    HNF11086   5.875   5.731  10.472  0.3200 -0.6375 -0.8873
  108OSM    C2S11087   5.965   5.623  10.619  0.4378  0.9571 -0.0942
  108OSM    H2S11088   6.039   5.540  10.606 -0.3841  0.1078  0.5369
  108OSM    C3S11089   5.823   5.564  10.646  0.0483 -0.2687  0.6984
  108OSM    H3S11090   5.748   5.646  10.652 -1.4892 -1.2464 -2.6827
  108OSM     O311091   5.801   5.473  10.758 -0.3290  0.0924  0.1632
  108OSM    HO311092   5.863   5.507  10.822  0.7272 -2.1512  0.4205
  108OSM    C4S11093   5.786   5.481  10.520  0.0470  0.3912 -0.3961
  108OSM    H4S11094   5.852   5.395  10.505 -0.3607 -0.1471  0.8284
  108OSM    C5S11095   5.681   5.500  10.444  0.5570 -0.0386  0.0149
  108OSM    H5S11096   5.606   5.577  10.465 -0.1599 -0.6377 -0.2824
  108OSM    C6S11097   5.654   5.414  10.326  0.5596 -0.8221 -0.2189
  108OSM    H6S11098   5.564   5.443  10.268  0.2366  1.4788  1.3200
  108OSM    H6T11099   5.631   5.309  10.355  0.6825 -0.4369  1.3428
  108OSM    C7S11100   5.761   5.435  10.209 -0.0382 -0.0805 -0.2554
  108OSM    H7S11101   5.857   5.391  10.246 -0.6488  0.6258  2.3920
  108OSM    H7T11102   5.778   5.542  10.183 -3.1911  0.2121 -1.5456
  108OSM    C8S11103   5.745   5.353  10.083  0.5349 -0.2133 -0.5933
  108OSM    H8S11104   5.681   5.407  10.009  0.3509 -0.1127 -0.3614
  108OSM    H8T11105   5.702   5.251  10.093 -1.1428  0.6314  1.6826
  108OSM    C9S11106   5.883   5.344  10.014  0.3389 -0.1642 -0.0851
  108OSM    H9S11107   5.953   5.297  10.087 -0.3264 -0.4485  0.3827
  108OSM    H9T11108   5.937   5.435   9.979  1.5226  0.0844  2.1780
  108OSM   C10S11109   5.879   5.246   9.895  0.3863  0.5589  0.4124
  108OSM   H10S11110   5.832   5.150   9.926 -0.1014 -0.2193 -2.4791
  108OSM   H10T11111   5.986   5.224   9.872 -0.1435 -0.4877 -1.2002
  108OSM   C11S11112   5.802   5.293   9.777 -0.0011 -0.0833 -0.1852
  108OSM   H11S11113   5.818   5.403   9.779  2.4190 -0.3739  2.2142
  108OSM   H11T11114   5.692   5.287   9.793  0.1984  0.5386  1.5817
  108OSM   C12S11115   5.849   5.214   9.650 -0.2095  0.7462  0.1368
  108OSM   H12S11116   5.820   5.106   9.652  0.3015  0.5913 -0.4426
  108OSM   H12T11117   5.959   5.219   9.633  0.0866  1.3533  2.0001
  108OSM   C13S11118   5.786   5.273   9.526 -0.0352 -0.4214 -0.5626
  108OSM   H13S11119   5.812   5.381   9.525 -0.9625 -0.1331  1.4986
  108OSM   H13T11120   5.675   5.267   9.526 -0.1803  1.6672  0.1478
  108OSM   C14S11121   5.845   5.200   9.399 -0.8797 -0.3232  0.5159
  108OSM   H14S11122   5.808   5.095   9.391  0.8705 -0.8553 -1.7605
  108OSM   H14T11123   5.956   5.205   9.398 -0.6008 -3.1960  3.3457
  108OSM   C15S11124   5.805   5.271   9.263 -0.0006 -0.2258  0.0111
  108OSM   H15S11125   5.819   5.380   9.280 -0.4908 -0.4895  2.4695
  108OSM   H15T11126   5.698   5.263   9.235 -0.5332  3.2106  0.5858
  108OSM   C16S11127   5.891   5.229   9.144 -0.7361 -0.5455 -0.1378
  108OSM   H16S11128   5.850   5.253   9.044 -1.6073 -0.8085  0.1546
  108OSM   H16T11129   5.911   5.121   9.160 -0.8584 -0.3870  1.2712
  108OSM   C17S11130   6.032   5.288   9.138  0.5514 -0.4822 -0.2625
  108OSM   H17S11131   6.076   5.268   9.238 -0.3267  2.2694  0.7815
  108OSM   H17T11132   6.031   5.399   9.136  0.4293 -0.4118  1.7089
  108OSM   C18S11133   6.120   5.225   9.030 -0.2826  0.0214 -0.1465
  108OSM   H18S11134   6.123   5.114   9.033  2.0106 -0.0298 -1.9024
  108OSM   H18T11135   6.223   5.266   9.041 -0.8672  1.3680  0.6313
  108OSM   H18U11136   6.080   5.255   8.931 -1.0370  1.4716  0.5670
  108OSM    C1F11137   6.079   5.735  10.434 -0.1973 -0.3868  0.0129
  108OSM     OF11138   6.187   5.713  10.480  0.4347  0.4021  0.0875
  108OSM    C2F11139   6.065   5.809  10.308 -0.0920 -0.2706  0.0591
  108OSM    H2F11140   6.100   5.914  10.316  0.4762 -0.5430  1.4499
  108OSM    H2G11141   5.957   5.809  10.282 -0.0506 -0.0968 -0.1093
  108OSM    C3F11142   6.151   5.739  10.205 -0.5057  0.0275 -0.1683
  108OSM    H3F11143   6.260   5.728  10.223 -0.4318  1.5086  0.4383
  108OSM    H3G11144   6.160   5.799  10.112 -0.3758 -1.0369 -0.8606
  108OSM    C4F11145   6.084   5.609  10.147 -0.0092  0.2054 -0.7602
  108OSM    H4F11146   5.976   5.627  10.128 -0.8638 -1.1527  2.2545
  108OSM    H4G11147   6.079   5.528  10.223 -0.0690  2.5530  1.9014
  108OSM    C5F11148   6.158   5.559  10.022  0.1633 -0.0689 -0.6555
  108OSM    H5F11149   6.165   5.448  10.020 -0.0542 -0.0769 -0.9489
  108OSM    H5G11150   6.260   5.598  10.043  0.4866 -1.7167  1.1226
  108OSM    C6F11151   6.105   5.631   9.893  0.8222  0.5769  0.2678
  108OSM    H6F11152   6.101   5.742   9.899  0.4958  0.5981 -0.2402
  108OSM    H6G11153   6.003   5.590   9.876  0.9139  0.8301 -1.0616
  108OSM    C7F11154   6.180   5.598   9.761  0.5912 -0.0730 -0.5569
  108OSM    H7F11155   6.209   5.491   9.767  1.1910  0.0639 -0.9350
  108OSM    H7G11156   6.269   5.664   9.756  1.3124 -0.9007  0.7674
  108OSM    C8F11157   6.083   5.623   9.647  0.0606 -0.3244  0.0082
  108OSM    H8F11158   6.083   5.734   9.646  1.2105 -0.3007  1.4251
  108OSM    H8G11159   5.982   5.581   9.669  0.1702  1.0630  3.7334
  108OSM    C9F11160   6.140   5.560   9.526 -1.0225 -0.1987  0.0225
  108OSM    H9F11161   6.171   5.455   9.523  0.2824  0.1506  0.6078
  108OSM   C10F11162   6.152   5.618   9.408  0.6102  0.2607 -0.1588
  108OSM   H10F11163   6.192   5.553   9.328  1.9777  0.2742  0.4930
  108OSM   C11F11164   6.112   5.762   9.370 -0.6221  0.4694 -0.1663
  108OSM   H11F11165   6.203   5.825   9.373  0.9423 -1.6081 -1.3469
  108OSM   H11G11166   6.041   5.811   9.440 -1.8943 -0.9704 -0.3998
  108OSM   C12F11167   6.048   5.765   9.228  0.3006 -0.3263  0.1125
  108OSM   H12F11168   5.951   5.711   9.225 -1.8165  3.1684  0.2630
  108OSM   H12G11169   6.111   5.717   9.150  1.5827  1.4697 -0.0178
  108OSM   C13F11170   6.016   5.904   9.170 -0.3370  0.2785 -0.1065
  108OSM   H13F11171   6.119   5.944   9.156 -0.2054  0.3302  0.9547
  108OSM   H13G11172   5.962   5.974   9.238  0.9560  0.2349  0.9954
  108OSM   C14F11173   5.939   5.886   9.039  0.0966  0.1223 -0.0028
  108OSM   H14F11174   5.845   5.827   9.039  0.9037 -1.2077  0.8242
  108OSM   H14G11175   6.004   5.836   8.964  0.3005 -1.6291  1.2845
  108OSM   C15F11176   5.896   6.025   8.993  0.2898 -1.4808 -0.0382
  108OSM   H15F11177   5.978   6.099   9.004  0.4243 -1.6988  0.4566
  108OSM   H15G11178   5.818   6.049   9.068 -1.2329 -0.9253 -1.7387
  108OSM   C16F11179   5.824   6.041   8.857 -0.2465  0.2140 -0.2544
  108OSM   H16F11180   5.804   6.151   8.856  0.1815  0.3607  2.1939
  108OSM   H16G11181   5.726   5.992   8.839  0.0885 -0.3501 -0.5669
  108OSM   C17F11182   5.919   6.004   8.744 -0.2384  0.2966 -0.4354
  108OSM   H17F11183   5.873   6.013   8.644  0.9692  2.3520 -0.8522
  108OSM   H17G11184   5.953   5.898   8.747 -2.1567 -0.3883 -1.6061
  108OSM   C18F11185   6.044   6.093   8.746  0.0987  0.6441 -0.1592
  108OSM   H18F11186   6.096   6.066   8.840  0.7311  1.8328 -0.1481
  108OSM   H18G11187   6.011   6.198   8.756  0.9511  0.8045  1.3625
  108OSM   H18H11188   6.108   6.073   8.658 -0.6904 -2.3029 -0.1721
  109OSM      N11189   6.342   6.363  10.927  0.4038 -0.0020 -0.3846
  109OSM    C1511190   6.374   6.323  10.786 -0.1994 -0.0736  0.2232
  109OSM   H15A11191   6.293   6.263  10.748  0.4772 -0.6746 -0.3027
  109OSM   H15B11192   6.456   6.252  10.786 -0.2295 -0.1086  0.2159
  109OSM   H15C11193   6.381   6.404  10.715  1.2451  0.4725  0.9545
  109OSM    C1411194   6.345   6.235  11.001  0.4831 -0.1238 -0.1702
  109OSM   H14A11195   6.276   6.160  10.964 -0.6805  0.8392 -0.0117
  109OSM   H14B11196   6.325   6.248  11.106  1.2572 -2.3927  0.3358
  109OSM   H14C11197   6.441   6.188  10.988  1.4378  1.6807  0.0806
  109OSM    C1311198   6.456   6.449  10.978  0.3315  0.1905 -0.0537
  109OSM   H13A11199   6.549   6.395  10.967  0.4819  0.4659 -0.1424
  109OSM   H13B11200   6.445   6.477  11.082  0.3437  0.0623 -0.0180
  109OSM   H13C11201   6.467   6.535  10.914 -1.4856  0.3467 -0.1884
  109OSM    C1211202   6.207   6.440  10.931 -0.8320 -0.1596 -0.2368
  109OSM   H12A11203   6.197   6.466  11.035  0.6077  1.0927 -0.3748
  109OSM   H12B11204   6.115   6.387  10.909 -0.5674  0.0781 -2.1059
  109OSM    C1111205   6.209   6.569  10.851  0.0180  0.7714  0.3173
  109OSM   H11A11206   6.299   6.633  10.865 -0.0310  1.0305 -0.4939
  109OSM   H11B11207   6.129   6.640  10.882 -0.1454  1.5613 -1.7139
  109OSM      P11208   6.053   6.481  10.662  0.1766 -0.2784 -0.0247
  109OSM    O1311209   6.043   6.339  10.701  0.9407  0.5037  0.3318
  109OSM    O1411210   5.939   6.569  10.714  0.0058 -0.4039  0.1943
  109OSM    O1111211   6.054   6.493  10.499  0.2950  0.0390 -0.7234
  109OSM    O1211212   6.193   6.542  10.708  0.0773  0.9282 -0.3830
  109OSM    C1S11213   6.159   6.543  10.425 -0.4023 -0.8706  0.2938
  109OSM    H1S11214   6.250   6.481  10.442  1.0141  0.8376 -0.5939
  109OSM    H1T11215   6.183   6.644  10.466  2.2401 -1.2022 -0.2599
  109OSM     NF11216   6.233   6.604  10.209  0.0150 -0.0156  0.9020
  109OSM    HNF11217   6.223   6.694  10.167 -0.1083 -0.5986 -0.3842
  109OSM    C2S11218   6.121   6.545  10.272 -0.2685 -0.3069  0.4415
  109OSM    H2S11219   6.102   6.436  10.255  0.3792 -0.5581  1.2709
  109OSM    C3S11220   5.988   6.620  10.257  0.6303 -0.2016 -0.1047
  109OSM    H3S11221   5.966   6.701  10.330 -1.1758  0.3891 -1.2347
  109OSM     O311222   5.884   6.533  10.287 -0.0174  0.7122 -0.8739
  109OSM    HO311223   5.925   6.448  10.302  0.2311  1.0687  0.7004
  109OSM    C4S11224   5.966   6.672  10.115 -0.5316  1.3165  0.2097
  109OSM    H4S11225   6.011   6.771  10.096 -1.1722  2.1470  2.7406
  109OSM    C5S11226   5.931   6.595  10.007  0.0897 -0.3774  0.0701
  109OSM    H5S11227   5.916   6.487  10.023 -0.1350 -0.7143 -2.0834
  109OSM    C6S11228   5.932   6.645   9.859  0.8136  0.1847  0.0957
  109OSM    H6S11229   5.959   6.753   9.862 -0.6229  0.5806 -0.4563
  109OSM    H6T11230   5.831   6.632   9.816 -0.0605  1.5237  1.6318
  109OSM    C7S11231   6.026   6.578   9.768 -0.2690  0.0621  1.3298
  109OSM    H7S11232   6.004   6.469   9.768 -3.0695  0.5445  2.5602
  109OSM    H7T11233   6.131   6.582   9.805  1.1796  1.5223 -2.3901
  109OSM    C8S11234   6.032   6.635   9.622 -0.0414 -0.4928  0.5330
  109OSM    H8S11235   5.925   6.657   9.603  0.2857  1.3546  0.6459
  109OSM    H8T11236   6.061   6.554   9.551  2.7898  0.7197  0.1332
  109OSM    C9S11237   6.117   6.765   9.603 -0.3849 -0.5011 -0.0206
  109OSM    H9S11238   6.226   6.742   9.612  0.7853  3.9504 -0.3718
  109OSM    H9T11239   6.095   6.840   9.681  1.7092 -0.7893  0.9155
  109OSM   C10S11240   6.108   6.822   9.456  0.8457 -0.0220  0.1234
  109OSM   H10S11241   6.117   6.741   9.381  0.9410 -1.6393  1.8105
  109OSM   H10T11242   6.180   6.903   9.430  0.3237 -0.0208 -1.4256
  109OSM   C11S11243   5.960   6.874   9.428  0.0579  0.4411 -0.5015
  109OSM   H11S11244   5.948   6.968   9.488  2.6748 -0.7554  2.1486
  109OSM   H11T11245   5.877   6.807   9.461  0.0817  1.2867  1.4338
  109OSM   C12S11246   5.936   6.902   9.277 -0.0353  0.2195 -0.0382
  109OSM   H12S11247   5.838   6.949   9.255 -0.3208 -0.8012 -1.1126
  109OSM   H12T11248   5.923   6.807   9.221  0.3082  0.9629 -1.4346
  109OSM   C13S11249   6.039   6.991   9.215  0.0143 -0.7481 -0.1159
  109OSM   H13S11250   6.119   6.929   9.170  1.6789  0.6881  0.7809
  109OSM   H13T11251   6.082   7.059   9.291 -0.6149 -1.6405  1.0801
  109OSM   C14S11252   5.984   7.089   9.106 -0.3167  0.3540 -0.2976
  109OSM   H14S11253   5.929   7.171   9.156 -2.4137 -0.6631 -0.8514
  109OSM   H14T11254   5.922   7.029   9.036  0.2435 -0.7492  0.1233
  109OSM   C15S11255   6.096   7.152   9.024 -0.3927  0.3323 -0.5881
  109OSM   H15S11256   6.159   7.070   8.982 -0.9743 -0.0450 -0.7240
  109OSM   H15T11257   6.166   7.207   9.090 -1.8936 -1.3303  2.5946
  109OSM   C16S11258   6.043   7.253   8.924 -0.5779 -0.0160 -0.6375
  109OSM   H16S11259   6.064   7.357   8.957 -2.5696 -0.0136  0.8136
  109OSM   H16T11260   5.933   7.241   8.921 -0.6299  0.1560  0.3238
  109OSM   C17S11261   6.104   7.239   8.784 -0.2255  0.2200 -0.3376
  109OSM   H17S11262   6.077   7.326   8.720  0.7274  0.4866 -0.3856
  109OSM   H17T11263   6.061   7.144   8.745  1.2692 -0.3759 -0.5885
  109OSM   C18S11264   6.260   7.231   8.787  0.0801 -0.0939  0.4595
  109OSM   H18S11265   6.288   7.139   8.843  1.4448 -1.4979 -2.3227
  109OSM   H18T11266   6.293   7.323   8.839 -0.7099  1.4894 -1.6917
  109OSM   H18U11267   6.303   7.223   8.685  0.9504  0.6976  0.7556
  109OSM    C1F11268   6.348   6.543  10.198  0.3159  0.3837  0.0994
  109OSM     OF11269   6.351   6.420  10.207  0.5785  0.3705  0.6568
  109OSM    C2F11270   6.474   6.628  10.179  0.1478  0.7691  0.4954
  109OSM    H2F11271   6.510   6.651  10.281 -0.9296  2.5062  0.5188
  109OSM    H2G11272   6.447   6.723  10.128 -0.4502  0.9742  1.1855
  109OSM    C3F11273   6.585   6.558  10.105  0.3186  0.0816  0.6089
  109OSM    H3F11274   6.618   6.463  10.152  0.5919 -1.3371 -2.2622
  109OSM    H3G11275   6.673   6.626  10.103  0.1000  0.3922  1.1222
  109OSM    C4F11276   6.548   6.528   9.956 -0.1768  0.7868 -0.2861
  109OSM    H4F11277   6.464   6.455   9.956  0.1054  0.4441 -1.6665
  109OSM    H4G11278   6.640   6.485   9.911 -0.2666 -1.2808  1.3034
  109OSM    C5F11279   6.520   6.657   9.880 -0.0513  0.1692  0.0682
  109OSM    H5F11280   6.600   6.727   9.910  0.7810 -1.4268  1.7865
  109OSM    H5G11281   6.421   6.705   9.898 -0.3272  0.0613 -1.0609
  109OSM    C6F11282   6.514   6.637   9.724  0.9515  0.3546 -0.2087
  109OSM    H6F11283   6.428   6.568   9.708  0.1166  1.2886  0.1112
  109OSM    H6G11284   6.608   6.584   9.696  1.2367  0.3068  0.8019
  109OSM    C7F11285   6.497   6.782   9.661 -0.4653 -0.2371  0.3494
  109OSM    H7F11286   6.587   6.842   9.683 -1.5892  1.4171  0.5825
  109OSM    H7G11287   6.412   6.839   9.704 -0.4921  1.4764 -1.7801
  109OSM    C8F11288   6.468   6.784   9.509  0.8555 -0.3152  0.4116
  109OSM    H8F11289   6.447   6.891   9.489  1.6399 -0.6473 -2.6702
  109OSM    H8G11290   6.377   6.724   9.486  0.0470  0.1402  2.2468
  109OSM    C9F11291   6.600   6.755   9.435 -0.2550  0.7210 -0.1064
  109OSM    H9F11292   6.678   6.714   9.500 -0.9424  0.6865  0.7257
  109OSM   C10F11293   6.615   6.759   9.307 -0.0101  0.3147 -0.2979
  109OSM   H10F11294   6.717   6.737   9.270  0.6188  1.6220  0.6063
  109OSM   C11F11295   6.507   6.786   9.202  0.5486 -0.5617  0.3995
  109OSM   H11F11296   6.405   6.813   9.238  0.7264  1.8596 -0.7107
  109OSM   H11G11297   6.492   6.689   9.149 -1.5254  0.4842 -1.0447
  109OSM   C12F11298   6.557   6.890   9.101  0.0308  0.0581 -0.1714
  109OSM   H12F11299   6.559   6.992   9.146 -2.2736 -0.5970  1.5624
  109OSM   H12G11300   6.474   6.903   9.029 -1.1910 -1.4799  0.9098
  109OSM   C13F11301   6.689   6.855   9.028  0.1192 -0.2051  0.0375
  109OSM   H13F11302   6.768   6.804   9.086  0.3661  1.2789  1.0550
  109OSM   H13G11303   6.732   6.949   8.986  0.4791  0.3326  1.5700
  109OSM   C14F11304   6.672   6.757   8.912 -0.5340  0.5210  0.1164
  109OSM   H14F11305   6.598   6.782   8.833  0.5945  0.2043 -1.0614
  109OSM   H14G11306   6.644   6.662   8.962  0.8096  0.4776  0.8227
  109OSM   C15F11307   6.803   6.725   8.833  0.4228  0.7934  0.1464
  109OSM   H15F11308   6.876   6.701   8.914 -1.2745  0.3361  1.6186
  109OSM   H15G11309   6.848   6.816   8.788  0.1541  0.9231  0.1375
  109OSM   C16F11310   6.789   6.605   8.741  0.0855  0.1122 -0.2026
  109OSM   H16F11311   6.714   6.644   8.669  1.8289  0.8687 -1.6712
  109OSM   H16G11312   6.757   6.509   8.785 -2.2433  0.8042 -0.2416
  109OSM   C17F11313   6.919   6.579   8.666 -0.3841 -0.6908 -0.3342
  109OSM   H17F11314   6.895   6.490   8.603 -2.3950 -1.7385  1.7513
  109OSM   H17G11315   6.997   6.551   8.740  0.3130  2.3460  0.2254
  109OSM   C18F11316   6.972   6.691   8.578 -0.0341 -0.1118 -0.3229
  109OSM   H18F11317   6.893   6.723   8.506 -0.4466  2.2216  1.0612
  109OSM   H18G11318   7.058   6.656   8.517  1.0294 -0.8728  1.5261
  109OSM   H18H11319   7.004   6.777   8.640  2.1515 -1.8279  1.0701
  110OSM      N11320   1.242   5.289  10.956 -0.0804 -0.0830  0.5440
  110OSM    C1511321   1.253   5.245  11.097  0.1024 -0.0727 -0.1549
  110OSM   H15A11322   1.252   5.335  11.157  2.7690 -0.2630  0.3121
  110OSM   H15B11323   1.344   5.188  11.112  1.0907  1.1650 -1.2368
  110OSM   H15C11324   1.173   5.184  11.139 -0.2270  0.6038  0.2066
  110OSM    C1411325   1.358   5.371  10.918 -0.2394  0.3039 -0.3696
  110OSM   H14A11326   1.358   5.470  10.961 -0.2717  1.3126 -2.5724
  110OSM   H14B11327   1.366   5.402  10.815  1.2646 -0.6765 -0.5839
  110OSM   H14C11328   1.447   5.316  10.944 -0.1870  0.1208 -0.9319
  110OSM    C1311329   1.264   5.164  10.863 -0.1791 -0.4858 -0.2324
  110OSM   H13A11330   1.354   5.109  10.888 -1.1956 -2.5461 -0.8498
  110OSM   H13B11331   1.261   5.196  10.760  2.2614 -1.0649 -0.5526
  110OSM   H13C11332   1.188   5.088  10.881  0.4270 -0.9338  0.4897
  110OSM    C1211333   1.107   5.354  10.936 -0.2199  0.5520 -1.1685
  110OSM   H12A11334   1.027   5.288  10.966 -0.2707  0.7087 -0.9553
  110OSM   H12B11335   1.094   5.374  10.831 -0.4952 -0.6257 -1.3720
  110OSM    C1111336   1.091   5.494  11.005 -0.2876  0.1359 -0.3342
  110OSM   H11A11337   1.103   5.492  11.116  2.3958  1.0420 -0.5318
  110OSM   H11B11338   0.985   5.527  10.999 -0.8500 -0.9104  2.2733
  110OSM      P11339   1.170   5.668  10.827  0.3614 -0.6976 -0.0644
  110OSM    O1311340   1.076   5.777  10.850 -0.2778  0.1255 -0.4891
  110OSM    O1411341   1.302   5.706  10.771  0.1918 -0.1814  0.1209
  110OSM    O1111342   1.111   5.560  10.728 -0.2802  0.0436 -0.2713
  110OSM    O1211343   1.184   5.592  10.958  0.0604 -0.4524  0.6506
  110OSM    C1S11344   1.048   5.596  10.604 -0.7246 -0.2742 -0.5288
  110OSM    H1S11345   1.008   5.699  10.602 -2.9056 -0.9086  2.6614
  110OSM    H1T11346   0.956   5.538  10.585 -0.6917 -0.7629  0.6839
  110OSM     NF11347   1.100   5.637  10.376 -0.1326  0.5595  0.2389
  110OSM    HNF11348   1.042   5.584  10.315 -0.2159 -0.0026  0.7966
  110OSM    C2S11349   1.146   5.561  10.491 -0.0472  0.2982  0.2753
  110OSM    H2S11350   1.252   5.587  10.512 -0.5733  0.5384  2.9427
  110OSM    C3S11351   1.153   5.405  10.474 -0.8491  0.6721 -0.4163
  110OSM    H3S11352   1.054   5.369  10.439 -1.2002  2.4476 -1.3682
  110OSM     O311353   1.166   5.338  10.599  0.0116  0.0734 -0.2068
  110OSM    HO311354   1.155   5.415  10.655 -0.2551 -0.5298  0.5918
  110OSM    C4S11355   1.256   5.366  10.373  0.3533 -0.2240 -0.9109
  110OSM    H4S11356   1.196   5.352  10.283 -1.9905 -4.3722  0.9968
  110OSM    C5S11357   1.388   5.335  10.375 -0.2371 -0.4046  0.1241
  110OSM    H5S11358   1.446   5.345  10.469  1.0234  1.0837 -0.7649
  110OSM    C6S11359   1.468   5.292  10.258 -0.2711  0.1241  0.0542
  110OSM    H6S11360   1.530   5.204  10.288 -1.2579 -0.1489  1.3939
  110OSM    H6T11361   1.548   5.369  10.256 -0.4312  0.3149  0.7443
  110OSM    C7S11362   1.396   5.276  10.119  0.7042 -0.2510  0.4217
  110OSM    H7S11363   1.346   5.373  10.101  1.3378  0.4826  2.4220
  110OSM    H7T11364   1.316   5.199  10.126 -0.7897  1.3550  1.7990
  110OSM    C8S11365   1.496   5.235  10.007  0.2004 -1.1418 -0.4125
  110OSM    H8S11366   1.521   5.130  10.032  0.4319 -1.1176 -0.5378
  110OSM    H8T11367   1.591   5.292  10.006  0.9351 -2.3421 -0.3632
  110OSM    C9S11368   1.431   5.239   9.864 -0.8203 -0.4249  1.0487
  110OSM    H9S11369   1.333   5.187   9.874 -0.4397 -1.1334  1.1723
  110OSM    H9T11370   1.501   5.191   9.792 -0.3499  1.7437 -0.0364
  110OSM   C10S11371   1.398   5.378   9.816  0.3032  0.0630 -0.6081
  110OSM   H10S11372   1.478   5.454   9.827  0.0199  0.0401  2.4387
  110OSM   H10T11373   1.305   5.395   9.874  0.7600 -1.7844  0.7454
  110OSM   C11S11374   1.364   5.379   9.667  0.5560 -0.1429  0.1526
  110OSM   H11S11375   1.281   5.306   9.658  0.8016 -0.4804  0.5653
  110OSM   H11T11376   1.453   5.347   9.609 -0.3996 -2.9514  0.0798
  110OSM   C12S11377   1.324   5.516   9.612 -0.9298  0.1267 -0.6159
  110OSM   H12S11378   1.402   5.595   9.615 -2.0019  1.1884  0.7675
  110OSM   H12T11379   1.242   5.566   9.667 -1.6407  0.4348 -1.9136
  110OSM   C13S11380   1.265   5.509   9.468 -0.5099  0.1519  0.3950
  110OSM   H13S11381   1.174   5.445   9.475 -1.0591  1.0417  1.7875
  110OSM   H13T11382   1.338   5.462   9.399 -0.2139  2.4277 -0.9441
  110OSM   C14S11383   1.241   5.647   9.412  0.2796 -0.5449  0.4993
  110OSM   H14S11384   1.345   5.687   9.408 -0.3284  1.0297 -0.8286
  110OSM   H14T11385   1.171   5.707   9.474  0.5596  1.4583 -0.9939
  110OSM   C15S11386   1.196   5.648   9.269  0.1177  0.4248  0.2895
  110OSM   H15S11387   1.145   5.745   9.250 -0.2624  0.3313  0.8071
  110OSM   H15T11388   1.122   5.568   9.246  1.3598 -0.5391 -0.4676
  110OSM   C16S11389   1.320   5.660   9.170 -0.2070 -0.2224  0.2923
  110OSM   H16S11390   1.382   5.573   9.199 -0.5847 -1.3534 -2.0754
  110OSM   H16T11391   1.361   5.758   9.203 -1.0483  0.0393  0.5773
  110OSM   C17S11392   1.288   5.651   9.012  0.4037 -0.5011 -0.1923
  110OSM   H17S11393   1.381   5.649   8.952  0.2350 -0.8201 -0.4461
  110OSM   H17T11394   1.231   5.743   8.983  1.9830  0.8604  0.8374
  110OSM   C18S11395   1.205   5.524   8.979  0.1822 -0.8215 -0.4778
  110OSM   H18S11396   1.206   5.501   8.870 -0.2910 -1.9250 -0.2519
  110OSM   H18T11397   1.103   5.548   9.014 -0.9648 -0.1703 -3.8835
  110OSM   H18U11398   1.245   5.431   9.024  1.2619 -0.5538 -0.8405
  110OSM    C1F11399   1.098   5.775  10.369 -0.5532  0.4074 -0.1442
  110OSM     OF11400   1.123   5.848  10.465  0.3776  0.0060 -0.3991
  110OSM    C2F11401   1.046   5.829  10.235 -0.1805 -0.6167  0.1499
  110OSM    H2F11402   1.056   5.939  10.239 -0.8066 -0.5830  1.9206
  110OSM    H2G11403   0.939   5.798  10.233 -1.0897  2.2653 -0.6165
  110OSM    C3F11404   1.115   5.773  10.111  0.2577  0.0501  0.2350
  110OSM    H3F11405   1.124   5.663  10.115  0.5186  0.0247 -0.8635
  110OSM    H3G11406   1.221   5.807  10.103  0.4556 -0.8878 -1.5339
  110OSM    C4F11407   1.052   5.815   9.975  0.5143  0.3121 -0.0624
  110OSM    H4F11408   0.950   5.771   9.967  1.2310 -1.2927 -0.7710
  110OSM    H4G11409   1.111   5.755   9.902  1.8330 -0.5326  1.6324
  110OSM    C5F11410   1.063   5.968   9.947 -0.4660 -0.3957  0.8167
  110OSM    H5F11411   1.163   6.004   9.980 -1.2094  0.3149  2.3908
  110OSM    H5G11412   0.976   6.016   9.998 -1.8538  0.4985 -2.1868
  110OSM    C6F11413   1.043   6.003   9.800 -0.0341  0.3272  0.4710
  110OSM    H6F11414   1.044   6.114   9.788  0.0475  0.1624 -1.1852
  110OSM    H6G11415   0.943   5.967   9.768 -0.4731  2.4934 -0.8033
  110OSM    C7F11416   1.161   5.958   9.710  0.2595  0.1806 -1.0247
  110OSM    H7F11417   1.166   5.847   9.710 -1.1083  0.1110 -1.0051
  110OSM    H7G11418   1.253   5.995   9.760  1.1295 -1.5344 -1.2787
  110OSM    C8F11419   1.168   5.998   9.564  0.0277 -0.1135 -0.0835
  110OSM    H8F11420   1.229   5.926   9.505  0.3398  0.1678 -0.1015
  110OSM    H8G11421   1.216   6.097   9.575 -1.8664  0.7265  1.2594
  110OSM    C9F11422   1.032   6.022   9.499  0.3591 -0.1065  0.2128
  110OSM    H9F11423   0.947   6.015   9.568  1.1874  0.2740  1.2993
  110OSM   C10F11424   1.015   6.080   9.377  0.2095  0.2374  0.0411
  110OSM   H10F11425   0.917   6.106   9.333  0.3898  0.7863 -0.0534
  110OSM   C11F11426   1.128   6.126   9.290 -0.3637 -0.1745  0.3923
  110OSM   H11F11427   1.218   6.126   9.355 -1.6756  0.2828  2.3175
  110OSM   H11G11428   1.114   6.230   9.254 -0.4884 -0.7799 -1.4257
  110OSM   C12F11429   1.159   6.053   9.161  0.0432  0.7544 -0.0379
  110OSM   H12F11430   1.064   6.039   9.104 -0.5854 -0.8978  1.3384
  110OSM   H12G11431   1.210   5.957   9.183  1.3641  1.5158  0.3196
  110OSM   C13F11432   1.257   6.128   9.067  0.4045  0.0002  0.9550
  110OSM   H13F11433   1.357   6.145   9.113  1.1737  0.6370 -0.8609
  110OSM   H13G11434   1.219   6.232   9.061 -1.1933 -0.5363  1.4717
  110OSM   C14F11435   1.268   6.073   8.922  0.3793  0.1582  0.0985
  110OSM   H14F11436   1.171   6.084   8.869  0.7259  2.8492 -0.1045
  110OSM   H14G11437   1.310   5.971   8.934  2.0411  1.0036  2.0488
  110OSM   C15F11438   1.364   6.154   8.842  0.7560 -0.4703  0.2976
  110OSM   H15F11439   1.467   6.158   8.882 -0.1129 -1.1322  2.7479
  110OSM   H15G11440   1.331   6.260   8.830  3.0144  0.2788  0.1862
  110OSM   C16F11441   1.379   6.114   8.693  0.3760 -0.3570  0.1512
  110OSM   H16F11442   1.273   6.119   8.661  0.1573  2.2800  1.0158
  110OSM   H16G11443   1.426   6.014   8.697 -0.0713 -0.5640  0.3277
  110OSM   C17F11444   1.441   6.222   8.599 -0.3165 -0.2904 -0.1823
  110OSM   H17F11445   1.364   6.298   8.574 -2.6102 -2.8620 -1.4903
  110OSM   H17G11446   1.464   6.167   8.505  0.2642 -0.7554  0.2250
  110OSM   C18F11447   1.569   6.289   8.647  0.1529  0.9075 -0.6923
  110OSM   H18F11448   1.656   6.219   8.647 -1.6756 -1.5119 -1.6403
  110OSM   H18G11449   1.578   6.300   8.757  1.2746  0.4090 -0.7158
  110OSM   H18H11450   1.578   6.391   8.603 -1.0096  0.2209 -2.5961
  111OSM      N11451   2.027   0.974  11.048  0.6910 -0.0283  0.4506
  111OSM    C1511452   2.161   0.905  11.042  0.1006 -0.1351 -0.0097
  111OSM   H15A11453   2.212   0.934  10.952 -1.6805  0.4733 -0.8730
  111OSM   H15B11454   2.145   0.798  11.043 -3.7952  0.3092 -0.7152
  111OSM   H15C11455   2.212   0.936  11.132 -0.3969 -3.7264  1.7292
  111OSM    C1411456   1.965   0.926  11.177  0.1176 -0.3831 -0.1748
  111OSM   H14A11457   2.035   0.928  11.260 -2.6495 -3.2440  2.5438
  111OSM   H14B11458   1.933   0.824  11.164 -0.4353 -0.0870 -1.1783
  111OSM   H14C11459   1.880   0.987  11.202 -0.2896  1.1058 -4.4959
  111OSM    C1311460   2.054   1.121  11.071  0.1786 -0.0799  0.1267
  111OSM   H13A11461   1.972   1.180  11.108  1.7195  0.9222  2.1364
  111OSM   H13B11462   2.085   1.176  10.983 -2.0055  2.9717  1.1302
  111OSM   H13C11463   2.132   1.136  11.144 -1.3732  2.1723  1.4263
  111OSM    C1211464   1.938   0.940  10.931 -0.1576 -0.0159 -0.2220
  111OSM   H12A11465   1.845   0.993  10.940 -0.5423 -0.2480 -2.3007
  111OSM   H12B11466   1.915   0.835  10.922 -0.9092  0.2052 -1.0177
  111OSM    C1111467   1.992   0.979  10.791  0.0951 -0.1693  0.2524
  111OSM   H11A11468   1.936   0.932  10.707 -0.5702 -0.1875  0.6950
  111OSM   H11B11469   2.092   0.932  10.779  0.4014  0.5192  0.1109
  111OSM      P11470   1.861   1.204  10.761 -0.0701 -0.3038 -0.0999
  111OSM    O1311471   1.745   1.136  10.831 -0.2141 -0.5004  0.4710
  111OSM    O1411472   1.889   1.346  10.778  0.6616  0.2394 -0.4649
  111OSM    O1111473   1.839   1.179  10.604 -0.6338 -0.1320 -0.3245
  111OSM    O1211474   1.997   1.120  10.783  0.5470 -0.3859  0.7735
  111OSM    C1S11475   1.950   1.178  10.518 -0.1981  0.7594  0.3716
  111OSM    H1S11476   2.012   1.087  10.533  0.3250  0.9744 -0.4077
  111OSM    H1T11477   2.024   1.251  10.557 -0.3807  0.3589  1.5018
  111OSM     NF11478   2.046   1.180  10.304  0.5420  0.3136 -0.0798
  111OSM    HNF11479   2.081   1.260  10.256  1.2407  1.7332  2.6287
  111OSM    C2S11480   1.913   1.182  10.365 -0.3028 -0.4951 -0.4807
  111OSM    H2S11481   1.856   1.090  10.342  0.3051 -0.2094 -3.7180
  111OSM    C3S11482   1.835   1.313  10.337  0.3634  0.1089  0.1426
  111OSM    H3S11483   1.899   1.396  10.375 -0.2467  0.4313  0.4859
  111OSM     O311484   1.711   1.333  10.408  0.0774  0.3623  0.0700
  111OSM    HO311485   1.707   1.277  10.485 -0.6385  1.7687  1.0993
  111OSM    C4S11486   1.819   1.339  10.187 -0.5333  0.0267  0.5796
  111OSM    H4S11487   1.903   1.397  10.147 -0.1581  1.5504  3.3324
  111OSM    C5S11488   1.725   1.305  10.107 -0.1394 -0.0820  0.5090
  111OSM    H5S11489   1.628   1.266  10.140  0.4091 -0.0435  2.2680
  111OSM    C6S11490   1.736   1.345   9.961  0.0681 -0.5510 -0.0864
  111OSM    H6S11491   1.680   1.435   9.928  2.6219  1.1249 -0.0567
  111OSM    H6T11492   1.681   1.269   9.900 -1.4022 -0.2290  0.7894
  111OSM    C7S11493   1.877   1.356   9.906  0.5958  0.0081  0.4459
  111OSM    H7S11494   1.943   1.270   9.932  1.2923 -0.1684 -1.6825
  111OSM    H7T11495   1.929   1.447   9.941  2.2716 -1.0080  0.7055
  111OSM    C8S11496   1.868   1.367   9.758 -0.2624 -0.2791 -0.5139
  111OSM    H8S11497   1.797   1.450   9.739  1.3427  1.2025 -0.3028
  111OSM    H8T11498   1.830   1.272   9.716 -0.5837  0.2326 -1.4110
  111OSM    C9S11499   2.000   1.425   9.704  0.1592  0.0562  0.3214
  111OSM    H9S11500   2.082   1.357   9.735 -0.8854 -1.3644  0.0483
  111OSM    H9T11501   2.021   1.523   9.752  1.9698 -0.1285 -0.0017
  111OSM   C10S11502   2.002   1.432   9.551 -0.0606  0.4468 -0.5825
  111OSM   H10S11503   1.911   1.488   9.522 -0.4788  1.4144  2.2277
  111OSM   H10T11504   1.986   1.332   9.504  2.2779 -0.0405 -0.4764
  111OSM   C11S11505   2.137   1.475   9.492  0.2828  0.4517 -0.0249
  111OSM   H11S11506   2.217   1.409   9.534  1.1004  0.4647 -1.5061
  111OSM   H11T11507   2.171   1.579   9.514  2.1637  0.0714 -0.9463
  111OSM   C12S11508   2.135   1.458   9.344  0.0965 -0.2913 -0.2321
  111OSM   H12S11509   2.064   1.528   9.295 -1.0109 -1.3484 -0.1778
  111OSM   H12T11510   2.110   1.352   9.320 -1.1623  0.0387 -0.4509
  111OSM   C13S11511   2.274   1.488   9.281 -0.8010 -0.6341  0.5618
  111OSM   H13S11512   2.359   1.460   9.348  1.5344  4.0036 -0.0995
  111OSM   H13T11513   2.283   1.599   9.281  0.6115 -0.7302  0.6722
  111OSM   C14S11514   2.293   1.430   9.141  0.1246 -0.0554 -0.2793
  111OSM   H14S11515   2.215   1.470   9.073  0.9818 -0.8443 -1.7936
  111OSM   H14T11516   2.266   1.324   9.155 -0.7810  0.0629 -1.0703
  111OSM   C15S11517   2.430   1.446   9.084 -0.9436  0.2105  0.2332
  111OSM   H15S11518   2.514   1.422   9.152 -0.7646 -1.2540 -0.4706
  111OSM   H15T11519   2.449   1.546   9.040  1.7013  0.4238  1.6568
  111OSM   C16S11520   2.465   1.351   8.965  0.3793  0.1262  0.6601
  111OSM   H16S11521   2.425   1.254   9.001  0.4775  0.1221  0.7615
  111OSM   H16T11522   2.576   1.353   8.964  0.3771  1.1815  1.0940
  111OSM   C17S11523   2.383   1.392   8.845 -0.8099  1.0601 -0.2754
  111OSM   H17S11524   2.273   1.400   8.858 -1.1909 -2.7881 -0.0562
  111OSM   H17T11525   2.401   1.307   8.775  0.3698  1.0176  0.0667
  111OSM   C18S11526   2.437   1.516   8.769  0.4412 -0.5318  0.5005
  111OSM   H18S11527   2.385   1.536   8.672  2.4628  1.2412 -0.3141
  111OSM   H18T11528   2.547   1.512   8.759  0.7167  0.8767  2.4173
  111OSM   H18U11529   2.415   1.608   8.828 -0.7642 -1.2911  1.2725
  111OSM    C1F11530   2.118   1.069  10.294  0.7748  0.6076 -0.5530
  111OSM     OF11531   2.082   0.967  10.354 -0.0494  0.3434  0.3192
  111OSM    C2F11532   2.249   1.072  10.211  0.0822 -0.1106 -0.5038
  111OSM    H2F11533   2.322   1.013  10.271 -0.9713 -0.7640  0.1767
  111OSM    H2G11534   2.286   1.176  10.198  3.1626 -1.2428 -1.7366
  111OSM    C3F11535   2.242   1.007  10.071  0.2743  0.4134  0.7544
  111OSM    H3F11536   2.156   1.042  10.011  1.9974  1.8727 -0.9973
  111OSM    H3G11537   2.224   0.898  10.085  0.8736  0.3580  1.1286
  111OSM    C4F11538   2.381   1.000  10.009 -0.4252 -0.1737 -0.6784
  111OSM    H4F11539   2.441   0.928  10.069  0.7226  1.1385 -0.1863
  111OSM    H4G11540   2.441   1.093  10.016 -0.5971 -0.0024 -1.4146
  111OSM    C5F11541   2.384   0.954   9.868  0.1140 -0.3297  0.3193
  111OSM    H5F11542   2.301   0.883   9.848  0.3819 -1.0999  1.7635
  111OSM    H5G11543   2.480   0.898   9.854 -0.3080 -1.3272  1.2530
  111OSM    C6F11544   2.374   1.063   9.761  0.4240 -0.3747 -0.7092
  111OSM    H6F11545   2.461   1.131   9.761  0.4303 -0.2549  2.3863
  111OSM    H6G11546   2.282   1.121   9.784 -1.0716 -1.8438 -2.6215
  111OSM    C7F11547   2.364   1.008   9.620  0.0620 -0.1881 -0.4123
  111OSM    H7F11548   2.283   0.933   9.617  0.5913 -0.9001  1.4326
  111OSM    H7G11549   2.462   0.958   9.600 -0.6580 -2.2462  0.9620
  111OSM    C8F11550   2.328   1.116   9.519 -0.4291 -0.7073  0.6816
  111OSM    H8F11551   2.252   1.184   9.563 -0.0967  1.4213 -1.7852
  111OSM    H8G11552   2.265   1.060   9.447  0.1724 -1.5836  0.8199
  111OSM    C9F11553   2.447   1.187   9.451 -0.1717 -0.0810 -0.7825
  111OSM    H9F11554   2.481   1.273   9.511 -2.6931 -0.6672  1.7368
  111OSM   C10F11555   2.500   1.158   9.329  0.0760 -0.5061  0.2429
  111OSM   H10F11556   2.580   1.216   9.280 -2.1726  1.0391 -1.8370
  111OSM   C11F11557   2.452   1.043   9.236  0.3641 -0.1361 -0.1769
  111OSM   H11F11558   2.364   1.089   9.186  0.9037  1.3763  0.2233
  111OSM   H11G11559   2.419   0.964   9.306  1.2497  0.2997  0.7679
  111OSM   C12F11560   2.555   0.985   9.136  0.2783  0.1720 -0.6599
  111OSM   H12F11561   2.577   1.049   9.048  2.5630 -0.4332 -0.5976
  111OSM   H12G11562   2.512   0.891   9.096  0.2966 -1.4943  2.8406
  111OSM   C13F11563   2.692   0.953   9.201  0.7255 -0.0961 -0.4569
  111OSM   H13F11564   2.676   0.863   9.265 -0.9545  0.4328 -0.0751
  111OSM   H13G11565   2.728   1.036   9.265 -1.8770  1.6998 -1.1247
  111OSM   C14F11566   2.815   0.938   9.103 -0.5908  0.3564 -0.8463
  111OSM   H14F11567   2.902   0.901   9.162 -4.0165 -1.8711  3.4511
  111OSM   H14G11568   2.836   1.028   9.042  2.0929  0.2956 -0.1166
  111OSM   C15F11569   2.791   0.827   8.986  0.1486 -0.3936 -1.2737
  111OSM   H15F11570   2.703   0.865   8.930 -0.1860  0.3361 -0.2742
  111OSM   H15G11571   2.762   0.728   9.027  0.4905  0.4345  1.1333
  111OSM   C16F11572   2.913   0.814   8.895 -0.3957 -0.4074 -0.6922
  111OSM   H16F11573   3.000   0.802   8.964 -2.0908  2.4190  2.1824
  111OSM   H16G11574   2.931   0.902   8.830 -1.9081 -1.0125 -1.9681
  111OSM   C17F11575   2.894   0.692   8.810 -0.1475  0.0760  0.1327
  111OSM   H17F11576   2.798   0.701   8.755  1.0167 -0.0383 -2.0207
  111OSM   H17G11577   2.872   0.606   8.877 -0.8919  0.0627 -0.1146
  111OSM   C18F11578   3.021   0.667   8.731  0.0600  0.0598 -0.4010
  111OSM   H18F11579   3.114   0.662   8.793 -1.5800  0.0057  2.1951
  111OSM   H18G11580   3.033   0.751   8.660  0.6687  0.5699  0.2783
  111OSM   H18H11581   3.019   0.573   8.672  2.1720 -1.1684  1.3083
  112OSM      N11582   1.835   6.157  11.448 -0.6285 -0.9065  0.1963
  112OSM    C1511583   1.840   6.086  11.313  0.0388  0.6605  0.8168
  112OSM   H15A11584   1.741   6.060  11.279  1.1218  0.0674 -2.2202
  112OSM   H15B11585   1.887   5.992  11.336 -0.1423  1.0499  2.9959
  112OSM   H15C11586   1.878   6.143  11.230  0.1495 -0.6437 -0.0437
  112OSM    C1411587   1.788   6.061  11.548 -0.2741  0.8353 -0.3212
  112OSM   H14A11588   1.862   5.983  11.546  1.4004  2.3456 -0.7170
  112OSM   H14B11589   1.697   6.015  11.514 -0.8907  2.5361 -1.1100
  112OSM   H14C11590   1.775   6.098  11.648 -2.1342  0.1002 -0.2701
  112OSM    C1311591   1.974   6.203  11.489 -0.0749  0.0466  0.1774
  112OSM   H13A11592   1.970   6.253  11.585  0.2183  2.6487 -1.0813
  112OSM   H13B11593   2.017   6.275  11.421 -0.3989  0.1020  0.0340
  112OSM   H13C11594   2.038   6.122  11.522 -0.3164  0.0919  0.7781
  112OSM    C1211595   1.736   6.267  11.444 -0.5322  0.2901 -0.7959
  112OSM   H12A11596   1.715   6.294  11.547  1.3119  3.1032 -1.0539
  112OSM   H12B11597   1.648   6.223  11.399 -1.5436 -1.1293  2.2550
  112OSM    C1111598   1.769   6.396  11.369  0.2979  0.0464 -0.3569
  112OSM   H11A11599   1.862   6.445  11.405  1.0004 -1.2070 -0.3831
  112OSM   H11B11600   1.689   6.471  11.382  1.2424  1.2463 -1.2232
  112OSM      P11601   1.681   6.387  11.126 -0.2367 -0.1133 -0.1435
  112OSM    O1311602   1.557   6.346  11.193 -0.6198  0.4995  0.3029
  112OSM    O1411603   1.684   6.511  11.046 -1.0786  0.1906  0.0146
  112OSM    O1111604   1.726   6.270  11.035 -0.0230 -0.3331  0.1739
  112OSM    O1211605   1.796   6.377  11.228 -0.1715 -0.2688 -0.2470
  112OSM    C1S11606   1.688   6.271  10.899  0.3114  0.0597  0.6380
  112OSM    H1S11607   1.677   6.371  10.851 -0.0958 -0.5251 -0.5541
  112OSM    H1T11608   1.592   6.217  10.881 -0.6927  1.6435  1.0068
  112OSM     NF11609   1.758   6.178  10.679 -0.4686 -0.3740 -0.0240
  112OSM    HNF11610   1.711   6.094  10.654 -0.1290 -0.8774  0.9866
  112OSM    C2S11611   1.796   6.191  10.818 -0.1825  0.0412 -0.7985
  112OSM    H2S11612   1.892   6.247  10.821 -1.4373  2.3165 -0.1862
  112OSM    C3S11613   1.838   6.061  10.885 -0.2875 -0.2120 -0.3299
  112OSM    H3S11614   1.749   5.997  10.905  0.6482 -1.4819 -0.1198
  112OSM     O311615   1.897   6.078  11.012  0.0991 -0.3935 -0.8459
  112OSM    HO311616   1.852   6.157  11.044 -2.8365 -2.3065  0.2043
  112OSM    C4S11617   1.935   5.990  10.793 -0.2934  0.6837 -0.4104
  112OSM    H4S11618   1.898   5.929  10.709  0.0009  3.0468 -2.3765
  112OSM    C5S11619   2.073   5.993  10.803  0.0148 -0.3124  0.2222
  112OSM    H5S11620   2.123   6.049  10.884  0.3247  2.5610 -1.7983
  112OSM    C6S11621   2.149   5.916  10.700  0.0279  0.2316  0.0444
  112OSM    H6S11622   2.198   5.833  10.754  0.1384  0.0060 -0.4018
  112OSM    H6T11623   2.231   5.980  10.661  0.6695 -0.5225  0.1487
  112OSM    C7S11624   2.079   5.850  10.581  0.0012  0.6344  0.6242
  112OSM    H7S11625   2.016   5.916  10.518  1.0173 -0.6264 -1.8377
  112OSM    H7T11626   2.022   5.760  10.611 -0.3150  0.0735 -1.4713
  112OSM    C8S11627   2.173   5.789  10.484 -0.4499 -0.1880  0.2570
  112OSM    H8S11628   2.205   5.690  10.523  2.5224  1.2154  1.7050
  112OSM    H8T11629   2.259   5.858  10.475  1.4292 -2.0025  2.7622
  112OSM    C9S11630   2.123   5.779  10.339  0.5146 -0.5469  0.4040
  112OSM    H9S11631   2.111   5.886  10.314  2.1618 -0.9024 -2.2843
  112OSM    H9T11632   2.026   5.726  10.339  0.1651  0.0374  1.7712
  112OSM   C10S11633   2.206   5.708  10.236 -0.0667 -0.0177  0.1638
  112OSM   H10S11634   2.195   5.597  10.229  2.8519 -0.3878  0.0028
  112OSM   H10T11635   2.307   5.754  10.240  0.5921 -0.6722 -4.0110
  112OSM   C11S11636   2.157   5.748  10.098 -0.4259 -0.3965  0.6134
  112OSM   H11S11637   2.163   5.858  10.084 -1.8321 -0.4814 -0.9804
  112OSM   H11T11638   2.051   5.715  10.091 -0.0825 -1.7693  1.4659
  112OSM   C12S11639   2.224   5.670   9.974  0.1581  0.3646 -0.7267
  112OSM   H12S11640   2.195   5.562   9.977 -0.1740  0.4803  0.7005
  112OSM   H12T11641   2.334   5.685   9.972  0.3812 -0.8471  0.5370
  112OSM   C13S11642   2.176   5.747   9.850  0.1662 -0.1281  0.8902
  112OSM   H13S11643   2.209   5.852   9.860 -1.2752  0.4134  0.2857
  112OSM   H13T11644   2.067   5.733   9.831  0.5723 -3.5917  0.3985
  112OSM   C14S11645   2.243   5.688   9.730  0.1140 -0.0977 -0.2511
  112OSM   H14S11646   2.226   5.578   9.740 -2.3529  0.2190 -0.5256
  112OSM   H14T11647   2.353   5.707   9.731  0.0746  0.1247  0.4566
  112OSM   C15S11648   2.165   5.730   9.605 -0.7146 -0.5981  0.1801
  112OSM   H15S11649   2.197   5.833   9.577  4.2781 -1.8608  0.3688
  112OSM   H15T11650   2.055   5.732   9.622 -0.4512  2.0491  2.4800
  112OSM   C16S11651   2.188   5.633   9.488 -0.0757 -0.1806  0.4638
  112OSM   H16S11652   2.099   5.621   9.423  0.9886  2.4592 -1.7160
  112OSM   H16T11653   2.220   5.533   9.524 -0.6720 -0.5139  0.0668
  112OSM   C17S11654   2.294   5.684   9.396 -0.2813  0.3711  0.2720
  112OSM   H17S11655   2.389   5.698   9.451  0.6533 -3.0426 -0.2701
  112OSM   H17T11656   2.275   5.790   9.366 -1.1032  0.0937 -0.2503
  112OSM   C18S11657   2.326   5.585   9.283  0.3465 -0.1719 -0.2080
  112OSM   H18S11658   2.388   5.638   9.207 -0.6307 -0.8128 -1.4916
  112OSM   H18T11659   2.228   5.556   9.239 -0.2077  0.9511  0.2526
  112OSM   H18U11660   2.385   5.498   9.318 -0.3213  0.3785  2.5140
  112OSM    C1F11661   1.762   6.286  10.602  0.7169 -1.1761  0.3998
  112OSM     OF11662   1.835   6.383  10.633 -0.2321 -0.3506  0.1678
  112OSM    C2F11663   1.676   6.294  10.479  0.3831  0.3811 -0.0658
  112OSM    H2F11664   1.627   6.393  10.478 -0.1522  0.1426  1.1970
  112OSM    H2G11665   1.603   6.210  10.478  1.4751 -0.6055  0.1621
  112OSM    C3F11666   1.761   6.284  10.345 -0.3679 -0.5300 -0.2977
  112OSM    H3F11667   1.809   6.186  10.326 -0.0556 -0.2833 -0.8048
  112OSM    H3G11668   1.850   6.351  10.354 -0.4266 -0.4207 -0.5379
  112OSM    C4F11669   1.682   6.330  10.226 -0.3923 -0.7666  0.0527
  112OSM    H4F11670   1.660   6.438  10.243 -0.5578 -0.0731 -3.6505
  112OSM    H4G11671   1.583   6.278  10.224  0.6329 -2.7942 -0.1149
  112OSM    C5F11672   1.766   6.321  10.105  0.7213  0.1289  0.7633
  112OSM    H5F11673   1.691   6.342  10.026 -0.7677 -0.7860  1.8802
  112OSM    H5G11674   1.807   6.220  10.087  1.9518  0.3840  1.9582
  112OSM    C6F11675   1.879   6.423  10.095 -0.3882 -0.2432 -0.1313
  112OSM    H6F11676   1.949   6.408  10.180 -0.7841 -1.2746  0.0236
  112OSM    H6G11677   1.841   6.527  10.092 -0.7259 -0.3307  0.9083
  112OSM    C7F11678   1.955   6.398   9.965 -0.4339 -0.0419  0.2822
  112OSM    H7F11679   1.998   6.296   9.978 -2.1016 -0.7726  0.3451
  112OSM    H7G11680   2.045   6.463   9.960  0.5103 -1.2294  1.2154
  112OSM    C8F11681   1.872   6.402   9.835  0.1321 -0.2742 -0.5181
  112OSM    H8F11682   1.798   6.484   9.847  0.0845 -0.1296 -1.6979
  112OSM    H8G11683   1.817   6.306   9.834 -0.6576  0.0839  1.6526
  112OSM    C9F11684   1.969   6.399   9.724  0.5431  0.1395  0.3223
  112OSM    H9F11685   2.072   6.374   9.751  0.0445 -0.0814  2.1795
  112OSM   C10F11686   1.935   6.438   9.599  0.1435  0.3330 -0.4661
  112OSM   H10F11687   2.011   6.425   9.521 -0.1529  1.2408 -0.9127
  112OSM   C11F11688   1.793   6.484   9.571  0.2672  0.0446  0.5153
  112OSM   H11F11689   1.793   6.595   9.574  0.4832  0.1318 -1.6009
  112OSM   H11G11690   1.726   6.442   9.650 -0.3964 -2.3233 -1.2073
  112OSM   C12F11691   1.750   6.434   9.431  0.3062  0.7375  0.2462
  112OSM   H12F11692   1.643   6.448   9.403  0.6637  1.0055 -1.0629
  112OSM   H12G11693   1.767   6.324   9.419 -1.1674  0.5684 -0.6447
  112OSM   C13F11694   1.820   6.504   9.315 -0.0279  1.0517 -0.4435
  112OSM   H13F11695   1.930   6.490   9.324 -0.0071  0.0051 -1.8980
  112OSM   H13G11696   1.789   6.611   9.312  0.5663  1.2100 -1.5769
  112OSM   C14F11697   1.771   6.443   9.187 -0.5783 -0.3694  0.6225
  112OSM   H14F11698   1.666   6.475   9.171 -0.0478  1.4163  0.5104
  112OSM   H14G11699   1.771   6.333   9.201 -0.7223 -0.7653 -1.9572
  112OSM   C15F11700   1.853   6.478   9.063 -0.3696  0.0230 -0.1801
  112OSM   H15F11701   1.956   6.494   9.102 -0.1177 -0.6433 -0.5641
  112OSM   H15G11702   1.820   6.581   9.036  0.0248  1.0196  2.7719
  112OSM   C16F11703   1.855   6.362   8.963  0.6304  0.2765  0.1154
  112OSM   H16F11704   1.764   6.299   8.968 -0.8246  2.3197  0.4025
  112OSM   H16G11705   1.940   6.295   8.988  0.3683 -1.0752 -2.2908
  112OSM   C17F11706   1.852   6.402   8.814  0.0754 -0.1143  0.5713
  112OSM   H17F11707   1.753   6.432   8.771  1.1887  1.3082 -1.1612
  112OSM   H17G11708   1.883   6.314   8.754  1.2527  0.9403 -0.4436
  112OSM   C18F11709   1.953   6.505   8.775  0.0335  0.4876  0.1487
  112OSM   H18F11710   1.958   6.510   8.664  0.2702 -1.4335  0.0303
  112OSM   H18G11711   2.054   6.480   8.814  0.5060  0.7730 -0.8699
  112OSM   H18H11712   1.922   6.601   8.821 -0.0537  0.0059  1.1233
  113OSM      N11713   5.864   5.236  11.121  0.5875  0.1864  0.3655
  113OSM    C1511714   5.930   5.258  10.986  0.2413 -0.0467 -0.8802
  113OSM   H15A11715   5.948   5.170  10.927  0.4480 -0.1657 -0.6418
  113OSM   H15B11716   6.031   5.286  11.012  0.7124 -3.2346  1.2662
  113OSM   H15C11717   5.878   5.336  10.933  0.1685  0.9218  0.5421
  113OSM    C1411718   5.915   5.340  11.215  0.2716  0.3959  0.1598
  113OSM   H14A11719   5.885   5.437  11.177 -1.4915 -0.6176 -1.1982
  113OSM   H14B11720   6.017   5.330  11.248  0.5908 -2.8207 -1.4093
  113OSM   H14C11721   5.864   5.324  11.308  0.2136 -0.4562 -0.0144
  113OSM    C1311722   5.719   5.245  11.097  0.0560 -0.2260  0.0883
  113OSM   H13A11723   5.692   5.184  11.012  1.9619 -0.7490 -0.1812
  113OSM   H13B11724   5.686   5.346  11.075 -2.3464 -0.7637  0.9589
  113OSM   H13C11725   5.668   5.208  11.184 -3.3045 -0.9645 -2.0305
  113OSM    C1211726   5.898   5.096  11.176 -0.6468 -0.8010  0.2321
  113OSM   H12A11727   5.835   5.074  11.260 -2.5292 -1.7902 -1.3608
  113OSM   H12B11728   6.000   5.110  11.209 -0.7306 -0.9647  0.5544
  113OSM    C1111729   5.891   4.970  11.082  0.5553 -0.2125  0.1661
  113OSM   H11A11730   5.789   4.966  11.040  0.6187  1.5382 -0.2280
  113OSM   H11B11731   5.889   4.872  11.134 -0.4221  0.6317  1.8113
  113OSM      P11732   6.137   4.906  11.002 -0.2902 -0.1269 -0.2938
  113OSM    O1311733   6.227   5.014  11.031  0.4445 -0.4752  0.1684
  113OSM    O1411734   6.135   4.810  11.117  0.1477 -0.0214 -0.0834
  113OSM    O1111735   6.171   4.831  10.871  0.6279 -0.1070  0.6130
  113OSM    O1211736   5.983   4.962  10.972  0.4453  0.0436 -0.6514
  113OSM    C1S11737   6.306   4.820  10.822  0.0721 -0.5135  0.0715
  113OSM    H1S11738   6.374   4.781  10.900  1.7210  1.6335 -0.1819
  113OSM    H1T11739   6.348   4.917  10.788  0.3690 -0.7848 -0.3444
  113OSM     NF11740   6.477   4.737  10.668  0.1213  0.1291  0.4021
  113OSM    HNF11741   6.497   4.816  10.611 -1.0827  1.6794  2.0129
  113OSM    C2S11742   6.333   4.734  10.697  0.3170 -0.3153  0.1329
  113OSM    H2S11743   6.316   4.626  10.717  2.6711 -0.3635  2.4225
  113OSM    C3S11744   6.234   4.781  10.584 -0.8004  0.0256  0.0051
  113OSM    H3S11745   6.265   4.882  10.551  2.5207 -0.8654  0.1090
  113OSM     O311746   6.096   4.782  10.624 -0.0844 -0.1032  0.3467
  113OSM    HO311747   6.092   4.765  10.719  0.0260  1.8678  0.7427
  113OSM    C4S11748   6.250   4.695  10.462  0.3273  0.0452 -0.4096
  113OSM    H4S11749   6.309   4.742  10.382  1.0617 -0.0200  0.0920
  113OSM    C5S11750   6.183   4.585  10.427  0.1095  0.8967  0.0918
  113OSM    H5S11751   6.098   4.550  10.488  1.0106 -0.8931  0.4017
  113OSM    C6S11752   6.217   4.507  10.299  0.2847  0.6314  0.1748
  113OSM    H6S11753   6.120   4.499  10.246  0.2473 -2.4570  0.5187
  113OSM    H6T11754   6.252   4.406  10.331  1.6989  0.9206 -0.3712
  113OSM    C7S11755   6.331   4.554  10.209  0.7817 -0.2259 -0.5676
  113OSM    H7S11756   6.424   4.560  10.269  1.5383  0.8851 -1.8055
  113OSM    H7T11757   6.299   4.656  10.181  0.0484  0.0160  1.0128
  113OSM    C8S11758   6.337   4.478  10.077 -0.2395  0.0065 -0.5900
  113OSM    H8S11759   6.232   4.452  10.052 -0.5672  0.7291 -0.0104
  113OSM    H8T11760   6.380   4.379  10.105 -0.7807 -0.5878 -1.7602
  113OSM    C9S11761   6.402   4.553   9.962 -0.3035  0.0830  0.4344
  113OSM    H9S11762   6.507   4.549   9.998 -0.6437 -4.8613  1.5999
  113OSM    H9T11763   6.356   4.654   9.967 -2.1753 -0.7455  0.6144
  113OSM   C10S11764   6.378   4.494   9.815  0.3025 -0.4579 -0.2903
  113OSM   H10S11765   6.275   4.510   9.774  0.8349  0.1369 -1.4566
  113OSM   H10T11766   6.401   4.386   9.812 -1.2378 -0.8226 -0.0596
  113OSM   C11S11767   6.464   4.564   9.709  0.9420 -0.7493  0.5391
  113OSM   H11S11768   6.570   4.532   9.718  1.9699  1.8813 -1.0726
  113OSM   H11T11769   6.452   4.674   9.710  1.1212 -0.7310  0.5630
  113OSM   C12S11770   6.417   4.500   9.576 -0.7546 -0.6958 -0.1795
  113OSM   H12S11771   6.310   4.516   9.551 -1.7092 -3.8410  1.3091
  113OSM   H12T11772   6.410   4.389   9.587 -1.7415 -1.1202 -3.9048
  113OSM   C13S11773   6.500   4.551   9.461  0.0487  0.9401 -0.4461
  113OSM   H13S11774   6.609   4.547   9.480  0.2499  1.2777 -1.4650
  113OSM   H13T11775   6.470   4.654   9.430 -2.5898  0.5605  0.6017
  113OSM   C14S11776   6.461   4.467   9.343 -0.2295  0.0740  0.0896
  113OSM   H14S11777   6.354   4.472   9.314 -0.0978  1.7126 -0.2215
  113OSM   H14T11778   6.488   4.361   9.365  1.0461 -0.2459 -2.6120
  113OSM   C15S11779   6.541   4.494   9.218 -0.3255 -0.6414  0.6743
  113OSM   H15S11780   6.650   4.499   9.239 -0.2952  3.3850  0.3464
  113OSM   H15T11781   6.534   4.603   9.197 -0.0156 -0.3589  1.9607
  113OSM   C16S11782   6.500   4.402   9.101 -0.4752 -0.1167 -0.7929
  113OSM   H16S11783   6.393   4.380   9.120 -0.2594  0.4688  1.4712
  113OSM   H16T11784   6.556   4.306   9.106 -0.4905 -0.1463 -1.1870
  113OSM   C17S11785   6.508   4.475   8.967 -0.0856 -0.6180  0.1519
  113OSM   H17S11786   6.617   4.477   8.950 -0.1309  0.9497 -0.0782
  113OSM   H17T11787   6.462   4.575   8.983  0.7619 -0.3420  0.9248
  113OSM   C18S11788   6.448   4.409   8.845  0.0868  0.1239  0.5414
  113OSM   H18S11789   6.469   4.300   8.847 -1.4811 -0.2015  1.6376
  113OSM   H18T11790   6.479   4.459   8.751 -0.6688  0.4061  0.4368
  113OSM   H18U11791   6.338   4.423   8.850 -0.4127 -2.7555 -0.8944
  113OSM    C1F11792   6.566   4.663  10.735  0.9023 -0.8108  0.2432
  113OSM     OF11793   6.533   4.615  10.842  0.1615 -0.1562 -0.0119
  113OSM    C2F11794   6.708   4.678  10.688 -0.5395  0.1367  0.7256
  113OSM    H2F11795   6.767   4.681  10.782 -1.0002  0.5015  1.0043
  113OSM    H2G11796   6.710   4.772  10.629 -0.0370  0.9562  1.9955
  113OSM    C3F11797   6.752   4.559  10.601 -0.0453  0.2492 -0.1238
  113OSM    H3F11798   6.721   4.463  10.646  0.6842 -0.2808 -0.7339
  113OSM    H3G11799   6.862   4.566  10.614 -0.2614  0.6585  1.7418
  113OSM    C4F11800   6.697   4.567  10.459  0.0400 -0.5433  0.0060
  113OSM    H4F11801   6.723   4.668  10.422  0.6871 -0.4871  0.5933
  113OSM    H4G11802   6.586   4.559  10.461 -0.3001  2.5826  2.8387
  113OSM    C5F11803   6.746   4.445  10.377 -0.2967 -0.3571 -0.5038
  113OSM    H5F11804   6.681   4.359  10.398 -0.8064  0.3268  0.8173
  113OSM    H5G11805   6.851   4.429  10.411 -0.5398  1.7059  1.4505
  113OSM    C6F11806   6.730   4.463  10.227 -0.6983 -0.5891  0.1585
  113OSM    H6F11807   6.751   4.571  10.212  1.2376 -0.6947  1.7948
  113OSM    H6G11808   6.622   4.445  10.204 -0.5214 -1.3117 -0.1221
  113OSM    C7F11809   6.829   4.367  10.156  0.3840  0.6039 -0.2053
  113OSM    H7F11810   6.793   4.267  10.187 -2.3847  0.7558 -2.5714
  113OSM    H7G11811   6.936   4.379  10.183  0.4198 -2.2428  1.2248
  113OSM    C8F11812   6.809   4.370   9.998  0.2033  0.5453 -0.3546
  113OSM    H8F11813   6.902   4.333   9.950 -0.1044 -0.1056 -0.4626
  113OSM    H8G11814   6.806   4.477   9.966 -0.8822  0.7217  0.2695
  113OSM    C9F11815   6.687   4.305   9.948  0.0634 -0.6470  0.4392
  113OSM    H9F11816   6.596   4.349   9.990  1.3532  0.9819  1.6391
  113OSM   C10F11817   6.682   4.191   9.879 -0.3310  0.4043 -0.4618
  113OSM   H10F11818   6.588   4.147   9.845  0.5506 -0.7811 -1.4600
  113OSM   C11F11819   6.805   4.119   9.822 -0.0142  0.1870 -0.0313
  113OSM   H11F11820   6.770   4.021   9.783 -1.8012  0.7710  0.0111
  113OSM   H11G11821   6.891   4.102   9.891 -0.4666  1.4075  0.8781
  113OSM   C12F11822   6.854   4.194   9.694  0.4136  0.2232 -0.1227
  113OSM   H12F11823   6.872   4.301   9.715  0.2156  0.0827  0.8290
  113OSM   H12G11824   6.781   4.191   9.610 -0.0511 -0.9112  0.2901
  113OSM   C13F11825   6.983   4.134   9.638 -0.1192  0.0432  0.1234
  113OSM   H13F11826   6.966   4.024   9.638  0.5872 -0.0793  0.9539
  113OSM   H13G11827   7.075   4.147   9.698  0.5903 -0.6182 -0.8001
  113OSM   C14F11828   7.014   4.184   9.487  0.7075  0.6000 -0.5544
  113OSM   H14F11829   7.118   4.153   9.462  0.9516  1.4553 -0.6232
  113OSM   H14G11830   7.010   4.294   9.482  1.6898  0.6006 -2.0281
  113OSM   C15F11831   6.918   4.133   9.372  0.5260  0.2526  0.0395
  113OSM   H15F11832   6.817   4.172   9.394  0.6780  0.6191  0.0971
  113OSM   H15G11833   6.917   4.022   9.369 -1.4551  0.2488 -0.0729
  113OSM   C16F11834   6.964   4.197   9.236 -0.6259  0.0777  0.5670
  113OSM   H16F11835   6.905   4.137   9.164 -1.9584 -1.0567  2.5292
  113OSM   H16G11836   7.070   4.173   9.213 -0.6792  0.8434 -0.5921
  113OSM   C17F11837   6.936   4.342   9.228 -0.0324  0.5401  0.7014
  113OSM   H17F11838   7.012   4.390   9.293  1.1418 -0.6773  0.2764
  113OSM   H17G11839   6.831   4.350   9.263 -0.0063 -3.2698  2.1672
  113OSM   C18F11840   6.935   4.393   9.087  0.9877 -0.0256 -0.4426
  113OSM   H18F11841   6.857   4.338   9.030  0.4628 -0.1424  0.3704
  113OSM   H18G11842   7.035   4.377   9.042  1.4985  2.1444 -0.2000
  113OSM   H18H11843   6.908   4.501   9.079 -0.1970 -0.1475  1.2902
  114OSM      N11844   0.930   6.083  11.536 -0.7947  0.5387 -0.5408
  114OSM    C1511845   0.956   5.940  11.504  0.5172 -0.3295 -0.1195
  114OSM   H15A11846   0.899   5.879  11.573 -0.1370 -1.0051 -1.2196
  114OSM   H15B11847   1.059   5.910  11.518  1.0796  0.5496 -2.0683
  114OSM   H15C11848   0.923   5.902  11.408 -0.8448  0.8924 -0.1595
  114OSM    C1411849   0.783   6.104  11.533 -0.6311 -0.3288 -0.3452
  114OSM   H14A11850   0.733   6.062  11.618 -0.7399 -3.4243 -1.8106
  114OSM   H14B11851   0.749   6.064  11.439 -1.9843 -2.2501  0.8976
  114OSM   H14C11852   0.758   6.209  11.545 -2.1513 -0.8531  1.5779
  114OSM    C1311853   0.989   6.114  11.668  0.1793 -0.2051 -0.3879
  114OSM   H13A11854   0.968   6.042  11.745  0.4783 -1.3207 -1.3219
  114OSM   H13B11855   0.952   6.208  11.705  0.8280 -0.1677  0.1986
  114OSM   H13C11856   1.097   6.118  11.665  0.4268  0.4380  3.8084
  114OSM    C1211857   1.008   6.168  11.429 -0.3002  0.1800  0.3150
  114OSM   H12A11858   1.115   6.165  11.445 -0.0702  0.8943 -0.9551
  114OSM   H12B11859   0.990   6.274  11.439 -1.0421 -0.0409  1.6558
  114OSM    C1111860   0.973   6.142  11.286 -0.5476  0.1518  0.7234
  114OSM   H11A11861   0.991   6.034  11.265  1.3121  0.9292 -2.2565
  114OSM   H11B11862   1.048   6.191  11.220 -0.5497 -0.1867  0.4614
  114OSM      P11863   0.794   6.288  11.156 -0.2396 -0.4420  0.4381
  114OSM    O1311864   0.649   6.277  11.123  0.2230  0.0410 -0.4505
  114OSM    O1411865   0.844   6.416  11.209  0.4064 -0.2199 -0.6612
  114OSM    O1111866   0.873   6.252  11.024  0.2325 -0.3165  0.5470
  114OSM    O1211867   0.835   6.172  11.259 -0.2555  0.2402  0.0241
  114OSM    C1S11868   0.849   6.134  10.953  0.1862 -0.2728  0.5423
  114OSM    H1S11869   0.746   6.134  10.914  0.1120  0.0928  0.7342
  114OSM    H1T11870   0.867   6.035  11.000 -0.6641 -1.0942 -0.7939
  114OSM     NF11871   0.915   6.021  10.739 -0.0866  0.2740  0.4169
  114OSM    HNF11872   0.971   5.940  10.756  0.4965  0.4267 -0.6708
  114OSM    C2S11873   0.948   6.126  10.834  0.5617  0.0410  0.6577
  114OSM    H2S11874   0.936   6.224  10.783  0.5061 -0.6206 -0.6375
  114OSM    C3S11875   1.095   6.107  10.876 -0.4132  0.1670  0.2957
  114OSM    H3S11876   1.101   6.007  10.925  2.1456 -0.1255 -0.4824
  114OSM     O311877   1.138   6.204  10.977 -0.1699 -0.2115 -0.0028
  114OSM    HO311878   1.061   6.257  10.999 -2.0972 -3.3439  1.6873
  114OSM    C4S11879   1.178   6.113  10.751  0.3725 -0.4940  0.0316
  114OSM    H4S11880   1.187   6.018  10.696  1.1115 -1.4823  1.7598
  114OSM    C5S11881   1.237   6.221  10.696 -0.5350 -0.1621 -0.1676
  114OSM    H5S11882   1.206   6.321  10.730 -0.5804  0.5041 -2.0749
  114OSM    C6S11883   1.308   6.214  10.566 -0.1002 -0.2280 -0.9036
  114OSM    H6S11884   1.311   6.108  10.531 -0.9475 -1.0529  1.3568
  114OSM    H6T11885   1.408   6.257  10.582 -0.8447  0.7537  1.5039
  114OSM    C7S11886   1.232   6.294  10.458 -0.1792  0.0371 -0.0251
  114OSM    H7S11887   1.230   6.401  10.490 -2.3795  0.3144 -0.8953
  114OSM    H7T11888   1.128   6.267  10.431 -0.1662 -0.6588  0.5832
  114OSM    C8S11889   1.299   6.283  10.325 -0.2717 -0.0457 -0.5299
  114OSM    H8S11890   1.331   6.177  10.335  0.2818  0.2922  1.8785
  114OSM    H8T11891   1.396   6.335  10.333 -1.2380  1.8648 -0.7771
  114OSM    C9S11892   1.211   6.313  10.207  0.4074 -0.1188  0.7642
  114OSM    H9S11893   1.177   6.419  10.207 -1.5183 -0.6702  2.5502
  114OSM    H9T11894   1.124   6.245  10.202  1.1459 -1.0011 -2.4609
  114OSM   C10S11895   1.283   6.305  10.074  0.2458 -0.2319 -0.3425
  114OSM   H10S11896   1.330   6.204  10.063  0.2336 -0.6340  2.5009
  114OSM   H10T11897   1.359   6.386  10.080 -1.4094  1.3902 -0.5656
  114OSM   C11S11898   1.200   6.331   9.954 -0.0063 -0.2603 -0.2560
  114OSM   H11S11899   1.123   6.409   9.972 -0.1594 -0.3955 -0.3222
  114OSM   H11T11900   1.148   6.237   9.928  0.6610 -0.9140  0.7115
  114OSM   C12S11901   1.283   6.382   9.835  0.2505 -0.4333 -0.4407
  114OSM   H12S11902   1.363   6.309   9.810 -0.3283 -1.4386  0.5653
  114OSM   H12T11903   1.335   6.478   9.858  0.2567 -0.5704  0.1310
  114OSM   C13S11904   1.186   6.410   9.722 -0.5127 -0.5749 -0.0757
  114OSM   H13S11905   1.095   6.460   9.760 -1.5691 -2.4093 -0.0869
  114OSM   H13T11906   1.161   6.311   9.679 -1.8241 -0.2365 -0.1143
  114OSM   C14S11907   1.251   6.495   9.608  0.3836  0.2575  0.4046
  114OSM   H14S11908   1.360   6.485   9.623  0.9371 -0.8025 -3.3719
  114OSM   H14T11909   1.229   6.604   9.609 -1.4453 -0.0131 -1.9300
  114OSM   C15S11910   1.220   6.441   9.467  0.1621 -0.0487 -0.7131
  114OSM   H15S11911   1.111   6.418   9.464  0.4039 -1.3292 -0.3806
  114OSM   H15T11912   1.266   6.340   9.459  1.6108  0.6193 -1.0168
  114OSM   C16S11913   1.265   6.530   9.357 -1.0604 -0.3154  0.5167
  114OSM   H16S11914   1.373   6.511   9.338 -0.4554  0.6597  2.5725
  114OSM   H16T11915   1.262   6.631   9.404  0.1025 -0.5844  1.2268
  114OSM   C17S11916   1.182   6.521   9.231  0.1965 -0.3610  0.2350
  114OSM   H17S11917   1.080   6.545   9.268  0.4864 -0.4527  1.1204
  114OSM   H17T11918   1.177   6.416   9.195  0.6467 -0.4053  0.3032
  114OSM   C18S11919   1.218   6.608   9.116 -0.6764 -0.2919 -0.2809
  114OSM   H18S11920   1.138   6.594   9.040  0.6976  0.0020 -1.8157
  114OSM   H18T11921   1.315   6.569   9.080 -1.2077  0.3761 -2.5850
  114OSM   H18U11922   1.239   6.709   9.156 -0.3262 -1.4196  2.6419
  114OSM    C1F11923   0.811   6.018  10.663  0.3657  0.7053  0.1873
  114OSM     OF11924   0.744   6.117  10.651 -0.0692  0.0995 -0.0293
  114OSM    C2F11925   0.777   5.885  10.588 -0.0285 -0.3733  0.3810
  114OSM    H2F11926   0.693   5.838  10.644  0.8335 -0.6463  1.4994
  114OSM    H2G11927   0.870   5.824  10.588 -0.0893 -0.4969  1.5173
  114OSM    C3F11928   0.738   5.905  10.444  0.0985 -0.0609 -0.1338
  114OSM    H3F11929   0.825   5.938  10.382 -0.1272  0.2101 -0.3113
  114OSM    H3G11930   0.666   5.989  10.431  0.5497  0.1859 -1.1562
  114OSM    C4F11931   0.684   5.778  10.392  0.5787  0.0765  0.6426
  114OSM    H4F11932   0.633   5.722  10.473  0.3094 -1.9337 -0.8284
  114OSM    H4G11933   0.766   5.705  10.374 -0.0428 -0.7010  0.9500
  114OSM    C5F11934   0.593   5.788  10.268 -0.3419 -0.0010 -0.3234
  114OSM    H5F11935   0.518   5.869  10.277 -0.0384  0.3004 -0.4736
  114OSM    H5G11936   0.540   5.690  10.258  0.0120 -0.6358  3.1043
  114OSM    C6F11937   0.663   5.825  10.133  0.4065  0.5345 -0.0805
  114OSM    H6F11938   0.746   5.752  10.120  0.0127 -0.2553  1.5524
  114OSM    H6G11939   0.700   5.929  10.129 -2.0267  1.5971  2.2256
  114OSM    C7F11940   0.572   5.813  10.012  0.3586 -0.3492  0.0353
  114OSM    H7F11941   0.498   5.889  10.045  1.6457 -0.3692  3.4338
  114OSM    H7G11942   0.503   5.726  10.016 -1.1674  0.8363  0.5348
  114OSM    C8F11943   0.634   5.842   9.881 -0.2339 -0.4669  0.0807
  114OSM    H8F11944   0.662   5.949   9.885 -1.1481 -0.2497  2.6632
  114OSM    H8G11945   0.544   5.848   9.816 -0.8986  1.7006  1.0869
  114OSM    C9F11946   0.729   5.734   9.844  0.5737 -0.0776  0.4377
  114OSM    H9F11947   0.767   5.672   9.927  0.3534  0.1633  0.7190
  114OSM   C10F11948   0.771   5.708   9.720  0.1919  0.3004  0.5090
  114OSM   H10F11949   0.856   5.644   9.696  0.8683  1.7743 -1.2403
  114OSM   C11F11950   0.742   5.790   9.599 -0.3470 -0.4379  0.0909
  114OSM   H11F11951   0.835   5.785   9.540  0.7259 -0.1290  1.6919
  114OSM   H11G11952   0.721   5.896   9.626 -2.1914 -1.4373  3.1994
  114OSM   C12F11953   0.625   5.732   9.527  0.3981  0.1825 -0.0335
  114OSM   H12F11954   0.537   5.720   9.594  1.0172  1.9666  1.1608
  114OSM   H12G11955   0.649   5.626   9.500  1.0228  0.5901 -1.1384
  114OSM   C13F11956   0.569   5.803   9.404  0.8264  0.0054  0.7656
  114OSM   H13F11957   0.535   5.902   9.441 -3.0881  0.0303 -2.2650
  114OSM   H13G11958   0.486   5.751   9.353  0.3359  0.1154  1.4337
  114OSM   C14F11959   0.672   5.819   9.293  0.3403  0.5444  0.5280
  114OSM   H14F11960   0.729   5.728   9.263 -0.3153  0.3574 -0.1971
  114OSM   H14G11961   0.747   5.893   9.328  0.2723  1.2818 -0.8279
  114OSM   C15F11962   0.619   5.877   9.158 -0.5804  0.3705 -0.3494
  114OSM   H15F11963   0.619   5.988   9.159 -1.8052  0.3846  0.5865
  114OSM   H15G11964   0.515   5.841   9.146 -0.8622  0.9156  0.3639
  114OSM   C16F11965   0.704   5.841   9.032  0.1005  0.5214 -0.0442
  114OSM   H16F11966   0.656   5.896   8.949 -2.7693  0.9271  1.7308
  114OSM   H16G11967   0.694   5.735   9.000 -1.7815  0.4066  0.7446
  114OSM   C17F11968   0.858   5.882   9.038 -0.1334 -0.0772 -0.5539
  114OSM   H17F11969   0.904   5.830   9.125 -0.5277 -0.1989 -0.4139
  114OSM   H17G11970   0.855   5.991   9.058 -0.7481 -0.0541 -0.7594
  114OSM   C18F11971   0.939   5.863   8.913 -0.7541  0.0188 -0.9167
  114OSM   H18F11972   1.041   5.906   8.927 -0.7902  0.3733 -1.7058
  114OSM   H18G11973   0.897   5.912   8.824  0.0838  0.7892 -0.9062
  114OSM   H18H11974   0.943   5.754   8.893 -0.4839  0.2118 -1.9373
  115OSM      N11975   5.088   5.879  10.895 -0.0844 -0.2610 -0.2395
  115OSM    C1511976   5.180   5.866  10.767  0.7823 -0.3319 -0.6545
  115OSM   H15A11977   5.284   5.894  10.780  0.4204  1.1745 -0.8815
  115OSM   H15B11978   5.132   5.906  10.679  0.5626 -0.2505 -0.4966
  115OSM   H15C11979   5.189   5.761  10.744  0.2123 -0.3374 -0.8790
  115OSM    C1411980   5.160   5.801  10.996  0.2575 -0.0775 -0.6422
  115OSM   H14A11981   5.173   5.697  10.970  0.5491  0.4295 -2.6986
  115OSM   H14B11982   5.104   5.794  11.088  1.6409  0.6634  0.2895
  115OSM   H14C11983   5.259   5.835  11.023  0.6310 -1.4324 -0.1963
  115OSM    C1311984   5.076   6.021  10.932 -0.1064  0.0537  0.3567
  115OSM   H13A11985   5.169   6.070  10.955  0.1189 -0.9037  1.5454
  115OSM   H13B11986   5.015   6.028  11.020 -2.2760 -1.5653 -0.9081
  115OSM   H13C11987   5.031   6.078  10.852 -2.3079 -1.0795  0.6993
  115OSM    C1211988   4.956   5.811  10.866  0.4076  0.2907 -0.8718
  115OSM   H12A11989   4.899   5.821  10.958  2.0465  0.2055  0.1845
  115OSM   H12B11990   4.968   5.706  10.848  0.1823  0.2107 -0.5724
  115OSM    C1111991   4.869   5.870  10.748  0.2432  0.0679  1.1281
  115OSM   H11A11992   4.779   5.807  10.730  1.4319 -1.1758 -0.8051
  115OSM   H11B11993   4.923   5.866  10.651 -0.4054  0.8885  0.7135
  115OSM      P11994   4.710   6.030  10.872  0.0421 -0.0617 -0.0760
  115OSM    O1311995   4.687   5.909  10.951  0.1171  0.2054  0.7367
  115OSM    O1411996   4.734   6.159  10.943  0.1179  0.4672  0.2704
  115OSM    O1111997   4.598   6.059  10.768 -0.1171 -0.4989 -0.9615
  115OSM    O1211998   4.828   6.006  10.775  0.2844 -0.0267 -0.7266
  115OSM    C1S11999   4.617   6.152  10.658 -0.4421  0.5235 -0.4530
  115OSM    H1S12000   4.676   6.241  10.688 -1.1047  0.7696  0.1550
  115OSM    H1T12001   4.522   6.203  10.633  1.1298  2.8045 -2.2071
  115OSM     NF12002   4.624   6.197  10.425 -0.0978 -0.4485  0.7804
  115OSM    HNF12003   4.549   6.185  10.360  1.2495 -1.1459 -0.7195
  115OSM    C2S12004   4.648   6.090  10.510  0.4267 -0.6729 -0.4946
  115OSM    H2S12005   4.756   6.065  10.503  0.8695  0.3437  1.6745
  115OSM    C3S12006   4.557   5.962  10.485  0.3175  0.0024  0.0452
  115OSM    H3S12007   4.449   5.989  10.487 -0.3970 -2.6396  0.8298
  115OSM     O312008   4.583   5.863  10.577 -0.5159  0.0879  0.1886
  115OSM    HO312009   4.631   5.910  10.645 -1.3332  0.9339  0.2054
  115OSM    C4S12010   4.584   5.907  10.345 -0.0602  0.3774 -0.2514
  115OSM    H4S12011   4.675   5.846  10.336  0.1526  0.6209  0.2266
  115OSM    C5S12012   4.495   5.906  10.240  0.7171 -0.1302  0.3052
  115OSM    H5S12013   4.393   5.942  10.261  0.3135  0.2201 -1.9437
  115OSM    C6S12014   4.514   5.838  10.104  0.0502 -0.3950  0.3755
  115OSM    H6S12015   4.424   5.799  10.051 -1.2670  2.3466  0.3832
  115OSM    H6T12016   4.582   5.751  10.105  0.3839 -0.2310 -2.1369
  115OSM    C7S12017   4.579   5.941  10.013 -0.4043 -0.4077  0.3411
  115OSM    H7S12018   4.662   5.999  10.058 -0.3415  1.0022 -1.4778
  115OSM    H7T12019   4.498   6.008   9.979  0.8645  0.6718 -0.6747
  115OSM    C8S12020   4.636   5.882   9.882  0.6335 -1.0526 -0.3733
  115OSM    H8S12021   4.719   5.816   9.915 -0.5076 -1.7445  1.2516
  115OSM    H8T12022   4.687   5.961   9.823  1.4820  1.8126  3.7000
  115OSM    C9S12023   4.544   5.799   9.796  0.0705  0.2569 -0.0526
  115OSM    H9S12024   4.501   5.719   9.860 -0.3358 -0.3795 -1.0896
  115OSM    H9T12025   4.609   5.741   9.727 -1.7680 -0.5283 -1.1943
  115OSM   C10S12026   4.448   5.868   9.695  0.0176  0.3157 -0.2458
  115OSM   H10S12027   4.489   5.948   9.630  1.2762 -0.2823 -0.2193
  115OSM   H10T12028   4.371   5.916   9.759  1.6336  1.7419  0.7301
  115OSM   C11S12029   4.388   5.760   9.597 -0.5734 -0.6276  0.3637
  115OSM   H11S12030   4.279   5.773   9.608 -0.2654  1.8146  1.1044
  115OSM   H11T12031   4.394   5.656   9.637 -0.9203 -1.1340 -0.8627
  115OSM   C12S12032   4.444   5.757   9.456  0.1037  0.3385 -0.8316
  115OSM   H12S12033   4.555   5.751   9.460  0.0610  0.0635  0.1382
  115OSM   H12T12034   4.413   5.844   9.395 -0.9231  0.2440 -0.4675
  115OSM   C13S12035   4.397   5.640   9.372  0.5885  0.7449  0.3231
  115OSM   H13S12036   4.291   5.658   9.345  0.9734 -1.0560 -2.8709
  115OSM   H13T12037   4.407   5.542   9.423 -0.0578  0.4852 -0.0421
  115OSM   C14S12038   4.470   5.636   9.236  0.8594 -0.5365 -0.7732
  115OSM   H14S12039   4.565   5.586   9.266 -0.7480 -1.7834  2.8709
  115OSM   H14T12040   4.487   5.726   9.173 -1.2058 -1.1017 -2.2126
  115OSM   C15S12041   4.386   5.550   9.133  0.0405  0.3240  0.3071
  115OSM   H15S12042   4.299   5.607   9.095 -2.2291 -1.8113  2.0157
  115OSM   H15T12043   4.347   5.464   9.192  0.9024  1.6125  2.8844
  115OSM   C16S12044   4.480   5.497   9.018  0.2272  0.0880  0.3321
  115OSM   H16S12045   4.424   5.422   8.958 -3.4308  1.4673  1.7348
  115OSM   H16T12046   4.567   5.456   9.073 -0.4474  0.8530  2.0293
  115OSM   C17S12047   4.522   5.612   8.922  0.1109  0.2265  0.4121
  115OSM   H17S12048   4.571   5.694   8.980  0.7521 -0.3610  0.7188
  115OSM   H17T12049   4.426   5.657   8.888 -0.3169 -0.5331  0.6016
  115OSM   C18S12050   4.608   5.562   8.809  0.2346  0.1672 -0.1495
  115OSM   H18S12051   4.551   5.482   8.758  0.7515 -0.9884  1.0445
  115OSM   H18T12052   4.710   5.527   8.838  0.6661  1.5416  0.0926
  115OSM   H18U12053   4.621   5.646   8.737 -3.2155  0.4931 -0.5269
  115OSM    C1F12054   4.698   6.311  10.428 -0.5075 -0.6728 -1.0256
  115OSM     OF12055   4.799   6.317  10.502  0.1621 -0.1520  0.6454
  115OSM    C2F12056   4.662   6.432  10.351  0.4780  0.5308 -0.2103
  115OSM    H2F12057   4.713   6.522  10.392 -0.2193  0.5420  0.6751
  115OSM    H2G12058   4.551   6.436  10.345  0.5231  0.1481 -1.6682
  115OSM    C3F12059   4.706   6.433  10.201 -0.0435 -0.3422  0.0775
  115OSM    H3F12060   4.816   6.420  10.189  0.3491  1.7134  1.1033
  115OSM    H3G12061   4.693   6.534  10.157  1.2120 -1.3165 -2.7572
  115OSM    C4F12062   4.644   6.314  10.130  0.5735 -0.6932 -0.3299
  115OSM    H4F12063   4.535   6.336  10.130  0.8444  0.7729 -0.0863
  115OSM    H4G12064   4.660   6.209  10.161 -0.0335 -0.7730 -0.2766
  115OSM    C5F12065   4.674   6.298   9.983  0.0791  0.1953  0.0217
  115OSM    H5F12066   4.607   6.217   9.948 -1.2282  1.2809 -0.0655
  115OSM    H5G12067   4.781   6.271   9.970  0.8221  2.6480  0.4683
  115OSM    C6F12068   4.662   6.427   9.898  0.0726 -0.2721  0.1310
  115OSM    H6F12069   4.731   6.504   9.938 -1.7132  0.6628  1.5630
  115OSM    H6G12070   4.559   6.469   9.894 -0.3826 -1.4310 -0.5585
  115OSM    C7F12071   4.681   6.391   9.750 -0.3124 -0.9679  0.2881
  115OSM    H7F12072   4.597   6.329   9.713 -0.4221  0.2067 -1.5533
  115OSM    H7G12073   4.773   6.330   9.738  0.4187  0.5372 -2.7986
  115OSM    C8F12074   4.709   6.520   9.665  0.4934  0.2086 -0.1468
  115OSM    H8F12075   4.797   6.567   9.713  0.1219  0.3585  0.4018
  115OSM    H8G12076   4.628   6.595   9.678  0.4411  0.2531 -0.7070
  115OSM    C9F12077   4.741   6.484   9.520  0.3134 -0.3508  0.1429
  115OSM    H9F12078   4.813   6.401   9.514 -0.7933 -1.4969  1.7471
  115OSM   C10F12079   4.696   6.543   9.409 -0.6870  0.5446 -0.5283
  115OSM   H10F12080   4.718   6.492   9.314  0.6385  0.8514 -0.4020
  115OSM   C11F12081   4.596   6.656   9.401 -0.5762  0.2170  0.4295
  115OSM   H11F12082   4.616   6.742   9.468  0.7049 -0.6154  1.1626
  115OSM   H11G12083   4.493   6.619   9.424 -0.6124 -1.4707 -2.0455
  115OSM   C12F12084   4.607   6.721   9.261  0.4373 -0.6234 -0.3805
  115OSM   H12F12085   4.709   6.759   9.238 -0.1539  1.0403 -0.3597
  115OSM   H12G12086   4.546   6.814   9.264  0.8480 -0.3796  0.9326
  115OSM   C13F12087   4.565   6.648   9.135 -0.2236  0.6701 -0.2941
  115OSM   H13F12088   4.629   6.560   9.111  1.3498  1.8479 -0.5912
  115OSM   H13G12089   4.578   6.720   9.051  3.6218 -0.0539 -0.5235
  115OSM   C14F12090   4.415   6.620   9.124 -0.3670 -0.2613 -0.4636
  115OSM   H14F12091   4.355   6.708   9.156  1.8694  1.2991 -0.3373
  115OSM   H14G12092   4.409   6.544   9.205  2.6496  0.1337  0.2375
  115OSM   C15F12093   4.374   6.557   8.992  0.4590  0.5203  0.1563
  115OSM   H15F12094   4.422   6.457   8.988 -0.5618  0.0169 -3.8604
  115OSM   H15G12095   4.420   6.621   8.914 -0.9254 -0.0586 -1.1924
  115OSM   C16F12096   4.218   6.540   8.979 -0.0194  0.4563  0.6935
  115OSM   H16F12097   4.152   6.629   8.968 -1.9045 -1.0122 -0.5617
  115OSM   H16G12098   4.196   6.473   9.065  0.6010  0.6497  1.0131
  115OSM   C17F12099   4.185   6.459   8.851  0.1231 -0.0018  0.9137
  115OSM   H17F12100   4.256   6.373   8.845  1.1027  0.8830 -1.7429
  115OSM   H17G12101   4.215   6.517   8.761  1.5766 -3.0109 -0.7053
  115OSM   C18F12102   4.040   6.418   8.845 -0.0775 -0.2773  0.5961
  115OSM   H18F12103   3.979   6.509   8.862  0.5696  0.2880 -0.0180
  115OSM   H18G12104   4.022   6.351   8.931  2.3208 -0.7935  0.7724
  115OSM   H18H12105   4.014   6.358   8.755  1.2239  0.1716 -0.1185
  116OSM      N12106   1.147   1.577  11.221  0.7760 -0.1235  0.7134
  116OSM    C1512107   1.151   1.435  11.275  0.3758  0.0414  0.2222
  116OSM   H15A12108   1.245   1.393  11.245  0.2504  2.1221 -3.7382
  116OSM   H15B12109   1.080   1.373  11.222 -0.2893  0.6837  0.3348
  116OSM   H15C12110   1.134   1.431  11.382 -0.7625  1.8064  0.1529
  116OSM    C1412111   1.028   1.658  11.264 -0.7587  0.0118 -0.2372
  116OSM   H14A12112   0.940   1.607  11.226  0.5353  0.4744 -4.3373
  116OSM   H14B12113   1.050   1.757  11.227  0.2986  0.2609  0.9987
  116OSM   H14C12114   1.020   1.656  11.372  0.2519  2.1784 -0.0763
  116OSM    C1312115   1.268   1.651  11.268  0.1349  0.6727  0.6447
  116OSM   H13A12116   1.273   1.754  11.233 -1.5735  0.8896  0.9545
  116OSM   H13B12117   1.348   1.600  11.217 -0.0380  1.8551 -0.9015
  116OSM   H13C12118   1.283   1.638  11.374 -3.2593  1.1194  1.2735
  116OSM    C1212119   1.140   1.576  11.068  0.3193  0.5672  0.1744
  116OSM   H12A12120   1.141   1.681  11.042  0.7254  0.7441  0.8821
  116OSM   H12B12121   1.051   1.527  11.032 -1.7594  1.8500  3.1749
  116OSM    C1112122   1.257   1.512  10.979 -0.0809  0.3279  0.0821
  116OSM   H11A12123   1.233   1.519  10.871  1.1291 -1.2936 -0.3151
  116OSM   H11B12124   1.246   1.403  10.999  2.1712 -0.6346 -3.2078
  116OSM      P12125   1.431   1.697  10.953 -0.1217 -0.4081  0.0121
  116OSM    O1312126   1.310   1.761  10.887 -0.1602  0.2296  0.0366
  116OSM    O1412127   1.514   1.773  11.047 -0.1497 -0.1188  0.3792
  116OSM    O1112128   1.526   1.654  10.834 -0.3559  0.1952  0.1845
  116OSM    O1212129   1.391   1.554  11.014  0.0547  0.2455  0.1305
  116OSM    C1S12130   1.483   1.579  10.717 -0.1478  0.4141 -0.5376
  116OSM    H1S12131   1.373   1.587  10.700  0.2481  3.2455 -2.5005
  116OSM    H1T12132   1.496   1.471  10.737 -1.8627  0.4846  1.2361
  116OSM     NF12133   1.516   1.552  10.478  0.1323  0.4821  0.3056
  116OSM    HNF12134   1.564   1.469  10.450 -0.5813 -0.4261  1.6361
  116OSM    C2S12135   1.567   1.629  10.589  0.3173 -0.6596 -0.5873
  116OSM    H2S12136   1.533   1.735  10.589 -1.0035 -1.0417  1.2891
  116OSM    C3S12137   1.725   1.632  10.607  0.3678  0.1168 -0.4894
  116OSM    H3S12138   1.760   1.528  10.623  0.7650  0.1257 -1.2852
  116OSM     O312139   1.772   1.708  10.722  0.6417  0.5463  0.2086
  116OSM    HO312140   1.690   1.728  10.768 -0.4442  2.8932 -2.3841
  116OSM    C4S12141   1.790   1.674  10.486  0.4463  0.0497  0.0394
  116OSM    H4S12142   1.820   1.588  10.424 -1.8222 -1.4563  0.8938
  116OSM    C5S12143   1.823   1.799  10.440 -0.0612  0.5483 -0.3092
  116OSM    H5S12144   1.804   1.889  10.501  2.6131  1.2637 -0.3819
  116OSM    C6S12145   1.897   1.821  10.313  0.6106 -0.3106  0.3527
  116OSM    H6S12146   1.998   1.778  10.329  0.6849 -1.3054 -2.2857
  116OSM    H6T12147   1.919   1.928  10.293  0.2606 -0.0507  1.2846
  116OSM    C7S12148   1.837   1.761  10.182 -0.0795 -0.9260  0.1102
  116OSM    H7S12149   1.727   1.780  10.176 -0.3970 -2.0607  1.8342
  116OSM    H7T12150   1.840   1.650  10.187 -1.7825 -1.0278 -0.3429
  116OSM    C8S12151   1.896   1.810  10.048  0.1276 -0.2436  0.4547
  116OSM    H8S12152   1.995   1.760  10.041 -0.8378 -2.1625 -0.1631
  116OSM    H8T12153   1.918   1.919  10.052 -0.5768  0.0612 -1.9779
  116OSM    C9S12154   1.808   1.780   9.927 -0.3873 -0.4521  0.2174
  116OSM    H9S12155   1.719   1.846   9.922  2.0126  2.9106 -1.2103
  116OSM    H9T12156   1.778   1.672   9.931 -0.1099 -0.5080  1.0035
  116OSM   C10S12157   1.881   1.804   9.796 -0.5759  0.3284 -0.2846
  116OSM   H10S12158   1.972   1.740   9.796 -1.8906 -1.7109  1.9946
  116OSM   H10T12159   1.913   1.910   9.807 -0.7572  0.2667  0.9139
  116OSM   C11S12160   1.819   1.769   9.665  0.1986  0.0072 -0.0009
  116OSM   H11S12161   1.714   1.803   9.666  0.5202  1.0522  0.6709
  116OSM   H11T12162   1.827   1.658   9.667 -0.5291 -0.0858 -1.3898
  116OSM   C12S12163   1.896   1.804   9.541  0.3970  0.0847  0.9952
  116OSM   H12S12164   2.001   1.767   9.546  1.1980  2.1585  0.8800
  116OSM   H12T12165   1.911   1.914   9.549 -2.1753  0.5050  0.6608
  116OSM   C13S12166   1.825   1.764   9.412 -0.2952 -0.6331 -0.1525
  116OSM   H13S12167   1.730   1.821   9.410  0.0926  0.0507  0.6533
  116OSM   H13T12168   1.812   1.653   9.413 -0.5660 -0.6051 -0.4684
  116OSM   C14S12169   1.906   1.804   9.291 -0.1722  0.3319  0.7549
  116OSM   H14S12170   2.010   1.765   9.288  0.3199  1.6369 -0.3008
  116OSM   H14T12171   1.901   1.915   9.291  0.6655  0.3889 -0.3539
  116OSM   C15S12172   1.837   1.765   9.155 -0.4026  0.5221  0.9229
  116OSM   H15S12173   1.833   1.851   9.085  2.9529 -0.4254 -0.6291
  116OSM   H15T12174   1.730   1.739   9.169 -0.3329  0.0797  0.6449
  116OSM   C16S12175   1.903   1.649   9.078 -0.2632 -0.4301 -0.0559
  116OSM   H16S12176   1.881   1.548   9.120 -0.6810 -0.5185 -0.4840
  116OSM   H16T12177   2.014   1.650   9.082  0.1513  1.5794 -5.2545
  116OSM   C17S12178   1.859   1.642   8.934  0.8133 -0.8217  0.0932
  116OSM   H17S12179   1.892   1.729   8.874  1.8882 -2.0057 -1.0951
  116OSM   H17T12180   1.748   1.640   8.930  0.7859  0.9999 -1.7603
  116OSM   C18S12181   1.924   1.521   8.870 -0.5037 -0.5066  0.0334
  116OSM   H18S12182   1.889   1.528   8.765  0.4075  2.2233 -0.1691
  116OSM   H18T12183   1.884   1.431   8.921 -2.7596  0.6429  0.3834
  116OSM   H18U12184   2.035   1.517   8.881 -0.3698 -0.7226 -1.1942
  116OSM    C1F12185   1.398   1.573  10.419 -0.2288  0.9250  1.1242
  116OSM     OF12186   1.325   1.662  10.450 -0.3876  0.1775  0.1379
  116OSM    C2F12187   1.362   1.477  10.311 -0.1085  0.1084  0.5156
  116OSM    H2F12188   1.271   1.421  10.341  0.0124 -2.1797 -2.8742
  116OSM    H2G12189   1.444   1.405  10.294  1.1758  1.5292  0.5174
  116OSM    C3F12190   1.314   1.540  10.175 -0.2606 -0.1012  0.2067
  116OSM    H3F12191   1.241   1.618  10.204  2.9514  3.1600  0.3894
  116OSM    H3G12192   1.279   1.461  10.106 -1.8156  0.5243  0.2317
  116OSM    C4F12193   1.436   1.609  10.105 -0.3251  0.0090  0.1104
  116OSM    H4F12194   1.523   1.541  10.110  0.6766  1.1550 -1.2092
  116OSM    H4G12195   1.473   1.688  10.174  0.1711 -1.1536  1.2078
  116OSM    C5F12196   1.417   1.657   9.954 -0.7633  0.3170 -0.3770
  116OSM    H5F12197   1.512   1.705   9.921 -0.8852  1.8558  1.3606
  116OSM    H5G12198   1.337   1.734   9.955 -2.4432 -1.3464 -0.9078
  116OSM    C6F12199   1.380   1.547   9.850 -0.1954  0.4311  0.0582
  116OSM    H6F12200   1.299   1.482   9.890  2.2695 -1.3010  2.5781
  116OSM    H6G12201   1.470   1.483   9.844  0.6596  1.6529 -0.5100
  116OSM    C7F12202   1.334   1.606   9.713  0.3482  0.5981 -0.1661
  116OSM    H7F12203   1.328   1.527   9.634 -0.3684 -0.8699  1.3122
  116OSM    H7G12204   1.415   1.676   9.682  0.4656  0.7097  0.3965
  116OSM    C8F12205   1.202   1.686   9.713 -0.1396  0.4528  0.5115
  116OSM    H8F12206   1.196   1.724   9.608  3.6265 -0.6865 -0.2572
  116OSM    H8G12207   1.216   1.775   9.778  0.8773  0.0757  0.8151
  116OSM    C9F12208   1.074   1.615   9.757  0.5203  0.0602  0.6098
  116OSM    H9F12209   1.069   1.571   9.857 -1.0160  0.4364  0.7263
  116OSM   C10F12210   0.961   1.617   9.680  0.2316 -0.2922  0.4202
  116OSM   H10F12211   0.883   1.550   9.718  0.1073 -0.2692  0.2042
  116OSM   C11F12212   0.924   1.682   9.540 -0.1880  0.8142 -0.2576
  116OSM   H11F12213   1.004   1.757   9.521  1.0085 -0.0795  1.0776
  116OSM   H11G12214   0.825   1.732   9.540 -1.5048 -1.6267 -0.5182
  116OSM   C12F12215   0.922   1.571   9.440  0.0790  0.2414 -0.0586
  116OSM   H12F12216   0.850   1.492   9.471  1.6469 -1.6480 -0.9582
  116OSM   H12G12217   1.020   1.518   9.435  1.6112  3.0302 -3.6188
  116OSM   C13F12218   0.888   1.619   9.293  0.2622 -0.5223  0.2183
  116OSM   H13F12219   0.970   1.687   9.262  1.6184 -2.1817 -0.0282
  116OSM   H13G12220   0.792   1.674   9.284  0.0405 -0.4804  2.3273
  116OSM   C14F12221   0.880   1.503   9.194 -0.2689  0.8490  0.1301
  116OSM   H14F12222   0.824   1.417   9.236  0.0916  0.6618  0.2333
  116OSM   H14G12223   0.983   1.465   9.179 -1.2178 -1.0848 -2.0933
  116OSM   C15F12224   0.830   1.535   9.051 -0.1522  0.7327  0.1119
  116OSM   H15F12225   0.888   1.622   9.013 -0.3412  0.6556 -0.3578
  116OSM   H15G12226   0.724   1.568   9.049 -0.7148 -0.9961 -0.0799
  116OSM   C16F12227   0.844   1.420   8.950 -0.0158 -0.6496 -1.1014
  116OSM   H16F12228   0.778   1.340   8.991 -1.0704  0.8837  0.2962
  116OSM   H16G12229   0.949   1.384   8.942  0.0721 -0.4550 -0.8196
  116OSM   C17F12230   0.802   1.456   8.806 -0.0354  0.1532 -0.4811
  116OSM   H17F12231   0.821   1.563   8.780  0.6116 -0.3099 -2.0796
  116OSM   H17G12232   0.692   1.446   8.804 -0.2286  1.5623  1.0519
  116OSM   C18F12233   0.863   1.368   8.696  0.0495  0.0103 -0.1783
  116OSM   H18F12234   0.797   1.367   8.607 -0.6679  1.1483  0.3270
  116OSM   H18G12235   0.890   1.269   8.740  1.3932  0.3686 -0.1293
  116OSM   H18H12236   0.956   1.411   8.653 -0.2649  0.5767 -0.2978
  117OSM      N12237   6.451   3.490  11.438 -0.0087  0.1347  0.3798
  117OSM    C1512238   6.374   3.615  11.433 -0.2926 -0.4440  0.3707
  117OSM   H15A12239   6.293   3.619  11.504  1.1882  0.9458  2.0925
  117OSM   H15B12240   6.329   3.624  11.335 -1.1335 -0.9962  0.6990
  117OSM   H15C12241   6.434   3.704  11.448 -2.0760  0.5133  2.2544
  117OSM    C1412242   6.515   3.490  11.567  0.3494 -0.4810  0.4906
  117OSM   H14A12243   6.564   3.394  11.573  0.3417 -0.4287  1.6710
  117OSM   H14B12244   6.446   3.512  11.647 -0.8509 -4.4551  0.7254
  117OSM   H14C12245   6.597   3.560  11.572 -0.3248  0.7246 -2.7650
  117OSM    C1312246   6.359   3.375  11.420  0.3361 -0.5507  0.1601
  117OSM   H13A12247   6.306   3.372  11.326  2.0843 -1.3986 -0.8414
  117OSM   H13B12248   6.282   3.382  11.495  0.5234 -0.3046  0.3300
  117OSM   H13C12249   6.410   3.280  11.422 -1.2139 -1.4065  1.9879
  117OSM    C1212250   6.554   3.498  11.327 -0.3332 -0.3168  0.2764
  117OSM   H12A12251   6.638   3.430  11.333 -0.4578 -0.4811  0.2132
  117OSM   H12B12252   6.607   3.589  11.347 -0.5110 -0.8466  3.8433
  117OSM    C1112253   6.500   3.501  11.183 -0.0778  0.2764 -0.0927
  117OSM   H11A12254   6.592   3.518  11.123  0.9764  2.8925  2.1014
  117OSM   H11B12255   6.433   3.589  11.169 -0.5881 -0.0443  0.2779
  117OSM      P12256   6.316   3.364  11.048 -0.0559 -0.0610 -0.2326
  117OSM    O1312257   6.323   3.227  10.990  0.3828 -0.3517  0.1210
  117OSM    O1412258   6.196   3.398  11.124 -0.2847 -0.1265 -0.4590
  117OSM    O1112259   6.326   3.473  10.933  0.4046  0.2932 -0.2369
  117OSM    O1212260   6.439   3.381  11.146  0.1819  0.4041 -0.0328
  117OSM    C1S12261   6.397   3.466  10.813 -0.1983 -0.1215  0.7444
  117OSM    H1S12262   6.348   3.393  10.745  0.1992  1.9169 -1.9023
  117OSM    H1T12263   6.501   3.428  10.823  0.0948 -0.4583 -2.4942
  117OSM     NF12264   6.464   3.578  10.595  0.3462  0.3176  0.6321
  117OSM    HNF12265   6.563   3.580  10.578  0.7910  0.7816  2.9856
  117OSM    C2S12266   6.413   3.604  10.729  0.3941 -0.5831  0.1610
  117OSM    H2S12267   6.309   3.642  10.720  0.5957  0.0763  0.5927
  117OSM    C3S12268   6.503   3.704  10.804 -0.2965  0.2181  0.4547
  117OSM    H3S12269   6.610   3.676  10.811 -0.5127 -0.7304  0.1037
  117OSM     O312270   6.471   3.722  10.934  0.3672 -0.1203 -0.5779
  117OSM    HO312271   6.409   3.653  10.959  1.3409 -0.6861  0.3308
  117OSM    C4S12272   6.507   3.839  10.743 -0.0998  0.3734 -0.5429
  117OSM    H4S12273   6.600   3.855  10.686 -0.6247  0.3450 -1.4215
  117OSM    C5S12274   6.417   3.944  10.760 -0.3910 -0.2747 -0.1965
  117OSM    H5S12275   6.328   3.931  10.824  1.5442  0.5746  2.8559
  117OSM    C6S12276   6.435   4.075  10.706  0.0361 -0.4535  0.3230
  117OSM    H6S12277   6.541   4.084  10.674 -0.2194 -1.3290 -0.8114
  117OSM    H6T12278   6.412   4.155  10.779 -4.2366 -0.0807 -1.1403
  117OSM    C7S12279   6.350   4.107  10.570  0.5020  0.0390 -0.1059
  117OSM    H7S12280   6.372   4.212  10.542 -2.3331  0.6645 -0.3040
  117OSM    H7T12281   6.242   4.105  10.596  0.0382 -0.0543 -1.9450
  117OSM    C8S12282   6.385   4.029  10.439  0.1331 -0.1972 -0.2921
  117OSM    H8S12283   6.374   3.919  10.457  1.0205 -0.0470  1.3857
  117OSM    H8T12284   6.490   4.055  10.413 -0.8019  0.8444 -3.5045
  117OSM    C9S12285   6.281   4.046  10.329 -0.5175 -0.3703  0.4326
  117OSM    H9S12286   6.279   4.156  10.309 -1.2771 -0.7395 -1.7277
  117OSM    H9T12287   6.179   4.025  10.369 -1.7482  2.7468 -0.7233
  117OSM   C10S12288   6.299   3.977  10.193  0.2465  0.3347 -0.6961
  117OSM   H10S12289   6.279   3.870  10.212  0.9389  0.7255  2.8601
  117OSM   H10T12290   6.408   3.985  10.173  0.0552  0.0279 -1.9325
  117OSM   C11S12291   6.212   4.044  10.080  0.8004 -0.0850 -0.0222
  117OSM   H11S12292   6.226   4.154  10.080 -0.8435  0.1615 -1.5728
  117OSM   H11T12293   6.107   4.027  10.111 -0.1978 -1.0258 -3.4823
  117OSM   C12S12294   6.235   3.979   9.946 -0.3451 -0.0328 -0.1991
  117OSM   H12S12295   6.202   3.873   9.951  0.3379 -0.2892 -0.9214
  117OSM   H12T12296   6.345   3.971   9.933  0.1836 -1.2757  3.6257
  117OSM   C13S12297   6.157   4.049   9.837 -0.0115  0.0923  0.6203
  117OSM   H13S12298   6.166   4.157   9.862  2.3687  0.7534 -2.4620
  117OSM   H13T12299   6.052   4.027   9.866  0.3941  0.3386  2.3850
  117OSM   C14S12300   6.196   4.025   9.694 -0.0224 -0.9157  0.1133
  117OSM   H14S12301   6.112   4.029   9.620 -0.1908 -0.0438  0.3410
  117OSM   H14T12302   6.240   3.923   9.683  3.5353  0.3815  1.1572
  117OSM   C15S12303   6.309   4.113   9.639  0.1718  0.3480 -0.1221
  117OSM   H15S12304   6.392   4.086   9.708  0.4107  0.6369 -0.2965
  117OSM   H15T12305   6.278   4.219   9.655 -0.4242  0.2850 -0.8168
  117OSM   C16S12306   6.352   4.084   9.493  0.4050 -0.3703  0.2958
  117OSM   H16S12307   6.367   3.975   9.479  0.0579 -0.5209  1.0195
  117OSM   H16T12308   6.440   4.149   9.475 -1.0612  1.5661 -0.1547
  117OSM   C17S12309   6.246   4.130   9.391  0.5357  0.7534 -0.5372
  117OSM   H17S12310   6.230   4.240   9.397  0.1377  0.6217  2.3150
  117OSM   H17T12311   6.144   4.089   9.410 -0.4047  1.9629 -2.7087
  117OSM   C18S12312   6.293   4.068   9.254 -0.0533  0.5988 -0.1649
  117OSM   H18S12313   6.282   3.959   9.271 -1.5862  0.8964  0.9661
  117OSM   H18T12314   6.397   4.101   9.232 -0.6295  0.2504 -4.1690
  117OSM   H18U12315   6.214   4.097   9.181 -1.9036 -1.2057  1.0101
  117OSM    C1F12316   6.386   3.517  10.502 -0.1663 -0.5242 -0.5021
  117OSM     OF12317   6.268   3.487  10.517  0.2011  0.3392  0.0655
  117OSM    C2F12318   6.445   3.495  10.370  0.1208  0.1565 -0.1983
  117OSM    H2F12319   6.404   3.406  10.318  0.2169  0.4768 -0.8326
  117OSM    H2G12320   6.556   3.489  10.378  0.1053  0.4243  0.2807
  117OSM    C3F12321   6.429   3.608  10.266  0.0267 -0.3302  0.1644
  117OSM    H3F12322   6.472   3.703  10.305 -0.9361  0.2740 -0.2203
  117OSM    H3G12323   6.320   3.627  10.255 -0.0953 -0.1988  1.3696
  117OSM    C4F12324   6.499   3.576  10.130  0.0549  0.2454 -0.3929
  117OSM    H4F12325   6.482   3.468  10.106  0.9626 -0.2414  1.0057
  117OSM    H4G12326   6.609   3.580  10.142  0.0943 -2.9629  1.6966
  117OSM    C5F12327   6.450   3.670  10.022 -0.3048 -0.0908  0.3161
  117OSM    H5F12328   6.453   3.774  10.062 -0.8004 -0.2959  0.8903
  117OSM    H5G12329   6.345   3.639  10.003 -0.5072 -0.0925  1.3913
  117OSM    C6F12330   6.537   3.664   9.899 -0.6970 -0.0495 -0.1834
  117OSM    H6F12331   6.551   3.559   9.865 -0.3518  0.0733 -0.4359
  117OSM    H6G12332   6.634   3.691   9.946  0.4078 -1.4759 -1.4983
  117OSM    C7F12333   6.509   3.758   9.784  0.5706 -0.0480  0.3912
  117OSM    H7F12334   6.504   3.857   9.833  0.9161  0.5272 -0.6967
  117OSM    H7G12335   6.408   3.732   9.745  0.8102 -2.3461  1.1649
  117OSM    C8F12336   6.609   3.763   9.668 -0.1417 -0.5509  0.0832
  117OSM    H8F12337   6.706   3.803   9.704  0.0844 -0.5331 -0.5331
  117OSM    H8G12338   6.565   3.843   9.604  1.0639 -0.2958 -0.4506
  117OSM    C9F12339   6.620   3.622   9.595  0.3450 -0.5587  0.6210
  117OSM    H9F12340   6.665   3.538   9.651  0.6220  0.1365  1.4546
  117OSM   C10F12341   6.582   3.603   9.466  0.5978  0.5390 -0.3167
  117OSM   H10F12342   6.607   3.502   9.431  3.5083  0.7165  0.9904
  117OSM   C11F12343   6.519   3.706   9.374 -0.7614  0.3413  0.4286
  117OSM   H11F12344   6.475   3.793   9.426 -1.0577 -0.3907  1.4399
  117OSM   H11G12345   6.435   3.662   9.316  1.5497  1.7682 -4.4977
  117OSM   C12F12346   6.622   3.749   9.264  1.2683 -0.1853 -0.2574
  117OSM   H12F12347   6.642   3.652   9.213 -0.0539 -0.6269  0.0123
  117OSM   H12G12348   6.716   3.772   9.318  2.7775 -1.6480 -2.0811
  117OSM   C13F12349   6.567   3.852   9.170 -0.2088  0.1916 -0.2843
  117OSM   H13F12350   6.519   3.935   9.225 -3.3906 -1.0745 -0.9005
  117OSM   H13G12351   6.485   3.818   9.102  0.2274  1.8717 -1.7443
  117OSM   C14F12352   6.681   3.889   9.072 -0.4679  0.3259 -0.1653
  117OSM   H14F12353   6.713   3.792   9.028  1.1299  0.6166  0.2685
  117OSM   H14G12354   6.764   3.908   9.143 -0.2533 -2.4031  0.4322
  117OSM   C15F12355   6.644   3.999   8.970 -0.0130  0.2343 -0.2304
  117OSM   H15F12356   6.600   4.088   9.020 -1.4576 -1.0692  0.8982
  117OSM   H15G12357   6.558   3.954   8.915 -1.3531  1.1909  1.0016
  117OSM   C16F12358   6.766   4.036   8.869  0.5298  0.4475 -0.4764
  117OSM   H16F12359   6.764   3.950   8.798  0.5500 -2.1370  2.4537
  117OSM   H16G12360   6.864   4.034   8.920  0.8126  0.7069 -1.0025
  117OSM   C17F12361   6.758   4.173   8.808 -0.0846 -0.7767  0.0054
  117OSM   H17F12362   6.740   4.239   8.895  1.8296 -0.9031  0.5214
  117OSM   H17G12363   6.661   4.183   8.753 -0.4397 -2.5820  0.2365
  117OSM   C18F12364   6.886   4.218   8.743  0.2101 -0.8149  0.6403
  117OSM   H18F12365   6.906   4.148   8.659 -0.6861  0.3249 -0.5847
  117OSM   H18G12366   6.969   4.223   8.816 -1.0733  0.8778  2.0706
  117OSM   H18H12367   6.888   4.319   8.697  0.3983 -0.4927  1.3441
  118OSM      N12368   6.742   4.680  11.265 -0.1241  0.6144 -0.7878
  118OSM    C1512369   6.676   4.609  11.380  0.0338 -0.5831 -0.4398
  118OSM   H15A12370   6.748   4.571  11.451 -2.0328 -2.3286  0.8651
  118OSM   H15B12371   6.613   4.529  11.344 -1.7520  1.5124 -2.2858
  118OSM   H15C12372   6.622   4.683  11.437  0.8911 -0.3375  0.0743
  118OSM    C1412373   6.834   4.780  11.325  0.4463  0.7405 -0.4235
  118OSM   H14A12374   6.785   4.843  11.399  2.0747  0.8411  0.6314
  118OSM   H14B12375   6.867   4.847  11.247  0.0951  0.5682 -0.7190
  118OSM   H14C12376   6.923   4.741  11.373  0.4304  2.5425  1.2240
  118OSM    C1312377   6.812   4.580  11.181 -0.2179  0.1848 -0.1118
  118OSM   H13A12378   6.892   4.523  11.227  1.2349  0.7945 -1.7985
  118OSM   H13B12379   6.861   4.631  11.100 -0.9479  1.4950  0.2474
  118OSM   H13C12380   6.745   4.508  11.135 -1.9312  1.2314  0.6423
  118OSM    C1212381   6.636   4.754  11.182  0.0507  0.5277  0.0488
  118OSM   H12A12382   6.590   4.829  11.246  2.3721 -1.1332  4.0581
  118OSM   H12B12383   6.560   4.681  11.160 -0.3104  0.4153  1.5605
  118OSM    C1112384   6.685   4.804  11.044 -0.4406 -0.4008  0.0042
  118OSM   H11A12385   6.596   4.845  10.994  0.6821  0.5484 -1.2747
  118OSM   H11B12386   6.731   4.719  10.989 -0.4568 -0.6866  0.4233
  118OSM      P12387   6.735   5.057  11.093  0.0730 -0.2328 -0.0525
  118OSM    O1312388   6.657   5.062  11.216  0.0762  0.3010  0.0118
  118OSM    O1412389   6.859   5.136  11.080 -0.2933  0.5149 -0.1633
  118OSM    O1112390   6.632   5.095  10.979  0.7419  0.5235  0.5039
  118OSM    O1212391   6.780   4.911  11.061 -0.3771  0.1737  0.2498
  118OSM    C1S12392   6.686   5.114  10.844  0.3635  0.1095  0.4767
  118OSM    H1S12393   6.721   5.019  10.799 -0.3550  1.6645 -3.8511
  118OSM    H1T12394   6.762   5.194  10.828 -0.2891  0.2641 -2.3966
  118OSM     NF12395   6.613   5.179  10.611  0.2792 -0.3612 -0.4787
  118OSM    HNF12396   6.654   5.269  10.596  2.1128 -0.9657  0.5059
  118OSM    C2S12397   6.563   5.161  10.749 -1.0194  0.2951 -0.2372
  118OSM    H2S12398   6.495   5.073  10.762 -0.9893  0.1213 -1.2258
  118OSM    C3S12399   6.490   5.292  10.799  0.5105 -0.1299  0.0109
  118OSM    H3S12400   6.554   5.378  10.771  0.0907  0.1644 -0.0374
  118OSM     O312401   6.469   5.303  10.941 -0.9654  0.0186  0.1559
  118OSM    HO312402   6.519   5.230  10.977 -0.1663  0.5026  0.0526
  118OSM    C4S12403   6.360   5.317  10.724 -0.0114 -0.3430  0.1048
  118OSM    H4S12404   6.358   5.386  10.639 -1.8298 -0.4700  0.0046
  118OSM    C5S12405   6.246   5.249  10.740 -0.8673 -0.0017 -0.6980
  118OSM    H5S12406   6.241   5.166  10.812  1.1173 -0.3267 -0.8744
  118OSM    C6S12407   6.119   5.257  10.655 -0.3668 -0.1785  0.5041
  118OSM    H6S12408   6.054   5.333  10.702  0.3999  1.0341 -0.3256
  118OSM    H6T12409   6.062   5.162  10.668  0.5092 -0.7653  0.2199
  118OSM    C7S12410   6.138   5.286  10.512 -0.1330  0.2361  0.5950
  118OSM    H7S12411   6.180   5.389  10.507  2.5565 -0.7615  1.2948
  118OSM    H7T12412   6.040   5.292  10.460 -0.8770  0.1784  1.9511
  118OSM    C8S12413   6.240   5.200  10.434 -0.2728  0.1384 -0.9625
  118OSM    H8S12414   6.221   5.091  10.444 -2.3264  0.5069 -0.3750
  118OSM    H8T12415   6.345   5.223  10.461 -0.0778 -1.8483  0.2200
  118OSM    C9S12416   6.234   5.229  10.284  0.4598  0.3689  0.5211
  118OSM    H9S12417   6.215   5.339  10.282  1.5089  0.5514  0.0096
  118OSM    H9T12418   6.135   5.187  10.255 -0.0545  3.6268 -3.3701
  118OSM   C10S12419   6.351   5.166  10.204  0.4232  0.1912 -0.0430
  118OSM   H10S12420   6.352   5.055  10.209  0.8031  0.1616 -0.6758
  118OSM   H10T12421   6.441   5.214  10.248  0.9932 -0.3434 -0.6073
  118OSM   C11S12422   6.334   5.188  10.057  1.4147  0.0806  0.1248
  118OSM   H11S12423   6.341   5.297  10.037  1.7162  0.2873  1.2792
  118OSM   H11T12424   6.236   5.143  10.030  1.8436  1.0484 -3.5170
  118OSM   C12S12425   6.428   5.099   9.979  0.2445  0.5669 -0.4476
  118OSM   H12S12426   6.408   4.993  10.007 -0.9324  1.3870  2.1189
  118OSM   H12T12427   6.533   5.130   9.998 -0.0132  1.1867 -0.0204
  118OSM   C13S12428   6.392   5.111   9.830 -0.1729 -0.6737  0.8561
  118OSM   H13S12429   6.398   5.221   9.813 -0.8803 -0.8229 -0.4156
  118OSM   H13T12430   6.288   5.077   9.812 -0.6264  1.5351 -1.2633
  118OSM   C14S12431   6.483   5.039   9.743 -0.5553 -0.0018  0.3597
  118OSM   H14S12432   6.489   4.933   9.774 -2.0314  0.1425  1.1988
  118OSM   H14T12433   6.584   5.083   9.761 -1.4380  2.1313  0.3901
  118OSM   C15S12434   6.467   5.066   9.595 -0.4150  0.6957 -0.1301
  118OSM   H15S12435   6.432   5.170   9.580 -2.2729 -0.0230 -1.1405
  118OSM   H15T12436   6.386   4.996   9.563  0.4733  0.5931 -2.3688
  118OSM   C16S12437   6.591   5.037   9.510  0.1100  0.8332  0.2762
  118OSM   H16S12438   6.648   4.956   9.560 -2.3379 -1.2561 -0.1296
  118OSM   H16T12439   6.666   5.119   9.515  1.1193  0.0059 -0.7836
  118OSM   C17S12440   6.556   5.015   9.362  0.1529  0.2318  0.2654
  118OSM   H17S12441   6.469   4.948   9.346  1.1659 -0.8777 -0.7992
  118OSM   H17T12442   6.647   4.965   9.322  0.1314 -2.1875  2.8622
  118OSM   C18S12443   6.524   5.142   9.289 -0.3666  0.9923  0.0331
  118OSM   H18S12444   6.591   5.221   9.329 -1.4715  1.7346  0.4563
  118OSM   H18T12445   6.424   5.168   9.328 -1.2916 -0.3674 -1.2935
  118OSM   H18U12446   6.517   5.123   9.179 -0.0446  0.4535  0.1006
  118OSM    C1F12447   6.637   5.083  10.525  0.2172 -0.1111  0.6801
  118OSM     OF12448   6.591   4.974  10.541  0.4698 -0.0171 -0.1525
  118OSM    C2F12449   6.719   5.118  10.399  0.6081  0.3134 -0.4174
  118OSM    H2F12450   6.827   5.130  10.424  0.6499 -2.0791  0.8287
  118OSM    H2G12451   6.677   5.207  10.348 -1.1063 -1.0230 -1.4572
  118OSM    C3F12452   6.716   4.997  10.301 -0.0567 -0.1397 -0.3997
  118OSM    H3F12453   6.608   4.979  10.279 -0.5012  0.4791  1.1800
  118OSM    H3G12454   6.758   4.905  10.349  2.3135  0.5565 -1.0005
  118OSM    C4F12455   6.795   5.004  10.174 -0.1035 -0.2346  0.5060
  118OSM    H4F12456   6.899   4.965  10.187  0.5939  0.8141 -1.5578
  118OSM    H4G12457   6.790   5.104  10.127 -0.5068 -0.0372  0.9641
  118OSM    C5F12458   6.728   4.900  10.074 -0.0295  0.2859  0.0832
  118OSM    H5F12459   6.628   4.941  10.049  1.1673  2.8104 -0.8481
  118OSM    H5G12460   6.720   4.797  10.117  0.7580 -0.8338 -2.3060
  118OSM    C6F12461   6.809   4.881   9.945  0.4197  0.9268 -0.2360
  118OSM    H6F12462   6.914   4.875   9.981  0.1674 -0.0998  0.3733
  118OSM    H6G12463   6.796   4.966   9.876  1.0472  0.2437 -1.2333
  118OSM    C7F12464   6.787   4.756   9.854  0.0949 -0.2575  0.3165
  118OSM    H7F12465   6.705   4.774   9.782  0.4316 -3.1707 -0.9369
  118OSM    H7G12466   6.759   4.669   9.918 -0.2785 -0.1326  0.3240
  118OSM    C8F12467   6.917   4.723   9.769  0.0603  0.5339 -0.0702
  118OSM    H8F12468   7.001   4.716   9.842  1.1960 -1.0320 -1.4449
  118OSM    H8G12469   6.937   4.799   9.691 -1.7273 -0.8958 -2.0569
  118OSM    C9F12470   6.899   4.590   9.710 -0.2225  0.7223  0.4115
  118OSM    H9F12471   6.913   4.510   9.784 -0.9261  0.2523  0.0449
  118OSM   C10F12472   6.886   4.556   9.582 -0.0524 -0.3410  0.1206
  118OSM   H10F12473   6.860   4.453   9.555 -1.3715  0.2380 -0.9763
  118OSM   C11F12474   6.876   4.661   9.472  0.1224 -0.0171  0.8237
  118OSM   H11F12475   6.807   4.744   9.496 -1.1264 -0.4736 -0.9720
  118OSM   H11G12476   6.814   4.615   9.392  2.0360  0.1602 -0.8562
  118OSM   C12F12477   7.011   4.717   9.426  0.0985  0.2342  0.5019
  118OSM   H12F12478   7.077   4.640   9.382  0.1016  1.5049 -1.9132
  118OSM   H12G12479   7.068   4.761   9.510  1.4024  1.9663 -1.1892
  118OSM   C13F12480   7.000   4.840   9.334  0.4853 -0.3621 -0.0272
  118OSM   H13F12481   7.098   4.861   9.287 -1.0004 -1.0715 -3.7526
  118OSM   H13G12482   6.956   4.933   9.375  0.1441  0.2194 -1.6414
  118OSM   C14F12483   6.918   4.812   9.206 -0.3271  0.4621 -0.1722
  118OSM   H14F12484   6.816   4.777   9.234 -0.1808 -0.3446 -0.6272
  118OSM   H14G12485   6.974   4.728   9.159  0.5383  0.6506  0.5028
  118OSM   C15F12486   6.915   4.923   9.103  0.2017 -0.4305  0.8651
  118OSM   H15F12487   7.015   4.947   9.061  0.1675 -0.7897  0.5724
  118OSM   H15G12488   6.872   5.011   9.155 -1.4993  1.4146 -3.2456
  118OSM   C16F12489   6.830   4.892   8.983 -0.0392  0.4311 -0.2694
  118OSM   H16F12490   6.777   4.975   8.933  0.3195  1.4516  0.9929
  118OSM   H16G12491   6.749   4.821   9.012  0.9328 -0.9101 -0.7121
  118OSM   C17F12492   6.908   4.819   8.872  0.0023  0.6170 -0.6467
  118OSM   H17F12493   6.939   4.721   8.916 -3.6299 -0.1614  0.4967
  118OSM   H17G12494   6.992   4.878   8.829  0.3464 -0.7163 -1.8921
  118OSM   C18F12495   6.819   4.775   8.760 -0.0856 -0.1087  0.5662
  118OSM   H18F12496   6.773   4.869   8.721 -0.1583 -0.0491  0.7935
  118OSM   H18G12497   6.731   4.713   8.788 -0.8453  0.8095  0.2742
  118OSM   H18H12498   6.875   4.723   8.680 -1.5930 -1.4011  0.2873
  119OSM      N12499   0.258   3.711  10.815 -1.1368 -1.0058 -0.3039
  119OSM    C1512500   0.209   3.787  10.692  0.4910 -0.1482 -0.7876
  119OSM   H15A12501   0.290   3.824  10.631  2.1777 -0.5932  1.0810
  119OSM   H15B12502   0.155   3.874  10.729 -0.5734 -0.7024 -0.9937
  119OSM   H15C12503   0.139   3.733  10.630 -1.0574  1.2298 -0.3257
  119OSM    C1412504   0.144   3.671  10.902 -0.7167 -0.1181 -0.0833
  119OSM   H14A12505   0.176   3.601  10.978  1.3039  0.7477 -0.0657
  119OSM   H14B12506   0.074   3.613  10.844  1.4640 -1.4688 -1.5033
  119OSM   H14C12507   0.101   3.750  10.962 -0.4239 -1.8544  2.5805
  119OSM    C1312508   0.311   3.586  10.763  0.1604  0.6840  0.4230
  119OSM   H13A12509   0.373   3.590  10.675 -0.0610 -3.2973 -0.0679
  119OSM   H13B12510   0.242   3.508  10.736  1.2810  0.4576 -2.0410
  119OSM   H13C12511   0.375   3.532  10.831 -1.2497 -1.4613  0.1194
  119OSM    C1212512   0.368   3.789  10.883 -0.6382  0.1083 -0.0706
  119OSM   H12A12513   0.329   3.888  10.898  1.2303  0.8659  0.1001
  119OSM   H12B12514   0.453   3.795  10.817  1.5353 -4.0117  1.9416
  119OSM    C1112515   0.415   3.730  11.017  0.1188  0.0188  0.3551
  119OSM   H11A12516   0.326   3.710  11.081  0.3233  0.1754  0.6961
  119OSM   H11B12517   0.455   3.822  11.065  1.2432  0.4406 -1.3254
  119OSM      P12518   0.651   3.632  10.971  0.3109  0.1435 -0.2916
  119OSM    O1312519   0.732   3.657  11.094  0.1780  0.2020 -0.3470
  119OSM    O1412520   0.676   3.517  10.888 -0.3396 -0.2743  0.4960
  119OSM    O1112521   0.656   3.760  10.885  0.5423  0.2141 -0.2289
  119OSM    O1212522   0.499   3.619  11.013  0.6212  0.3145  0.3005
  119OSM    C1S12523   0.666   3.749  10.747 -0.2352 -0.0108 -0.5864
  119OSM    H1S12524   0.570   3.722  10.700 -0.2167  0.5088 -0.9298
  119OSM    H1T12525   0.753   3.690  10.712  0.4870  1.4707 -1.3970
  119OSM     NF12526   0.683   3.894  10.548 -0.5020 -0.3922 -0.0388
  119OSM    HNF12527   0.765   3.899  10.491 -0.2566 -1.8681  0.1496
  119OSM    C2S12528   0.698   3.884  10.692 -0.3640 -0.1961  0.0168
  119OSM    H2S12529   0.630   3.963  10.730  0.4665  0.1575  0.8103
  119OSM    C3S12530   0.848   3.929  10.725  0.9095  0.7251 -0.1417
  119OSM    H3S12531   0.919   3.855  10.683 -1.1349 -0.4295 -1.7180
  119OSM     O312532   0.865   3.932  10.868  0.0170 -0.3453 -0.6471
  119OSM    HO312533   0.792   3.880  10.902 -0.1647 -1.1609 -2.1996
  119OSM    C4S12534   0.874   4.070  10.679  0.2317  0.1345  0.2437
  119OSM    H4S12535   0.804   4.145  10.720 -0.8875  0.2158 -1.6824
  119OSM    C5S12536   0.986   4.117  10.624 -0.3531  0.4918  0.0607
  119OSM    H5S12537   1.066   4.044  10.602 -0.1818 -0.2554  2.7126
  119OSM    C6S12538   1.005   4.262  10.579 -0.0394  0.2868 -0.1912
  119OSM    H6S12539   1.093   4.312  10.625  1.4553 -2.5074  0.1923
  119OSM    H6T12540   0.919   4.325  10.613 -0.0874 -0.7418  1.7472
  119OSM    C7S12541   1.022   4.276  10.426 -0.2710  0.4116  0.7646
  119OSM    H7S12542   1.113   4.225  10.386 -0.2384  1.0620 -0.0070
  119OSM    H7T12543   1.046   4.382  10.405 -2.1002  0.3197 -2.5042
  119OSM    C8S12544   0.891   4.240  10.348  0.4272 -0.0042  0.6957
  119OSM    H8S12545   0.806   4.285  10.404 -1.4284  0.3599 -2.1893
  119OSM    H8T12546   0.869   4.131  10.344 -1.3611  0.3796 -1.0017
  119OSM    C9S12547   0.891   4.299  10.200 -0.3914  0.1597  0.6704
  119OSM    H9S12548   0.895   4.410  10.212 -1.3919  0.4280 -1.1276
  119OSM    H9T12549   0.797   4.255  10.161 -0.1077 -1.1795  1.4577
  119OSM   C10S12550   0.999   4.236  10.119  0.5033  0.0359  0.1906
  119OSM   H10S12551   0.983   4.126  10.128 -0.1528  0.2265  1.6660
  119OSM   H10T12552   1.098   4.256  10.164  0.6014 -2.6599  1.4057
  119OSM   C11S12553   0.997   4.284   9.977 -0.6084  0.7978 -0.6283
  119OSM   H11S12554   0.997   4.395   9.984 -0.2799  0.7680 -0.1209
  119OSM   H11T12555   0.901   4.243   9.940 -1.4197  0.8767  1.3155
  119OSM   C12S12556   1.118   4.240   9.897  0.2608 -0.4283  0.5642
  119OSM   H12S12557   1.112   4.130   9.901  0.5487 -0.4808 -0.2057
  119OSM   H12T12558   1.216   4.283   9.929  0.3341 -0.1423 -0.0218
  119OSM   C13S12559   1.106   4.277   9.746 -0.4908  0.0845  0.5714
  119OSM   H13S12560   1.010   4.232   9.711 -1.4701  1.7534  0.9943
  119OSM   H13T12561   1.197   4.239   9.696 -0.6292 -0.0353  0.4058
  119OSM   C14S12562   1.119   4.423   9.721  0.8159  0.7561 -0.7234
  119OSM   H14S12563   1.220   4.447   9.762  2.5888 -2.4143 -2.7899
  119OSM   H14T12564   1.050   4.484   9.783  2.8760  1.0785  1.4241
  119OSM   C15S12565   1.117   4.477   9.583 -0.0055  0.0455 -0.2183
  119OSM   H15S12566   1.201   4.426   9.530  2.2604  1.0794  2.1644
  119OSM   H15T12567   1.134   4.587   9.587  1.6482 -0.2144  0.5134
  119OSM   C16S12568   0.987   4.454   9.510  0.3196  0.1881 -0.4874
  119OSM   H16S12569   0.913   4.524   9.554 -0.6392 -2.3706  2.2960
  119OSM   H16T12570   0.944   4.354   9.530 -2.3787  1.1892 -0.8391
  119OSM   C17S12571   0.994   4.477   9.358  0.2773  0.2208 -0.5527
  119OSM   H17S12572   0.896   4.441   9.321  0.1017  0.2745 -0.1466
  119OSM   H17T12573   1.061   4.401   9.312 -1.6608 -2.3894  0.6916
  119OSM   C18S12574   1.020   4.622   9.306 -0.5768  0.1240 -0.5632
  119OSM   H18S12575   0.990   4.623   9.199  0.6253 -0.4647 -0.9222
  119OSM   H18T12576   1.127   4.654   9.307 -0.8265  0.9880 -0.8639
  119OSM   H18U12577   0.946   4.695   9.345  0.0422  0.4194  0.0905
  119OSM    C1F12578   0.562   3.899  10.492  0.5652 -0.2055 -0.2639
  119OSM     OF12579   0.452   3.874  10.553 -0.5214 -0.3527  0.6250
  119OSM    C2F12580   0.569   3.955  10.352 -0.6895  0.6135 -0.4182
  119OSM    H2F12581   0.531   3.879  10.280  0.4977 -1.9740  1.5108
  119OSM    H2G12582   0.672   3.991  10.333  0.0906 -0.0205  2.1870
  119OSM    C3F12583   0.484   4.083  10.337 -0.7800  0.2092  0.2238
  119OSM    H3F12584   0.522   4.167  10.398  0.0679 -0.7184  1.0186
  119OSM    H3G12585   0.379   4.061  10.364 -0.0764 -1.5021  1.8318
  119OSM    C4F12586   0.488   4.124  10.188  0.2441  0.0290  0.4460
  119OSM    H4F12587   0.425   4.051  10.133  0.4266  0.6084 -0.5516
  119OSM    H4G12588   0.592   4.117  10.148 -0.1302 -0.4259 -0.4677
  119OSM    C5F12589   0.447   4.272  10.167  0.0818  0.0505 -0.5236
  119OSM    H5F12590   0.525   4.343  10.202  0.2403  0.5841 -1.9033
  119OSM    H5G12591   0.357   4.285  10.231  1.1462  0.9646  0.8375
  119OSM    C6F12592   0.426   4.298  10.018  0.3466  0.4635 -0.1969
  119OSM    H6F12593   0.349   4.228   9.979 -0.1615  2.0725 -2.2863
  119OSM    H6G12594   0.518   4.268   9.963  0.3662 -1.0118  0.5921
  119OSM    C7F12595   0.389   4.445   9.980  0.5538 -0.8257  0.1928
  119OSM    H7F12596   0.445   4.500  10.059 -0.4119  1.8052 -0.8564
  119OSM    H7G12597   0.282   4.474   9.980  0.6000 -0.3757 -2.2739
  119OSM    C8F12598   0.433   4.476   9.839 -0.6787 -0.2541 -0.1669
  119OSM    H8F12599   0.378   4.561   9.793  0.4296  0.9227  0.6059
  119OSM    H8G12600   0.401   4.384   9.786 -3.3475  0.4755  0.0329
  119OSM    C9F12601   0.581   4.503   9.827 -0.4207 -0.1277 -0.8648
  119OSM    H9F12602   0.623   4.553   9.915 -0.2071 -1.7537 -0.0112
  119OSM   C10F12603   0.668   4.468   9.723  0.5124 -0.2522 -0.1829
  119OSM   H10F12604   0.776   4.490   9.722  0.2129  1.3071 -0.3792
  119OSM   C11F12605   0.629   4.394   9.590  0.2886  0.1824 -0.8122
  119OSM   H11F12606   0.556   4.312   9.610  1.6876 -0.7946  0.5313
  119OSM   H11G12607   0.724   4.348   9.557  0.5493  1.1763 -1.4638
  119OSM   C12F12608   0.581   4.491   9.479  0.4249 -0.2654  0.0747
  119OSM   H12F12609   0.647   4.580   9.477  0.9118 -0.5812  1.3290
  119OSM   H12G12610   0.477   4.528   9.490  0.6018  0.5129 -0.7178
  119OSM   C13F12611   0.583   4.425   9.343  0.7637  0.5664 -0.2574
  119OSM   H13F12612   0.494   4.361   9.328  1.0155  0.0735  0.2803
  119OSM   H13G12613   0.670   4.357   9.328  1.9462  1.5057  1.8787
  119OSM   C14F12614   0.574   4.522   9.221 -0.3758 -0.2520 -0.3326
  119OSM   H14F12615   0.668   4.582   9.221  0.1469 -1.0462 -0.8537
  119OSM   H14G12616   0.493   4.591   9.251 -0.7437 -0.6202 -0.4689
  119OSM   C15F12617   0.550   4.451   9.086  0.6143 -1.0802  0.4251
  119OSM   H15F12618   0.454   4.396   9.100 -0.3263  0.4327  0.1777
  119OSM   H15G12619   0.620   4.369   9.059 -1.6494 -2.0551 -3.1668
  119OSM   C16F12620   0.543   4.556   8.976  0.2080 -0.8232  0.1296
  119OSM   H16F12621   0.638   4.614   8.971  0.5349 -1.3137  0.5624
  119OSM   H16G12622   0.457   4.623   8.991 -0.8471 -1.7109 -1.5759
  119OSM   C17F12623   0.518   4.500   8.836  0.4090 -0.7338 -0.0431
  119OSM   H17F12624   0.611   4.451   8.801  0.6666 -0.5568  0.3828
  119OSM   H17G12625   0.510   4.587   8.767  4.0075  0.8886  1.3270
  119OSM   C18F12626   0.398   4.409   8.824 -0.0173  0.2186 -0.1052
  119OSM   H18F12627   0.399   4.331   8.903 -1.1880  0.8268  0.5272
  119OSM   H18G12628   0.391   4.364   8.723  1.8662  2.5166 -1.3534
  119OSM   H18H12629   0.305   4.464   8.850  0.2381  1.0628 -0.9298
  120OSM      N12630   6.057   0.141  10.873  0.1207  0.5469 -0.3075
  120OSM    C1512631   6.004   0.282  10.883 -0.3857  0.4385  0.1485
  120OSM   H15A12632   5.897   0.293  10.881 -0.1738  2.8371 -1.2276
  120OSM   H15B12633   6.049   0.341  10.805 -0.3936 -1.3378 -1.2888
  120OSM   H15C12634   6.022   0.322  10.981  2.1497 -2.3946  1.0242
  120OSM    C1412635   6.204   0.157  10.885  0.3537  0.3329 -0.2954
  120OSM   H14A12636   6.250   0.219  10.809  2.2424 -0.6292 -0.0086
  120OSM   H14B12637   6.251   0.060  10.874 -0.1761 -0.2633  2.0966
  120OSM   H14C12638   6.229   0.193  10.984 -2.2892  0.8305  0.2604
  120OSM    C1312639   5.991   0.055  10.978 -0.6897  0.2347 -0.2192
  120OSM   H13A12640   6.027   0.087  11.074  0.8367 -2.5646  0.2363
  120OSM   H13B12641   5.991  -0.052  10.971 -1.5117  0.0548  1.9362
  120OSM   H13C12642   5.885   0.073  10.970 -1.3176 -3.0757 -0.8612
  120OSM    C1212643   6.026   0.087  10.733  0.2184  0.0770 -0.4905
  120OSM   H12A12644   5.922   0.057  10.737  0.1965  0.2845  0.8073
  120OSM   H12B12645   6.076  -0.006  10.711 -0.2729 -0.0797 -0.9725
  120OSM    C1112646   6.092   0.165  10.620  0.0342 -0.1752  0.0178
  120OSM   H11A12647   6.087   0.274  10.637  0.7799 -0.2554  0.8187
  120OSM   H11B12648   6.028   0.127  10.537 -1.6186  1.2098  0.5962
  120OSM      P12649   6.320   0.205  10.516  0.4891 -0.5030 -0.1256
  120OSM    O1312650   6.344   0.340  10.577  0.2072  0.8397 -0.3335
  120OSM    O1412651   6.433   0.125  10.478  0.1619  0.4393  0.3202
  120OSM    O1112652   6.237   0.221  10.376  0.1302  0.0098 -0.5825
  120OSM    O1212653   6.228   0.120  10.610  0.0069  0.6796 -0.2065
  120OSM    C1S12654   6.146   0.327  10.355  0.3635  0.2050 -0.3043
  120OSM    H1S12655   6.159   0.412  10.425 -3.4158  1.1521 -0.5584
  120OSM    H1T12656   6.041   0.293  10.365  0.3305  1.0605  3.5206
  120OSM     NF12657   6.095   0.497  10.183  0.1824 -0.1383 -0.5918
  120OSM    HNF12658   5.996   0.483  10.179 -0.1250  0.8038  1.8112
  120OSM    C2S12659   6.163   0.378  10.206 -0.2706  0.0419  0.0779
  120OSM    H2S12660   6.274   0.384  10.196 -0.2871 -1.5529 -1.4357
  120OSM    C3S12661   6.130   0.257  10.113  0.0130  0.0477 -0.5878
  120OSM    H3S12662   6.028   0.218  10.134 -0.8413  1.0429 -2.7024
  120OSM     O312663   6.220   0.143  10.128 -0.2078 -0.4420  0.3133
  120OSM    HO312664   6.258   0.154  10.215 -0.4137 -1.6952  0.5822
  120OSM    C4S12665   6.143   0.299   9.966  0.1722  0.3214  0.2838
  120OSM    H4S12666   6.247   0.300   9.930  0.4271  1.4705  0.9909
  120OSM    C5S12667   6.038   0.315   9.881  0.6325  0.5817  0.2088
  120OSM    H5S12668   5.936   0.312   9.922  1.3860 -0.4123  2.1082
  120OSM    C6S12669   6.061   0.347   9.736  1.0968  0.2719 -0.4334
  120OSM    H6S12670   6.001   0.437   9.710 -0.3650 -0.7280 -0.6563
  120OSM    H6T12671   6.035   0.262   9.670  1.2679  0.7333 -1.1097
  120OSM    C7S12672   6.203   0.382   9.688  0.9146 -0.1468  0.0823
  120OSM    H7S12673   6.265   0.290   9.698 -2.0246 -1.9715  3.7481
  120OSM    H7T12674   6.240   0.467   9.749  0.6459  0.3130 -0.3893
  120OSM    C8S12675   6.215   0.422   9.536 -0.0140  0.4738  0.5481
  120OSM    H8S12676   6.141   0.494   9.495 -0.1104  0.4813  0.7294
  120OSM    H8T12677   6.173   0.336   9.482  0.0442  2.2315 -2.5040
  120OSM    C9S12678   6.351   0.462   9.490 -0.8815 -0.0223 -0.3533
  120OSM    H9S12679   6.436   0.398   9.522 -0.3434  1.0920  0.5332
  120OSM    H9T12680   6.380   0.561   9.529  0.3677 -1.1161  1.6545
  120OSM   C10S12681   6.356   0.456   9.343  0.2566  0.4060 -0.5625
  120OSM   H10S12682   6.267   0.509   9.304  0.3283 -0.2730 -1.6922
  120OSM   H10T12683   6.339   0.347   9.330  0.5860  0.2270  0.4270
  120OSM   C11S12684   6.497   0.498   9.284 -1.2031 -0.4320  0.0755
  120OSM   H11S12685   6.581   0.427   9.298 -0.4869  0.2531 -0.6735
  120OSM   H11T12686   6.529   0.592   9.335  0.4648 -1.3879  0.8847
  120OSM   C12S12687   6.485   0.526   9.133 -0.2437 -0.1441 -0.1269
  120OSM   H12S12688   6.410   0.609   9.140 -1.2805 -1.0876  0.2991
  120OSM   H12T12689   6.429   0.444   9.084  0.2120 -0.5977  0.1030
  120OSM   C13S12690   6.613   0.573   9.058  0.6901  0.3403  0.0894
  120OSM   H13S12691   6.688   0.491   9.055  1.8354  1.2896  1.4036
  120OSM   H13T12692   6.670   0.640   9.126  1.5209 -0.6224  0.3640
  120OSM   C14S12693   6.588   0.647   8.924 -0.3118  0.3067 -0.8799
  120OSM   H14S12694   6.546   0.747   8.946 -0.7361  0.0586 -0.5459
  120OSM   H14T12695   6.526   0.595   8.848  1.8992 -0.4809 -2.2594
  120OSM   C15S12696   6.721   0.678   8.848 -0.0902  0.0162  0.5892
  120OSM   H15S12697   6.792   0.593   8.840 -1.2447 -0.8493 -1.1571
  120OSM   H15T12698   6.771   0.760   8.905 -0.5250 -0.1237  1.1740
  120OSM   C16S12699   6.684   0.739   8.702 -0.1562 -0.2022 -0.5254
  120OSM   H16S12700   6.629   0.833   8.722  1.7725  1.2135 -1.5185
  120OSM   H16T12701   6.606   0.682   8.648 -0.5168 -0.8980  0.7024
  120OSM   C17S12702   6.807   0.757   8.608  0.6348 -0.5002 -0.8893
  120OSM   H17S12703   6.849   0.655   8.590  2.4934  0.3064 -1.3840
  120OSM   H17T12704   6.891   0.811   8.658 -0.6747  1.2031 -0.4512
  120OSM   C18S12705   6.766   0.837   8.484 -0.6071 -0.0722 -0.0234
  120OSM   H18S12706   6.666   0.803   8.453 -1.4871  1.6137  0.8248
  120OSM   H18T12707   6.843   0.838   8.404 -0.0005 -2.2388  0.4571
  120OSM   H18U12708   6.755   0.946   8.505 -1.3762  0.1944 -1.6934
  120OSM    C1F12709   6.147   0.617  10.219  0.4807 -1.1641  1.2315
  120OSM     OF12710   6.258   0.626  10.266 -0.0215  0.4196 -0.6271
  120OSM    C2F12711   6.049   0.735  10.207  0.2244 -0.5273  0.6364
  120OSM    H2F12712   6.008   0.762  10.307  1.4531  1.1861  0.7214
  120OSM    H2G12713   5.963   0.710  10.141 -0.6971 -0.3737  1.7288
  120OSM    C3F12714   6.114   0.864  10.161 -0.4610  0.2014 -0.0570
  120OSM    H3F12715   6.189   0.913  10.227  0.6070 -0.8910 -0.4108
  120OSM    H3G12716   6.040   0.941  10.131 -0.2452  0.4466  0.0301
  120OSM    C4F12717   6.196   0.849  10.030 -0.0571  0.2391 -0.4163
  120OSM    H4F12718   6.266   0.763  10.030 -1.4716 -0.9626  0.1413
  120OSM    H4G12719   6.257   0.941  10.018 -0.0252  0.3838  0.7389
  120OSM    C5F12720   6.096   0.834   9.918  0.1115  0.4517 -0.4453
  120OSM    H5F12721   6.052   0.936   9.903  0.1678  0.8675  1.8590
  120OSM    H5G12722   6.022   0.756   9.946 -1.5038  1.8715 -0.5628
  120OSM    C6F12723   6.159   0.789   9.778 -0.0615 -1.0147 -0.0095
  120OSM    H6F12724   6.207   0.691   9.794  3.0306  0.5284  0.8227
  120OSM    H6G12725   6.237   0.867   9.767 -0.4617 -0.6695 -0.5068
  120OSM    C7F12726   6.059   0.798   9.666  0.1578  0.8097 -1.1259
  120OSM    H7F12727   5.995   0.889   9.668  1.5747  1.8692  1.6029
  120OSM    H7G12728   5.983   0.717   9.675 -1.4273  1.8720 -3.7379
  120OSM    C8F12729   6.120   0.799   9.529 -0.5532  0.8070  0.0059
  120OSM    H8F12730   6.197   0.718   9.523 -0.8241  0.3699  1.7336
  120OSM    H8G12731   6.185   0.884   9.502 -0.2571  0.2696 -1.0419
  120OSM    C9F12732   6.021   0.767   9.420  0.3802 -0.4619 -0.5068
  120OSM    H9F12733   5.915   0.763   9.448  0.3612  0.9317 -0.2611
  120OSM   C10F12734   6.043   0.757   9.290 -0.0743  1.0142 -0.4822
  120OSM   H10F12735   5.951   0.756   9.229  0.2411  1.3868 -0.9730
  120OSM   C11F12736   6.171   0.771   9.212 -0.4087  0.9362 -0.9117
  120OSM   H11F12737   6.201   0.667   9.184  0.2105  0.4308  1.4667
  120OSM   H11G12738   6.257   0.801   9.276 -2.2964 -0.4517  2.5520
  120OSM   C12F12739   6.156   0.847   9.089 -0.0184 -0.5696  0.2202
  120OSM   H12F12740   6.146   0.956   9.106  0.7094 -0.5292  0.4392
  120OSM   H12G12741   6.064   0.822   9.032 -0.4729  0.9120  0.2737
  120OSM   C13F12742   6.279   0.831   8.995  0.2698  0.3264  0.0101
  120OSM   H13F12743   6.309   0.724   8.986  0.3780  0.3224  0.3732
  120OSM   H13G12744   6.362   0.869   9.058  2.9700 -5.0809  0.3514
  120OSM   C14F12745   6.257   0.880   8.851  0.4331  0.0061 -0.5668
  120OSM   H14F12746   6.170   0.822   8.814  0.3400  0.3344 -0.8634
  120OSM   H14G12747   6.348   0.868   8.788  0.9735  0.4014  0.1244
  120OSM   C15F12748   6.218   1.022   8.835 -0.0490 -0.2796  0.2023
  120OSM   H15F12749   6.306   1.084   8.862  0.0379 -1.4676  3.0363
  120OSM   H15G12750   6.148   1.065   8.910 -1.1855  3.1680 -2.5474
  120OSM   C16F12751   6.148   1.059   8.699 -0.4236  0.6543 -0.3280
  120OSM   H16F12752   6.057   0.995   8.701 -0.6566  0.9804  0.9846
  120OSM   H16G12753   6.215   1.036   8.613 -1.1974  1.7756 -1.2473
  120OSM   C17F12754   6.119   1.207   8.699 -0.3838  0.4445  0.2585
  120OSM   H17F12755   6.210   1.269   8.718 -1.7671  2.9959 -0.8888
  120OSM   H17G12756   6.055   1.226   8.788 -1.2520 -0.8671 -0.0556
  120OSM   C18F12757   6.064   1.266   8.570  0.1306  0.8047  0.5616
  120OSM   H18F12758   6.132   1.255   8.484 -1.7222 -2.5886 -0.6599
  120OSM   H18G12759   6.035   1.372   8.581  1.3135  1.2738 -0.7075
  120OSM   H18H12760   5.979   1.200   8.541 -0.1722  1.5379 -0.2574
  121OSM      N12761   5.439   3.612  10.822  0.1762 -0.0520  0.8553
  121OSM    C1512762   5.374   3.705  10.919  0.1153 -0.1444  0.6427
  121OSM   H15A12763   5.445   3.750  10.986  1.1610 -0.2940 -0.3266
  121OSM   H15B12764   5.300   3.647  10.972 -2.9398 -0.2328 -3.2513
  121OSM   H15C12765   5.328   3.784  10.862  0.8613  0.2010  0.5067
  121OSM    C1412766   5.346   3.561  10.716 -0.4872  1.3444 -0.1542
  121OSM   H14A12767   5.404   3.515  10.637 -1.4316  0.6941 -0.4909
  121OSM   H14B12768   5.296   3.644  10.668 -1.3724  1.4363  0.9000
  121OSM   H14C12769   5.283   3.479  10.744 -0.1199  0.3931 -1.9244
  121OSM    C1312770   5.541   3.684  10.739  0.3814 -0.0215 -0.8598
  121OSM   H13A12771   5.570   3.630  10.650 -0.4642 -1.3244 -0.3753
  121OSM   H13B12772   5.627   3.703  10.802 -0.6569 -1.3366  1.0147
  121OSM   H13C12773   5.493   3.774  10.704 -0.8044 -0.4173 -0.2862
  121OSM    C1212774   5.512   3.490  10.878  0.0183 -0.2833 -0.2181
  121OSM   H12A12775   5.576   3.434  10.811  0.9028  0.7003 -0.2308
  121OSM   H12B12776   5.434   3.425  10.914 -2.3246  1.4787 -1.7781
  121OSM    C1112777   5.601   3.515  11.005  0.9179 -0.5496 -0.2901
  121OSM   H11A12778   5.611   3.415  11.053  0.1831 -0.0330  1.0060
  121OSM   H11B12779   5.546   3.584  11.072 -0.0059  1.6113 -3.0696
  121OSM      P12780   5.800   3.675  11.075  0.0872  0.0064  0.0279
  121OSM    O1312781   5.727   3.805  11.077 -0.3304 -0.3629  0.0828
  121OSM    O1412782   5.834   3.609  11.203 -0.5609 -0.5937  0.1804
  121OSM    O1112783   5.931   3.709  11.001 -0.5436  0.0278  0.0551
  121OSM    O1212784   5.725   3.577  10.969  0.0731  0.8719 -0.4115
  121OSM    C1S12785   6.019   3.607  10.943  0.8686  0.4701  0.2000
  121OSM    H1S12786   6.005   3.502  10.979 -1.6816 -0.2861 -2.6234
  121OSM    H1T12787   6.128   3.624  10.956  1.6998 -2.9607 -1.0267
  121OSM     NF12788   6.056   3.479  10.717 -0.3480  0.3234  0.5966
  121OSM    HNF12789   6.135   3.507  10.664  1.7736  0.3926  3.5828
  121OSM    C2S12790   5.990   3.595  10.789 -0.8212  1.1078  0.8922
  121OSM    H2S12791   5.880   3.589  10.775 -0.8046  0.1462  1.0699
  121OSM    C3S12792   6.031   3.726  10.716  0.3784  0.3576 -1.2472
  121OSM    H3S12793   6.140   3.741  10.701  0.5360 -1.0220 -1.6732
  121OSM     O312794   5.982   3.847  10.779  0.7734 -0.4994  0.3437
  121OSM    HO312795   5.960   3.822  10.870  1.3198  0.1783  0.6673
  121OSM    C4S12796   5.978   3.725  10.575  0.6818 -0.2423  0.2027
  121OSM    H4S12797   5.877   3.682  10.566  0.9688 -0.5199 -2.9059
  121OSM    C5S12798   6.041   3.756  10.458  0.0510  0.2682  0.3179
  121OSM    H5S12799   6.146   3.788  10.459  0.5151 -1.0215 -1.8422
  121OSM    C6S12800   5.966   3.752  10.321 -0.4589  0.4578 -0.7071
  121OSM    H6S12801   5.952   3.858  10.294 -1.5101  0.4374 -0.3053
  121OSM    H6T12802   5.865   3.709  10.338  0.1041  0.4526  3.7263
  121OSM    C7S12803   6.048   3.680  10.206  0.2773 -0.3632 -0.2185
  121OSM    H7S12804   6.051   3.569  10.219 -0.5223 -0.4009 -0.3093
  121OSM    H7T12805   6.151   3.720  10.213 -0.1578  0.5991  0.9233
  121OSM    C8S12806   5.980   3.714  10.069 -1.3578  0.2787  0.9507
  121OSM    H8S12807   5.990   3.820  10.039  0.1906 -0.4643 -1.4785
  121OSM    H8T12808   5.874   3.688  10.085 -1.5927  0.1065 -0.7214
  121OSM    C9S12809   6.043   3.631   9.960  0.2124 -0.2401 -0.6028
  121OSM    H9S12810   6.026   3.522   9.970 -1.8642  0.2148  1.9965
  121OSM    H9T12811   6.154   3.636   9.965  0.0994  1.1683  1.4794
  121OSM   C10S12812   5.997   3.670   9.818  0.0744 -0.6131  0.1645
  121OSM   H10S12813   5.999   3.780   9.805  0.9856 -0.7689 -1.2212
  121OSM   H10T12814   5.892   3.636   9.801 -1.6410  3.9460  0.3032
  121OSM   C11S12815   6.095   3.619   9.704  0.2027 -0.6392 -0.0710
  121OSM   H11S12816   6.076   3.510   9.710 -2.1671 -0.2147  3.4533
  121OSM   H11T12817   6.203   3.639   9.721  0.6562 -2.0013 -1.2075
  121OSM   C12S12818   6.052   3.671   9.561  0.0013 -0.0659 -0.6911
  121OSM   H12S12819   6.075   3.779   9.551  1.4570 -0.4934 -2.5030
  121OSM   H12T12820   5.944   3.647   9.547 -0.0416 -0.9776  0.9037
  121OSM   C13S12821   6.124   3.582   9.453  0.4887 -0.1066  0.2018
  121OSM   H13S12822   6.120   3.474   9.475 -2.9477 -1.0234 -3.6175
  121OSM   H13T12823   6.227   3.622   9.446  0.8591 -0.9432  0.7754
  121OSM   C14S12824   6.056   3.584   9.311 -0.1549  0.1650  0.3468
  121OSM   H14S12825   5.959   3.530   9.318  0.4020 -0.8619  0.3301
  121OSM   H14T12826   6.124   3.537   9.236  1.3941 -0.1836  1.9166
  121OSM   C15S12827   6.042   3.730   9.259 -0.6451  0.4564  0.1603
  121OSM   H15S12828   6.147   3.768   9.253 -1.3134  2.3916 -0.2128
  121OSM   H15T12829   5.976   3.784   9.330  0.9717  2.4601  0.2478
  121OSM   C16S12830   5.971   3.746   9.120 -0.6330 -0.0353 -0.8895
  121OSM   H16S12831   5.979   3.856   9.105  1.3449  0.2605  1.6785
  121OSM   H16T12832   5.867   3.715   9.146  0.0429 -0.7263  1.1673
  121OSM   C17S12833   6.021   3.660   9.000  0.3977  0.0488 -0.2092
  121OSM   H17S12834   6.022   3.556   9.039  2.7229 -0.0457 -0.3787
  121OSM   H17T12835   6.127   3.689   8.980  1.0868 -2.2428 -0.2149
  121OSM   C18S12836   5.925   3.677   8.887 -0.3711  0.0356 -0.1661
  121OSM   H18S12837   5.820   3.680   8.924 -0.3424  0.2468 -0.1005
  121OSM   H18T12838   5.938   3.603   8.805 -1.3557  0.7523 -0.9956
  121OSM   H18U12839   5.942   3.783   8.860 -1.3546  0.1598 -0.3307
  121OSM    C1F12840   6.040   3.344  10.752  0.4152 -0.0507 -0.1602
  121OSM     OF12841   5.954   3.319  10.842  0.7154  0.2947  0.0557
  121OSM    C2F12842   6.126   3.244  10.693  0.4353 -0.9218 -0.1666
  121OSM    H2F12843   6.170   3.188  10.778  0.5854  1.2107  1.2505
  121OSM    H2G12844   6.200   3.294  10.626 -0.2135 -1.4680 -1.3134
  121OSM    C3F12845   6.026   3.148  10.614  0.2564  0.6408 -0.3776
  121OSM    H3F12846   5.944   3.112  10.680 -0.2599  0.8108 -0.9218
  121OSM    H3G12847   6.089   3.064  10.579 -0.3692 -0.2868  0.6824
  121OSM    C4F12848   5.965   3.225  10.496  0.0794  0.3785 -0.1679
  121OSM    H4F12849   6.047   3.279  10.444  1.9958 -0.7914  1.4786
  121OSM    H4G12850   5.886   3.294  10.534 -0.2713 -0.1668  0.1095
  121OSM    C5F12851   5.888   3.126  10.410 -0.1002  0.8894  0.5267
  121OSM    H5F12852   5.822   3.059  10.470  1.0606  0.4158  1.3159
  121OSM    H5G12853   5.953   3.054  10.355 -3.4397 -0.9807 -1.2919
  121OSM    C6F12854   5.800   3.190  10.303 -0.0937 -0.2988 -0.2174
  121OSM    H6F12855   5.864   3.231  10.222  0.3560 -0.7949 -0.1153
  121OSM    H6G12856   5.740   3.277  10.340  0.6926  1.0588 -1.9984
  121OSM    C7F12857   5.712   3.083  10.231  0.6579 -1.0254  0.0361
  121OSM    H7F12858   5.626   3.043  10.288 -1.3076 -0.7425 -2.5472
  121OSM    H7G12859   5.774   2.993  10.209  0.2415 -0.9550 -1.5343
  121OSM    C8F12860   5.653   3.119  10.105  0.1863  0.1512 -0.4103
  121OSM    H8F12861   5.584   3.206  10.115 -0.8522 -0.7225  0.2732
  121OSM    H8G12862   5.588   3.034  10.073  0.2477  0.1191 -0.4493
  121OSM    C9F12863   5.755   3.137   9.992  0.6411 -1.1701 -0.3287
  121OSM    H9F12864   5.847   3.077  10.000  0.5151 -1.3844 -0.4543
  121OSM   C10F12865   5.739   3.217   9.886 -0.6012  0.1993 -0.5063
  121OSM   H10F12866   5.824   3.217   9.816 -1.4921  0.2471 -1.6196
  121OSM   C11F12867   5.624   3.302   9.843 -0.7867 -0.4305 -0.2830
  121OSM   H11F12868   5.655   3.408   9.853 -2.2334  0.3829 -3.3468
  121OSM   H11G12869   5.533   3.291   9.906 -1.1852 -1.0304 -0.9579
  121OSM   C12F12870   5.598   3.290   9.690 -0.0495 -0.2205 -0.2895
  121OSM   H12F12871   5.531   3.377   9.674 -0.7057 -1.1465 -3.0808
  121OSM   H12G12872   5.542   3.199   9.660  1.0953 -1.5859  1.5070
  121OSM   C13F12873   5.724   3.308   9.594 -0.4928  0.0258 -0.8595
  121OSM   H13F12874   5.753   3.201   9.578 -1.3058 -0.0229 -2.1177
  121OSM   H13G12875   5.811   3.356   9.643  0.4065 -1.1361 -1.2417
  121OSM   C14F12876   5.692   3.373   9.454 -0.4696 -0.4477 -0.4236
  121OSM   H14F12877   5.790   3.387   9.404 -1.1050 -0.3072 -1.6469
  121OSM   H14G12878   5.671   3.482   9.466  0.1248 -0.3987  0.2707
  121OSM   C15F12879   5.603   3.300   9.353 -0.0129 -0.2789  0.0501
  121OSM   H15F12880   5.504   3.278   9.399 -0.0481 -1.3503 -0.5193
  121OSM   H15G12881   5.639   3.195   9.342 -1.1600 -0.4338 -2.8929
  121OSM   C16F12882   5.564   3.374   9.220  0.4103 -0.4325 -0.7080
  121OSM   H16F12883   5.537   3.476   9.253 -0.2334 -0.4386 -1.2026
  121OSM   H16G12884   5.480   3.322   9.169  0.3105 -1.2995  0.2896
  121OSM   C17F12885   5.680   3.369   9.125  0.3780  0.2080  0.1400
  121OSM   H17F12886   5.694   3.262   9.099 -0.7700  0.2091 -0.5713
  121OSM   H17G12887   5.767   3.425   9.165  2.1251 -0.2088 -2.8061
  121OSM   C18F12888   5.652   3.442   8.991  0.0784 -0.2379  0.7256
  121OSM   H18F12889   5.745   3.441   8.930 -0.6219  2.1024 -0.4993
  121OSM   H18G12890   5.624   3.549   8.995  2.1033  0.3469  0.5437
  121OSM   H18H12891   5.573   3.392   8.930 -2.5529 -0.6872  4.1805
  122OSM      N12892   4.943   1.497  11.000 -0.2063  0.4729  0.0849
  122OSM    C1512893   4.815   1.575  10.988 -0.0072  0.2435 -0.0775
  122OSM   H15A12894   4.781   1.573  10.886 -0.5039 -0.2864  0.0885
  122OSM   H15B12895   4.838   1.677  11.017  0.6044  0.1868 -0.3594
  122OSM   H15C12896   4.736   1.534  11.050  0.4262 -2.0782 -0.9549
  122OSM    C1412897   4.979   1.498  11.149 -0.3161  0.1991  0.4741
  122OSM   H14A12898   4.892   1.493  11.213  0.2334 -2.7409  1.1407
  122OSM   H14B12899   5.047   1.581  11.161 -2.8296  2.3944  0.3638
  122OSM   H14C12900   5.041   1.410  11.166 -1.0452 -0.5039 -0.4306
  122OSM    C1312901   4.922   1.345  10.973 -0.0689 -0.2607 -0.0837
  122OSM   H13A12902   4.931   1.324  10.868  2.3055  0.1144  0.0023
  122OSM   H13B12903   4.824   1.320  11.010  0.4635  0.0083  1.5846
  122OSM   H13C12904   4.983   1.282  11.036 -1.0099  2.1689  3.6320
  122OSM    C1212905   5.054   1.562  10.907  0.4179 -0.1158  0.4338
  122OSM   H12A12906   5.148   1.509  10.917 -0.4639 -1.4463  2.3608
  122OSM   H12B12907   5.065   1.662  10.946 -3.6039  0.6135  0.1719
  122OSM    C1112908   5.019   1.589  10.755  0.6437  0.9841  0.1969
  122OSM   H11A12909   4.987   1.486  10.728  1.2529  0.2502  2.1161
  122OSM   H11B12910   5.106   1.603  10.688 -0.1328 -3.1203 -2.0369
  122OSM      P12911   4.935   1.826  10.722  0.2242 -0.4373  0.2914
  122OSM    O1312912   4.814   1.905  10.753  0.1058 -0.0287  0.5383
  122OSM    O1412913   5.050   1.862  10.807  0.0572 -0.5302  0.5075
  122OSM    O1112914   4.971   1.864  10.567  0.2985 -0.0275 -0.1486
  122OSM    O1212915   4.903   1.676  10.731 -0.5576  0.0736  0.1975
  122OSM    C1S12916   4.888   1.787  10.478  0.1066  0.1097  0.2868
  122OSM    H1S12917   4.785   1.826  10.487 -0.3699 -1.5738  2.9685
  122OSM    H1T12918   4.888   1.678  10.496  2.0576  0.2571  1.4797
  122OSM     NF12919   4.852   1.756  10.237 -0.2090  0.2296  0.0722
  122OSM    HNF12920   4.888   1.674  10.192  1.8685  1.0772  0.0735
  122OSM    C2S12921   4.943   1.812  10.332 -0.1407 -0.8027 -0.4404
  122OSM    H2S12922   4.950   1.922  10.328 -1.3879 -0.6765  0.3194
  122OSM    C3S12923   5.091   1.760  10.315  0.2993  0.2354 -0.2779
  122OSM    H3S12924   5.079   1.651  10.327  0.3970  0.2610  0.0521
  122OSM     O312925   5.180   1.802  10.418  0.4802 -0.3231  0.0904
  122OSM    HO312926   5.122   1.857  10.471  0.0682 -1.0914  0.4531
  122OSM    C4S12927   5.148   1.788  10.177 -1.0388  0.5002 -0.6683
  122OSM    H4S12928   5.117   1.716  10.100  1.0335 -0.9278 -0.2494
  122OSM    C5S12929   5.234   1.879  10.139  0.6565 -0.0683  1.1928
  122OSM    H5S12930   5.263   1.964  10.202  0.9230  0.1955  0.7273
  122OSM    C6S12931   5.278   1.887   9.996 -0.1302  0.3794 -0.1383
  122OSM    H6S12932   5.383   1.851  10.005  0.4514  2.1156  0.5283
  122OSM    H6T12933   5.288   1.989   9.952  1.6309 -0.5101 -2.0225
  122OSM    C7S12934   5.219   1.799   9.883 -0.2825 -0.1577  0.8147
  122OSM    H7S12935   5.112   1.828   9.875  0.1655  1.5932  0.8674
  122OSM    H7T12936   5.226   1.695   9.922  0.5195 -0.7915 -0.9040
  122OSM    C8S12937   5.286   1.802   9.750 -0.4915  0.1698  0.5707
  122OSM    H8S12938   5.394   1.776   9.758 -0.8294 -2.4619 -1.7403
  122OSM    H8T12939   5.280   1.907   9.713 -1.1072  0.4992  1.5651
  122OSM    C9S12940   5.233   1.706   9.635  0.0600  0.3017 -0.3645
  122OSM    H9S12941   5.132   1.736   9.599  0.5753  1.8644 -0.5680
  122OSM    H9T12942   5.204   1.610   9.683 -1.4845  1.2032  0.6078
  122OSM   C10S12943   5.327   1.688   9.520  0.0155 -0.1821  0.6360
  122OSM   H10S12944   5.288   1.602   9.462  3.3248 -0.8327 -0.8718
  122OSM   H10T12945   5.434   1.665   9.541  0.4690 -0.7703 -2.0155
  122OSM   C11S12946   5.328   1.805   9.417 -0.0997 -0.8477 -0.0267
  122OSM   H11S12947   5.377   1.897   9.456 -0.3794  0.0549 -1.7127
  122OSM   H11T12948   5.225   1.835   9.390  0.5390  0.5042 -1.0969
  122OSM   C12S12949   5.407   1.773   9.291  0.3533  0.5482 -0.2035
  122OSM   H12S12950   5.369   1.679   9.244  0.2050  1.7504 -2.6411
  122OSM   H12T12951   5.516   1.758   9.307 -0.0462 -1.7221  0.7317
  122OSM   C13S12952   5.386   1.879   9.177 -0.2937 -0.2042  0.3656
  122OSM   H13S12953   5.443   1.972   9.195  0.9929 -0.8800 -0.0275
  122OSM   H13T12954   5.280   1.900   9.154  0.3111  0.8694 -1.6745
  122OSM   C14S12955   5.462   1.823   9.054 -0.1587  0.0902  0.0703
  122OSM   H14S12956   5.412   1.740   9.000  0.9630 -0.5897  0.0489
  122OSM   H14T12957   5.562   1.792   9.090  1.5905  0.6896 -3.8534
  122OSM   C15S12958   5.475   1.933   8.940 -0.2123 -0.2564  0.3070
  122OSM   H15S12959   5.534   2.016   8.984 -2.8383  0.1848  3.3697
  122OSM   H15T12960   5.375   1.970   8.909  0.0647  1.3783  1.2484
  122OSM   C16S12961   5.559   1.884   8.820 -0.1062 -0.1407  0.4387
  122OSM   H16S12962   5.503   1.801   8.773 -0.0999 -0.2826  0.6809
  122OSM   H16T12963   5.651   1.842   8.865  0.2088  1.4602  1.3995
  122OSM   C17S12964   5.603   1.984   8.713  0.1212 -0.2020 -0.1763
  122OSM   H17S12965   5.673   1.934   8.643  0.8052 -1.7765  1.5309
  122OSM   H17T12966   5.666   2.062   8.761  2.0627 -2.2679  0.8035
  122OSM   C18S12967   5.475   2.034   8.645  0.4004 -0.5349  0.3738
  122OSM   H18S12968   5.517   2.101   8.568 -1.7963  0.2812 -0.1687
  122OSM   H18T12969   5.418   2.093   8.720 -0.5031  1.3369 -1.6819
  122OSM   H18U12970   5.410   1.959   8.596  2.9877 -1.1175 -2.4563
  122OSM    C1F12971   4.734   1.804  10.205  1.0481 -0.5256 -0.0978
  122OSM     OF12972   4.694   1.906  10.262  0.4232 -0.3830 -0.2477
  122OSM    C2F12973   4.639   1.719  10.118  0.6619  0.1762 -0.0382
  122OSM    H2F12974   4.531   1.723  10.143  0.8818 -2.6706  1.7808
  122OSM    H2G12975   4.675   1.614  10.119 -0.2631 -0.1463  1.4136
  122OSM    C3F12976   4.638   1.780   9.974  0.3345  0.0965  0.7072
  122OSM    H3F12977   4.737   1.769   9.923 -0.6839  1.3421 -1.6943
  122OSM    H3G12978   4.614   1.888   9.968  1.7199  0.4156  0.5179
  122OSM    C4F12979   4.535   1.716   9.873 -0.8046  0.2139  0.1756
  122OSM    H4F12980   4.432   1.715   9.916 -1.7653  1.6675 -1.8914
  122OSM    H4G12981   4.561   1.610   9.856  0.7271  0.7276 -0.9714
  122OSM    C5F12982   4.548   1.773   9.725 -0.4705  0.3319  0.3940
  122OSM    H5F12983   4.492   1.869   9.715 -1.8702 -0.6574 -2.5192
  122OSM    H5G12984   4.491   1.715   9.649  1.1383  2.6807 -2.8522
  122OSM    C6F12985   4.690   1.769   9.674  0.1609  0.3767 -0.0468
  122OSM    H6F12986   4.722   1.664   9.694  0.0315 -0.0858 -1.9998
  122OSM    H6G12987   4.755   1.829   9.740  0.6053 -2.9592  2.8314
  122OSM    C7F12988   4.717   1.825   9.528 -0.2267 -0.0491  0.4587
  122OSM    H7F12989   4.665   1.923   9.517  0.1255  0.1540  0.5849
  122OSM    H7G12990   4.670   1.757   9.453 -0.6735 -0.2428  0.9092
  122OSM    C8F12991   4.866   1.828   9.516  0.7125 -0.7677  0.3302
  122OSM    H8F12992   4.901   1.726   9.491  1.2510 -0.7969  1.1595
  122OSM    H8G12993   4.905   1.859   9.615 -1.1682 -2.9604  1.8375
  122OSM    C9F12994   4.903   1.929   9.409 -0.1646  0.0519 -0.3619
  122OSM    H9F12995   4.933   2.031   9.439  3.3821 -0.3079 -2.2803
  122OSM   C10F12996   4.913   1.900   9.278 -0.3189 -0.1171  0.1559
  122OSM   H10F12997   4.954   1.989   9.226  0.1007 -0.7812 -0.6727
  122OSM   C11F12998   4.902   1.767   9.210  0.0730 -0.4526 -0.5486
  122OSM   H11F12999   4.837   1.770   9.120 -1.2271 -1.1718  0.3272
  122OSM   H11G13000   4.847   1.711   9.289  0.7574  1.7683  1.6208
  122OSM   C12F13001   5.026   1.685   9.162 -0.4239  0.1244  0.0490
  122OSM   H12F13002   4.987   1.583   9.142 -0.8441  0.0307  1.2968
  122OSM   H12G13003   5.108   1.687   9.236  0.8616 -1.1143 -1.2834
  122OSM   C13F13004   5.091   1.738   9.033 -0.3860 -0.6364  0.4143
  122OSM   H13F13005   5.189   1.686   9.030  0.0063  0.1168 -0.2964
  122OSM   H13G13006   5.112   1.846   9.046 -2.0144 -0.2244 -0.1365
  122OSM   C14F13007   5.014   1.717   8.910  0.0244  0.2331 -0.5415
  122OSM   H14F13008   4.924   1.782   8.915 -0.3250 -0.3167  0.5368
  122OSM   H14G13009   4.971   1.616   8.920  2.3738 -0.7448  0.3538
  122OSM   C15F13010   5.093   1.725   8.778  0.2811  0.4161 -0.0023
  122OSM   H15F13011   5.197   1.690   8.795  0.0715 -0.6646 -0.8406
  122OSM   H15G13012   5.099   1.832   8.750 -1.9799  0.9666  1.4235
  122OSM   C16F13013   5.024   1.649   8.660  0.0138 -0.9198 -0.0740
  122OSM   H16F13014   4.918   1.683   8.653  0.2921 -0.0495 -0.2112
  122OSM   H16G13015   5.025   1.541   8.686 -1.3218 -0.5334  1.8719
  122OSM   C17F13016   5.098   1.672   8.528  0.0339  0.4924  0.0050
  122OSM   H17F13017   5.058   1.597   8.457 -0.2228 -0.0197  0.6877
  122OSM   H17G13018   5.208   1.658   8.533  0.1095  0.9241 -0.3236
  122OSM   C18F13019   5.087   1.813   8.465  0.4637  0.3564  0.0460
  122OSM   H18F13020   4.984   1.829   8.427 -0.6844 -0.3257  2.6753
  122OSM   H18G13021   5.154   1.820   8.376 -2.0239  1.1536 -1.8802
  122OSM   H18H13022   5.124   1.886   8.540 -0.3006 -0.5105  1.2840
  123OSM      N13023   4.702   6.410   5.976 -0.1436  0.1741  0.9959
  123OSM    C1513024   4.717   6.545   5.916  0.2315 -0.3083 -0.0036
  123OSM   H15A13025   4.753   6.541   5.814 -2.9178  2.0924 -1.3992
  123OSM   H15B13026   4.777   6.605   5.982  0.1403 -0.9336  0.6581
  123OSM   H15C13027   4.615   6.582   5.917 -0.2752 -1.5790 -1.1520
  123OSM    C1413028   4.603   6.326   5.902 -0.0288  0.0153 -0.0363
  123OSM   H14A13029   4.639   6.306   5.802 -0.1154  1.2170 -0.3224
  123OSM   H14B13030   4.514   6.381   5.875 -0.1526  1.3006  2.6750
  123OSM   H14C13031   4.578   6.234   5.951  1.2285 -0.1213  0.3938
  123OSM    C1313032   4.833   6.351   5.982  0.1854 -0.3653 -0.0058
  123OSM   H13A13033   4.904   6.423   6.020 -0.0320 -0.1519  0.0027
  123OSM   H13B13034   4.880   6.326   5.888 -0.3581 -2.6758  0.2748
  123OSM   H13C13035   4.840   6.257   6.034  1.2512  0.3089  1.1325
  123OSM    C1213036   4.645   6.429   6.120  0.2651  0.4179 -0.0976
  123OSM   H12A13037   4.659   6.330   6.161  2.1273 -0.1881 -1.9626
  123OSM   H12B13038   4.538   6.437   6.114 -0.2579 -1.3067  3.7472
  123OSM    C1113039   4.708   6.544   6.206  0.6098 -0.2443 -0.2060
  123OSM   H11A13040   4.818   6.532   6.198  1.2803  3.9541  0.5506
  123OSM   H11B13041   4.684   6.519   6.312  2.1087 -1.5630 -0.1343
  123OSM      P13042   4.536   6.738   6.213  0.0717 -0.0205  0.4573
  123OSM    O1313043   4.522   6.880   6.167 -0.5742 -0.2709  0.4950
  123OSM    O1413044   4.421   6.653   6.178  0.4174 -0.0082 -1.0935
  123OSM    O1113045   4.558   6.739   6.362 -0.5827  0.1021 -0.6006
  123OSM    O1213046   4.666   6.676   6.158 -0.1676 -0.3085  0.3403
  123OSM    C1S13047   4.661   6.829   6.422  0.4001  0.7471  0.7945
  123OSM    H1S13048   4.669   6.916   6.354 -0.1825  0.4486  0.3287
  123OSM    H1T13049   4.757   6.777   6.440 -0.2904 -0.3772  1.3292
  123OSM     NF13050   4.735   6.974   6.597  1.0359 -0.3912  0.3719
  123OSM    HNF13051   4.810   6.942   6.654  1.0457 -1.5166 -0.2579
  123OSM    C2S13052   4.624   6.889   6.559  0.0903 -0.1722 -0.1065
  123OSM    H2S13053   4.532   6.950   6.550  1.6296  2.3045 -0.0795
  123OSM    C3S13054   4.594   6.777   6.662  0.6149 -1.1902  0.3519
  123OSM    H3S13055   4.685   6.714   6.669  1.5618  0.2617  1.7184
  123OSM     O313056   4.483   6.705   6.625 -0.2820 -0.0333  0.3795
  123OSM    HO313057   4.487   6.702   6.529 -0.9269  1.7916  0.2640
  123OSM    C4S13058   4.567   6.834   6.800 -0.2864  0.2668  0.2733
  123OSM    H4S13059   4.477   6.897   6.809 -1.0966 -0.5319 -1.6598
  123OSM    C5S13060   4.643   6.812   6.910 -0.3770  0.1334  0.0590
  123OSM    H5S13061   4.738   6.757   6.896 -0.2852  0.2793  0.1030
  123OSM    C6S13062   4.602   6.888   7.035 -0.6476  0.0908  0.5358
  123OSM    H6S13063   4.529   6.970   7.018 -1.4391 -0.9325 -1.2029
  123OSM    H6T13064   4.697   6.925   7.080 -1.4029  1.1582  1.2999
  123OSM    C7S13065   4.544   6.783   7.130 -0.0612  0.4403 -0.6887
  123OSM    H7S13066   4.582   6.679   7.127 -1.0587 -0.1315  2.6045
  123OSM    H7T13067   4.437   6.775   7.100  0.0630  0.2437 -1.0924
  123OSM    C8S13068   4.526   6.825   7.280  0.1202  0.2378 -0.3453
  123OSM    H8S13069   4.467   6.741   7.324 -0.4851  0.0485 -1.4612
  123OSM    H8T13070   4.456   6.911   7.289  1.2286  1.3003 -1.5200
  123OSM    C9S13071   4.648   6.869   7.362 -0.2778 -0.1488  0.4348
  123OSM    H9S13072   4.690   6.957   7.310 -1.0712 -0.4947 -0.8529
  123OSM    H9T13073   4.731   6.795   7.371  2.0234  2.4229  1.6550
  123OSM   C10S13074   4.604   6.903   7.507 -0.4992 -0.4814  0.7048
  123OSM   H10S13075   4.593   6.810   7.567  0.9668  0.2403  2.1802
  123OSM   H10T13076   4.512   6.965   7.502  0.5166  1.1474  1.3856
  123OSM   C11S13077   4.708   6.991   7.583  0.0633 -0.1371  0.3109
  123OSM   H11S13078   4.739   7.072   7.514  1.5801  0.3565  1.5172
  123OSM   H11T13079   4.793   6.927   7.614  1.2163  0.3484 -1.6930
  123OSM   C12S13080   4.638   7.050   7.706 -0.0308 -0.3981 -1.1530
  123OSM   H12S13081   4.609   6.968   7.775  0.7108  1.2934  1.3422
  123OSM   H12T13082   4.545   7.104   7.676 -0.5593 -0.2384  0.6570
  123OSM   C13S13083   4.722   7.148   7.788  0.3975  0.3218  0.2957
  123OSM   H13S13084   4.750   7.222   7.710 -0.2037  1.0840  0.7897
  123OSM   H13T13085   4.815   7.093   7.816  0.4462  0.4254  0.3355
  123OSM   C14S13086   4.642   7.214   7.901  0.1664 -0.1231  0.4162
  123OSM   H14S13087   4.608   7.134   7.970  0.9233  0.0914  1.0558
  123OSM   H14T13088   4.548   7.256   7.861 -1.1636 -2.6297  0.6947
  123OSM   C15S13089   4.720   7.313   7.987  0.4039  0.5354 -0.7199
  123OSM   H15S13090   4.774   7.389   7.927  0.4657  1.3749  0.3870
  123OSM   H15T13091   4.797   7.254   8.041  0.2462  0.9817  0.0004
  123OSM   C16S13092   4.629   7.404   8.078 -0.6974 -0.4508 -0.5447
  123OSM   H16S13093   4.551   7.351   8.137 -0.5629 -1.0655 -0.9085
  123OSM   H16T13094   4.573   7.473   8.010 -0.7872  0.3772  0.3394
  123OSM   C17S13095   4.706   7.501   8.160 -0.2286  0.3099  0.0646
  123OSM   H17S13096   4.628   7.566   8.206 -0.9388  0.0898 -0.8084
  123OSM   H17T13097   4.765   7.572   8.099 -0.0104 -0.7355 -0.9734
  123OSM   C18S13098   4.803   7.442   8.263 -0.5884  1.1141 -0.0065
  123OSM   H18S13099   4.768   7.369   8.339  1.2108  0.3087  0.1072
  123OSM   H18T13100   4.851   7.527   8.317 -0.9763  0.8426  0.7717
  123OSM   H18U13101   4.892   7.400   8.211 -0.3905  1.0777  0.3579
  123OSM    C1F13102   4.742   7.100   6.557  0.5387 -0.5477  0.2676
  123OSM     OF13103   4.645   7.149   6.491 -0.0521 -0.8532 -0.3815
  123OSM    C2F13104   4.859   7.177   6.600  0.0352  0.2420 -0.0090
  123OSM    H2F13105   4.860   7.258   6.524  0.5995 -0.9517 -1.3146
  123OSM    H2G13106   4.959   7.132   6.586  1.3151  2.1986  2.1690
  123OSM    C3F13107   4.847   7.241   6.743  0.4328 -0.1492  0.5428
  123OSM    H3F13108   4.745   7.280   6.759  0.6064  1.3921 -1.6900
  123OSM    H3G13109   4.916   7.328   6.740 -0.6475  0.6972 -0.9113
  123OSM    C4F13110   4.891   7.161   6.860  0.2207  0.3492  0.5738
  123OSM    H4F13111   4.966   7.087   6.824 -0.0417  0.5932 -0.5147
  123OSM    H4G13112   4.806   7.104   6.904 -0.4109  0.6202 -0.2706
  123OSM    C5F13113   4.952   7.242   6.973 -0.4362 -0.3757 -0.5531
  123OSM    H5F13114   4.909   7.344   6.985 -0.5050 -0.3258 -1.2130
  123OSM    H5G13115   5.060   7.262   6.959 -0.5931 -0.0010 -1.2446
  123OSM    C6F13116   4.931   7.177   7.118 -0.2458 -0.3112  0.4002
  123OSM    H6F13117   4.994   7.086   7.122  0.1741  0.0014  1.0948
  123OSM    H6G13118   4.825   7.147   7.130 -1.2392  2.6109 -0.1071
  123OSM    C7F13119   4.985   7.261   7.235  0.6798  0.1918 -0.1813
  123OSM    H7F13120   4.930   7.358   7.241 -0.0604 -0.2968  1.9970
  123OSM    H7G13121   5.095   7.278   7.230  1.1464 -2.2481  0.6573
  123OSM    C8F13122   4.948   7.191   7.372 -1.0029 -0.5283  0.3210
  123OSM    H8F13123   4.846   7.148   7.361 -0.2576 -2.2512 -0.2075
  123OSM    H8G13124   4.944   7.267   7.453 -1.0767  1.2199 -1.2549
  123OSM    C9F13125   5.047   7.075   7.396 -0.2430 -0.8736 -0.3433
  123OSM    H9F13126   5.088   7.037   7.302 -2.7143  0.0147 -1.8870
  123OSM   C10F13127   5.097   7.043   7.517  0.2139  0.1594 -0.0887
  123OSM   H10F13128   5.158   6.952   7.518 -1.3089 -0.9278 -0.9278
  123OSM   C11F13129   5.067   7.102   7.650  0.0379  0.2620 -0.2186
  123OSM   H11F13130   5.036   7.031   7.729 -3.3244  2.0854  0.2899
  123OSM   H11G13131   4.968   7.152   7.640  0.2570  0.9199  0.7938
  123OSM   C12F13132   5.167   7.202   7.706 -0.2018 -0.7540  0.2163
  123OSM   H12F13133   5.219   7.259   7.626 -0.1542 -1.9699 -0.6317
  123OSM   H12G13134   5.246   7.140   7.753 -1.1243 -0.9455  1.5840
  123OSM   C13F13135   5.110   7.293   7.805  0.3587  0.3056 -0.1096
  123OSM   H13F13136   5.050   7.241   7.882  0.2379  2.4954  1.3577
  123OSM   H13G13137   5.036   7.364   7.761 -0.3937 -0.6995 -0.5008
  123OSM   C14F13138   5.222   7.373   7.887  0.7117 -0.1793 -0.3200
  123OSM   H14F13139   5.295   7.430   7.826 -0.1289  1.1306 -0.1492
  123OSM   H14G13140   5.254   7.298   7.962 -0.0941 -1.8982 -1.6208
  123OSM   C15F13141   5.147   7.482   7.974  0.3536  0.2278  0.3177
  123OSM   H15F13142   5.069   7.432   8.035 -0.7178  0.0134 -1.1977
  123OSM   H15G13143   5.094   7.547   7.901 -1.6134 -1.7463 -0.0893
  123OSM   C16F13144   5.225   7.572   8.069  0.2858 -0.1191  0.6007
  123OSM   H16F13145   5.310   7.619   8.015 -1.5488  1.0998 -1.3591
  123OSM   H16G13146   5.264   7.511   8.154 -0.9537 -0.1589  1.1548
  123OSM   C17F13147   5.141   7.686   8.132  0.5439  0.2927  0.4775
  123OSM   H17F13148   5.191   7.717   8.226 -4.0458  1.9671  2.6929
  123OSM   H17G13149   5.045   7.643   8.167  0.5476  0.6598  0.9591
  123OSM   C18F13150   5.098   7.797   8.038 -0.0421 -0.7569 -0.1820
  123OSM   H18F13151   5.039   7.873   8.094  0.2013 -0.0417 -0.8721
  123OSM   H18G13152   5.017   7.752   7.978 -0.7155  1.1198 -0.7552
  123OSM   H18H13153   5.177   7.841   7.973 -1.9925  2.2448 -0.7100
  124OSM      N13154   6.507   4.489   6.005  0.6661  0.6500  0.4886
  124OSM    C1513155   6.577   4.371   5.951 -0.7375  1.0196  0.8164
  124OSM   H15A13156   6.527   4.282   5.987  0.4309  0.1721  0.3770
  124OSM   H15B13157   6.680   4.356   5.979 -0.2610 -1.1115 -1.6517
  124OSM   H15C13158   6.581   4.379   5.843  1.6079  0.4581  0.8145
  124OSM    C1413159   6.586   4.613   5.967 -0.6580 -0.8707  0.3043
  124OSM   H14A13160   6.690   4.599   5.993 -0.8110 -0.0766  1.4093
  124OSM   H14B13161   6.541   4.706   5.999 -1.4308 -0.9224 -0.5650
  124OSM   H14C13162   6.588   4.612   5.859  1.3822  0.4800  0.2766
  124OSM    C1313163   6.371   4.502   5.932 -0.1427 -0.3373  0.8778
  124OSM   H13A13164   6.386   4.491   5.825  1.3654  0.2943  0.9943
  124OSM   H13B13165   6.340   4.605   5.946 -0.3262 -0.1976 -0.3946
  124OSM   H13C13166   6.301   4.427   5.965 -1.2842  0.5697  0.6056
  124OSM    C1213167   6.494   4.472   6.152 -0.0960 -0.7213 -0.4522
  124OSM   H12A13168   6.433   4.386   6.174 -2.8448  0.9938 -0.8613
  124OSM   H12B13169   6.428   4.549   6.190 -2.8222 -3.1972  0.1519
  124OSM    C1113170   6.628   4.466   6.230  0.1057 -0.0095  0.5132
  124OSM   H11A13171   6.604   4.477   6.338 -2.1212  3.1766 -0.1593
  124OSM   H11B13172   6.691   4.554   6.204  1.5260 -1.0102  0.3889
  124OSM      P13173   6.645   4.194   6.246 -0.2021  0.3536 -0.5305
  124OSM    O1313174   6.516   4.157   6.179 -0.4684  0.0614 -0.5700
  124OSM    O1413175   6.764   4.106   6.228 -0.2023 -0.1688  0.8319
  124OSM    O1113176   6.624   4.200   6.399 -0.1087 -0.0326  0.1620
  124OSM    O1213177   6.704   4.344   6.206  0.5824  0.1399  0.2985
  124OSM    C1S13178   6.706   4.159   6.511 -0.4889 -0.0963 -0.6813
  124OSM    H1S13179   6.814   4.155   6.489 -0.3192 -1.1723  0.2697
  124OSM    H1T13180   6.678   4.054   6.535  0.8694 -0.0621  1.2567
  124OSM     NF13181   6.781   4.202   6.723  0.3090 -0.6071  0.2471
  124OSM    HNF13182   6.761   4.130   6.789  1.8717 -0.7216  0.6368
  124OSM    C2S13183   6.678   4.239   6.634 -0.6680 -0.5182  0.2362
  124OSM    H2S13184   6.689   4.344   6.601 -1.9541 -0.6551 -0.6988
  124OSM    C3S13185   6.542   4.216   6.693  0.1678  0.2615  0.1863
  124OSM    H3S13186   6.533   4.109   6.720 -0.1128  0.5586  1.2928
  124OSM     O313187   6.438   4.231   6.595 -0.5675  0.3448 -0.1447
  124OSM    HO313188   6.486   4.215   6.514 -0.6786  1.1489 -0.3748
  124OSM    C4S13189   6.521   4.293   6.822 -0.3739  0.2186 -0.3924
  124OSM    H4S13190   6.571   4.249   6.910 -1.2864  1.8733  1.0040
  124OSM    C5S13191   6.437   4.398   6.838 -0.2933  0.2794  0.7136
  124OSM    H5S13192   6.383   4.439   6.751 -0.6726 -3.8889 -1.2999
  124OSM    C6S13193   6.417   4.476   6.964 -0.2088 -0.5097  0.1724
  124OSM    H6S13194   6.311   4.509   6.955 -1.0933 -2.8661  1.0468
  124OSM    H6T13195   6.480   4.568   6.961  0.4080 -0.8995 -3.7088
  124OSM    C7S13196   6.426   4.405   7.100 -0.0020 -0.8012  0.1209
  124OSM    H7S13197   6.526   4.357   7.112  0.7995  0.9281  0.6890
  124OSM    H7T13198   6.356   4.319   7.105 -0.0533 -0.7416  0.4068
  124OSM    C8S13199   6.408   4.487   7.220 -0.1887  0.6787  0.1549
  124OSM    H8S13200   6.323   4.555   7.196 -0.5783  0.4630  0.9002
  124OSM    H8T13201   6.490   4.558   7.245  0.6711 -0.4273  0.5832
  124OSM    C9S13202   6.374   4.408   7.346  0.2846  0.5736 -0.4766
  124OSM    H9S13203   6.462   4.341   7.359  2.0624  1.9341 -4.0840
  124OSM    H9T13204   6.279   4.359   7.316  0.8955 -0.1529 -1.2845
  124OSM   C10S13205   6.350   4.507   7.467  0.0806 -0.0979  0.6014
  124OSM   H10S13206   6.262   4.570   7.443 -1.7436 -1.9874  2.0429
  124OSM   H10T13207   6.427   4.586   7.482 -0.9450  0.8333  1.0087
  124OSM   C11S13208   6.327   4.433   7.594 -0.7141  0.4079 -0.7182
  124OSM   H11S13209   6.305   4.508   7.673  2.1727  1.7697 -1.0526
  124OSM   H11T13210   6.430   4.395   7.615 -1.3760 -0.8958  0.3224
  124OSM   C12S13211   6.231   4.317   7.600 -0.7954 -0.1762 -0.3297
  124OSM   H12S13212   6.246   4.228   7.535 -0.2775 -1.1272  1.0496
  124OSM   H12T13213   6.136   4.362   7.564 -0.2976  2.9769  1.8549
  124OSM   C13S13214   6.194   4.268   7.745 -0.6034 -0.5270  0.1560
  124OSM   H13S13215   6.142   4.349   7.800 -0.3772  0.0871 -0.5258
  124OSM   H13T13216   6.287   4.245   7.801  1.6191  0.2468 -2.9839
  124OSM   C14S13217   6.117   4.139   7.752  0.1979  0.1841  0.0834
  124OSM   H14S13218   6.186   4.053   7.742 -2.3121 -1.7319 -3.1108
  124OSM   H14T13219   6.051   4.126   7.663  0.3333 -0.3854  0.0679
  124OSM   C15S13220   6.025   4.116   7.877  0.3366 -0.0593  0.5646
  124OSM   H15S13221   5.966   4.025   7.855 -1.9447  1.8645 -2.0490
  124OSM   H15T13222   5.954   4.201   7.881  0.4101  0.0162  0.3071
  124OSM   C16S13223   6.105   4.092   8.008 -0.3413  0.1288  0.6075
  124OSM   H16S13224   6.142   4.191   8.044 -0.4506  0.2441  0.4102
  124OSM   H16T13225   6.189   4.021   7.991 -1.2720 -0.8413  0.0136
  124OSM   C17S13226   6.007   4.029   8.109 -0.3919  0.4621  0.2093
  124OSM   H17S13227   6.036   3.922   8.114 -0.8706  0.2062 -1.6596
  124OSM   H17T13228   5.905   4.046   8.068 -0.4454  1.8556  0.8345
  124OSM   C18S13229   6.006   4.083   8.247  0.3370 -0.6610 -0.2374
  124OSM   H18S13230   5.955   4.014   8.317  1.9585 -0.1721  1.4905
  124OSM   H18T13231   5.953   4.181   8.243 -1.0380 -1.4260 -2.3181
  124OSM   H18U13232   6.107   4.112   8.283 -0.3513 -0.6788  1.8112
  124OSM    C1F13233   6.905   4.246   6.705  0.0737  0.2738 -0.6198
  124OSM     OF13234   6.929   4.330   6.624 -0.1536 -0.8626  0.6859
  124OSM    C2F13235   7.010   4.178   6.788  0.5912  0.5110 -0.5149
  124OSM    H2F13236   7.090   4.143   6.719  0.5423  2.7462 -1.8113
  124OSM    H2G13237   6.975   4.088   6.843  0.8894 -0.1252 -1.3533
  124OSM    C3F13238   7.071   4.265   6.903  0.3840 -1.1836  0.2890
  124OSM    H3F13239   6.991   4.322   6.956  0.8660 -1.2556  1.1222
  124OSM    H3G13240   7.135   4.342   6.854 -2.0780  0.0054 -1.2607
  124OSM    C4F13241   7.148   4.192   7.009 -0.1610  0.2126  0.3263
  124OSM    H4F13242   7.208   4.109   6.967 -2.4296 -0.5370 -1.6761
  124OSM    H4G13243   7.094   4.145   7.094 -1.2496 -1.3102 -1.1535
  124OSM    C5F13244   7.258   4.286   7.076 -0.9960  0.6515 -0.1218
  124OSM    H5F13245   7.318   4.342   7.000  1.3806  1.2654  2.0613
  124OSM    H5G13246   7.319   4.222   7.143 -0.0196  0.3438 -1.2522
  124OSM    C6F13247   7.193   4.395   7.160  0.2655 -0.7132 -1.1870
  124OSM    H6F13248   7.128   4.449   7.089 -0.8099 -1.5479 -0.8642
  124OSM    H6G13249   7.271   4.465   7.197 -0.7327  0.4722 -1.2784
  124OSM    C7F13250   7.111   4.342   7.279  0.2811  0.4337 -0.9155
  124OSM    H7F13251   7.177   4.278   7.341  0.2126  0.7742 -0.4860
  124OSM    H7G13252   7.038   4.271   7.236  1.5530 -1.0041 -0.7918
  124OSM    C8F13253   7.047   4.450   7.374  0.2710 -0.1127 -0.5382
  124OSM    H8F13254   7.017   4.379   7.454 -0.3451  1.5651  0.7595
  124OSM    H8G13255   6.950   4.480   7.327 -0.7886 -2.3564  0.0526
  124OSM    C9F13256   7.113   4.577   7.411 -1.0061 -0.4377 -0.4207
  124OSM    H9F13257   7.127   4.645   7.325 -0.0608 -1.8843 -1.4676
  124OSM   C10F13258   7.139   4.619   7.538 -0.0288 -0.1010  0.1113
  124OSM   H10F13259   7.178   4.721   7.551 -2.3410  0.6427  1.8069
  124OSM   C11F13260   7.114   4.544   7.668  0.1204 -0.4557  0.9500
  124OSM   H11F13261   7.210   4.496   7.696 -0.2938 -0.6934  2.0020
  124OSM   H11G13262   7.032   4.469   7.661  2.2989 -2.9107  0.5990
  124OSM   C12F13263   7.080   4.650   7.773 -0.6743  0.2283  0.7635
  124OSM   H12F13264   6.982   4.699   7.755 -0.6177  0.3413  0.7585
  124OSM   H12G13265   7.151   4.736   7.774 -2.2611  1.7874 -2.8638
  124OSM   C13F13266   7.072   4.597   7.921  0.4916 -0.5128  0.0520
  124OSM   H13F13267   7.115   4.681   7.979 -2.0725  2.1432 -1.5963
  124OSM   H13G13268   7.139   4.508   7.922  0.4625 -0.5336  0.2769
  124OSM   C14F13269   6.933   4.570   7.981 -0.1708 -0.0789  0.2357
  124OSM   H14F13270   6.909   4.472   7.934  3.1730  0.1378 -2.2995
  124OSM   H14G13271   6.857   4.649   7.963 -1.3047 -1.2010 -0.0955
  124OSM   C15F13272   6.936   4.553   8.137  0.5388  0.0513 -0.1317
  124OSM   H15F13273   6.985   4.641   8.184 -1.7137  3.3072 -3.3421
  124OSM   H15G13274   6.999   4.465   8.160 -0.8383 -0.5344  1.6270
  124OSM   C16F13275   6.796   4.542   8.198  0.6350  0.0704 -0.2533
  124OSM   H16F13276   6.741   4.458   8.151  2.1137  0.4126 -2.7296
  124OSM   H16G13277   6.741   4.638   8.186 -0.2696 -0.1865  1.4207
  124OSM   C17F13278   6.794   4.520   8.353  0.0103  0.1289 -0.7693
  124OSM   H17F13279   6.828   4.606   8.415  0.0707 -1.4367  1.4967
  124OSM   H17G13280   6.874   4.444   8.360  0.8921  1.1361  0.6243
  124OSM   C18F13281   6.661   4.464   8.417 -0.1165  0.2350 -0.6731
  124OSM   H18F13282   6.580   4.537   8.441 -0.2934 -0.3180  0.4736
  124OSM   H18G13283   6.680   4.404   8.509  2.5737  0.0043 -1.3055
  124OSM   H18H13284   6.623   4.384   8.350  0.5993 -1.1786  0.5650
  125OSM      N13285   0.626   0.394   6.115 -0.0305  0.2158  0.5326
  125OSM    C1513286   0.648   0.519   6.203  0.0452  0.3604 -0.2265
  125OSM   H15A13287   0.743   0.512   6.253  0.3204 -1.6946 -0.9528
  125OSM   H15B13288   0.578   0.527   6.285  0.9244 -0.1412  0.5912
  125OSM   H15C13289   0.636   0.609   6.145  0.6820  0.6124  0.0187
  125OSM    C1413290   0.488   0.406   6.054  0.1667 -0.4048 -0.5253
  125OSM   H14A13291   0.410   0.416   6.128  0.5382 -1.3837  0.0161
  125OSM   H14B13292   0.459   0.324   5.989  0.9480  0.3594 -1.8855
  125OSM   H14C13293   0.484   0.500   6.000 -0.0223  0.4907  0.9893
  125OSM    C1313294   0.735   0.404   6.008  0.4235  0.4983  0.4287
  125OSM   H13A13295   0.707   0.471   5.928  1.2450 -1.3046 -1.4218
  125OSM   H13B13296   0.776   0.311   5.973  1.8656  1.3080 -0.1402
  125OSM   H13C13297   0.828   0.447   6.041  1.4389  0.2225 -1.9380
  125OSM    C1213298   0.638   0.268   6.199 -0.0075  0.6308 -1.0727
  125OSM   H12A13299   0.738   0.267   6.241 -0.4585  0.0718  0.0236
  125OSM   H12B13300   0.626   0.181   6.136  3.1581 -1.3412  0.7661
  125OSM    C1113301   0.546   0.246   6.326  0.3301 -0.0532 -0.2117
  125OSM   H11A13302   0.545   0.330   6.400  0.5804 -0.6826  0.5220
  125OSM   H11B13303   0.595   0.165   6.384 -1.0094  0.2289  1.4330
  125OSM      P13304   0.355   0.080   6.259  0.2540  0.1076 -0.1976
  125OSM    O1313305   0.269   0.097   6.137  0.3398 -0.1715 -0.0213
  125OSM    O1413306   0.461  -0.019   6.247 -0.3228 -0.0544  0.4043
  125OSM    O1113307   0.264   0.051   6.387  0.3359  0.5222  0.4252
  125OSM    O1213308   0.406   0.218   6.287 -0.1074 -0.1476  0.1096
  125OSM    C1S13309   0.335   0.014   6.506 -0.2752  0.0209 -0.1608
  125OSM    H1S13310   0.413   0.090   6.529 -1.2866  1.4613 -1.3807
  125OSM    H1T13311   0.378  -0.089   6.504  0.4005  0.3093 -0.5063
  125OSM     NF13312   0.335  -0.008   6.746 -0.5346  0.1965 -0.5626
  125OSM    HNF13313   0.329  -0.096   6.792  0.1164 -0.2231 -1.2602
  125OSM    C2S13314   0.246   0.020   6.635 -0.3954 -0.4245 -0.1424
  125OSM    H2S13315   0.220   0.126   6.656 -1.8913 -1.0460  1.3257
  125OSM    C3S13316   0.122  -0.058   6.625  0.1061 -0.4228 -1.3975
  125OSM    H3S13317   0.140  -0.167   6.610  0.9525 -0.4243 -0.4833
  125OSM     O313318   0.042  -0.044   6.514  0.2271 -0.2162 -0.4202
  125OSM    HO313319   0.092   0.013   6.455 -0.9752  0.9993 -0.3377
  125OSM    C4S13320   0.030  -0.038   6.741  0.4755 -0.4936  0.0407
  125OSM    H4S13321  -0.020   0.060   6.741  0.3838 -0.5157 -1.6427
  125OSM    C5S13322   0.005  -0.124   6.843  0.3061 -0.3738 -0.7631
  125OSM    H5S13323   0.037  -0.229   6.841  0.5440 -0.2976 -1.7392
  125OSM    C6S13324  -0.089  -0.091   6.956 -0.2668  0.1991  0.2104
  125OSM    H6S13325  -0.181  -0.152   6.944  0.3619 -0.9755  1.1221
  125OSM    H6T13326  -0.123   0.013   6.935 -0.6725 -0.5913 -3.6559
  125OSM    C7S13327  -0.024  -0.107   7.095  0.5096  0.8847  0.4722
  125OSM    H7S13328   0.037  -0.199   7.105 -0.2926  0.4901  2.1538
  125OSM    H7T13329  -0.110  -0.116   7.164 -0.2701  0.5249 -0.5328
  125OSM    C8S13330   0.065   0.009   7.131 -0.4163 -0.3152  0.0451
  125OSM    H8S13331  -0.001   0.099   7.122  0.5749  0.4368  0.1147
  125OSM    H8T13332   0.148   0.017   7.059 -1.2333 -0.7005 -0.9641
  125OSM    C9S13333   0.124  -0.008   7.274 -0.8211  0.0089  0.1365
  125OSM    H9S13334   0.186  -0.100   7.273 -0.5199  0.1101  2.5082
  125OSM    H9T13335   0.036  -0.024   7.340  0.6093 -0.7411  1.9457
  125OSM   C10S13336   0.207   0.107   7.332  0.6135 -0.1512  0.0983
  125OSM   H10S13337   0.140   0.195   7.342  2.8016  1.3300  3.7756
  125OSM   H10T13338   0.278   0.139   7.254  0.7277  0.7915  0.5708
  125OSM   C11S13339   0.264   0.085   7.478  0.5333 -0.4606 -0.2671
  125OSM   H11S13340   0.307   0.184   7.504 -3.8395  1.3922  0.7921
  125OSM   H11T13341   0.341   0.005   7.473  0.4527 -0.9358  3.4266
  125OSM   C12S13342   0.146   0.042   7.565 -0.2182 -0.4101 -0.1958
  125OSM   H12S13343   0.137  -0.066   7.539  1.6280 -0.7933  0.5917
  125OSM   H12T13344   0.052   0.093   7.535  0.8793  1.1305 -1.1612
  125OSM   C13S13345   0.178   0.043   7.715  0.5880 -0.2467 -0.0229
  125OSM   H13S13346   0.162   0.140   7.765  1.3501 -0.4478  0.6289
  125OSM   H13T13347   0.284   0.013   7.730 -0.0314 -2.8999 -0.3989
  125OSM   C14S13348   0.097  -0.057   7.799  0.2450  0.9724  0.4243
  125OSM   H14S13349   0.090  -0.155   7.747 -1.0491  2.1338 -1.7772
  125OSM   H14T13350  -0.008  -0.020   7.803  0.5718  1.9546  0.2865
  125OSM   C15S13351   0.143  -0.083   7.944 -0.2091  0.0353 -0.5011
  125OSM   H15S13352   0.251  -0.088   7.919  0.2387 -1.2547  1.4697
  125OSM   H15T13353   0.105  -0.176   7.993 -1.0052  0.1224 -0.9496
  125OSM   C16S13354   0.119   0.033   8.040 -0.0020 -0.0283  0.7462
  125OSM   H16S13355   0.009   0.041   8.052  0.2739  2.9725  2.2168
  125OSM   H16T13356   0.155   0.126   7.991 -0.0536  1.0738  2.6952
  125OSM   C17S13357   0.179   0.019   8.179  0.4526  0.1785  0.1498
  125OSM   H17S13358   0.116  -0.052   8.236  0.1670  0.3629  0.0647
  125OSM   H17T13359   0.168   0.116   8.232  0.3661 -0.0298  0.5183
  125OSM   C18S13360   0.326  -0.032   8.181  0.3981 -0.4855 -0.0871
  125OSM   H18S13361   0.365  -0.031   8.285 -0.8929  0.2482  0.4136
  125OSM   H18T13362   0.384   0.027   8.107 -0.7179  0.4976 -0.1946
  125OSM   H18U13363   0.325  -0.141   8.159  1.3216 -0.7834  1.2499
  125OSM    C1F13364   0.424   0.077   6.802 -0.2739 -0.1784 -0.0563
  125OSM     OF13365   0.456   0.184   6.747  0.0106  0.1661  0.1843
  125OSM    C2F13366   0.493   0.028   6.933  0.3741 -0.3202 -0.0023
  125OSM    H2F13367   0.561  -0.054   6.903  0.8749 -0.2470  0.9089
  125OSM    H2G13368   0.410  -0.011   6.996 -0.4632  1.5649  0.1517
  125OSM    C3F13369   0.557   0.154   7.004 -0.2371  0.6977  0.5632
  125OSM    H3F13370   0.487   0.215   7.065  0.7042  0.5462  1.8275
  125OSM    H3G13371   0.615   0.227   6.944 -1.8757  1.2261 -0.4295
  125OSM    C4F13372   0.659   0.113   7.109 -0.0691  0.2626 -0.3319
  125OSM    H4F13373   0.691   0.205   7.160 -1.0431  0.1640  0.4879
  125OSM    H4G13374   0.750   0.064   7.069  1.1294  0.0077  2.5272
  125OSM    C5F13375   0.596   0.015   7.208 -0.4421 -0.2723  0.1043
  125OSM    H5F13376   0.584  -0.084   7.159  0.7890  0.0957 -0.9974
  125OSM    H5G13377   0.491   0.044   7.227 -0.8706 -0.9411 -1.1566
  125OSM    C6F13378   0.667   0.009   7.348 -0.1046  0.2136  0.6984
  125OSM    H6F13379   0.776   0.002   7.327 -0.4815 -2.7817 -0.7346
  125OSM    H6G13380   0.648  -0.087   7.400  0.1306 -0.6245 -0.7227
  125OSM    C7F13381   0.631   0.123   7.447  0.3113 -0.7422  0.0965
  125OSM    H7F13382   0.521   0.138   7.448  0.3506 -0.4165 -0.0949
  125OSM    H7G13383   0.677   0.220   7.417 -1.4704  0.1660  0.1808
  125OSM    C8F13384   0.686   0.102   7.588 -0.2889  0.7044  0.0008
  125OSM    H8F13385   0.719   0.203   7.621  0.4778  0.2849  0.5561
  125OSM    H8G13386   0.781   0.045   7.582 -0.7403 -0.1968  1.1549
  125OSM    C9F13387   0.607   0.031   7.692  0.7581 -0.6390  0.0905
  125OSM    H9F13388   0.497   0.039   7.682  0.7789  0.0517  0.3203
  125OSM   C10F13389   0.653  -0.007   7.813  0.1125 -1.0625  0.1704
  125OSM   H10F13390   0.585  -0.061   7.880  0.2230 -1.3417  0.0553
  125OSM   C11F13391   0.794   0.009   7.861 -0.0832  0.0701  0.5282
  125OSM   H11F13392   0.849   0.084   7.800  0.7443 -0.0204  1.1411
  125OSM   H11G13393   0.840  -0.092   7.846 -0.1990  0.3395 -2.3219
  125OSM   C12F13394   0.816   0.054   8.003 -0.2439 -0.0724 -0.3636
  125OSM   H12F13395   0.751   0.142   8.019  0.4589  0.9812 -2.8397
  125OSM   H12G13396   0.918   0.093   8.022 -0.4587 -0.2853  1.3781
  125OSM   C13F13397   0.794  -0.059   8.105  0.5885 -0.8293 -0.4113
  125OSM   H13F13398   0.886  -0.120   8.104  0.7210 -0.6330 -0.2485
  125OSM   H13G13399   0.702  -0.121   8.098 -0.2030  0.1866  0.6758
  125OSM   C14F13400   0.792  -0.001   8.247  0.6177 -0.6610 -1.1478
  125OSM   H14F13401   0.700   0.060   8.262  1.0912 -0.5685  2.3242
  125OSM   H14G13402   0.876   0.070   8.259 -0.0242 -0.1478  0.6601
  125OSM   C15F13403   0.807  -0.103   8.354  0.1373  0.0550  0.8610
  125OSM   H15F13404   0.909  -0.146   8.357  0.1240 -0.0563 -0.0017
  125OSM   H15G13405   0.738  -0.188   8.337  1.3541 -0.6996 -0.4610
  125OSM   C16F13406   0.798  -0.047   8.497 -0.0442 -0.5740 -0.5694
  125OSM   H16F13407   0.847   0.052   8.512  0.7663 -1.1277  0.6573
  125OSM   H16G13408   0.845  -0.112   8.574 -0.6475  0.7838  1.0185
  125OSM   C17F13409   0.649  -0.037   8.548 -0.2206  0.1808 -0.0650
  125OSM   H17F13410   0.621  -0.132   8.598 -0.2074 -0.2341 -0.8236
  125OSM   H17G13411   0.596  -0.024   8.451 -0.0615 -0.3227 -0.2226
  125OSM   C18F13412   0.618   0.085   8.634  0.4458  1.1372  0.6677
  125OSM   H18F13413   0.508   0.091   8.650  0.7231  1.5121  2.6089
  125OSM   H18G13414   0.664   0.170   8.579 -0.1663 -1.0666 -3.7762
  125OSM   H18H13415   0.666   0.083   8.733 -0.7407  0.4736  1.2537
  126OSM      N13416   3.793   5.380   6.297  0.0903  0.4729 -0.0645
  126OSM    C1513417   3.714   5.393   6.169  0.8806  0.1877  0.3557
  126OSM   H15A13418   3.737   5.480   6.109 -0.0761 -0.8677 -1.6465
  126OSM   H15B13419   3.609   5.401   6.189  0.5856 -1.5192 -0.3123
  126OSM   H15C13420   3.729   5.309   6.102 -1.2490 -0.2878  0.4290
  126OSM    C1413421   3.941   5.371   6.263 -0.4102 -0.0316 -0.3286
  126OSM   H14A13422   4.000   5.358   6.353  0.1517  0.6873 -0.5793
  126OSM   H14B13423   3.990   5.451   6.208  1.5327  0.7127  2.2415
  126OSM   H14C13424   3.959   5.289   6.195  0.0538  0.3896 -0.7253
  126OSM    C1313425   3.765   5.505   6.383  0.3606 -0.2364  0.9235
  126OSM   H13A13426   3.816   5.590   6.339 -1.3178  0.3790  0.0746
  126OSM   H13B13427   3.815   5.495   6.478 -1.2608  0.1249  1.8511
  126OSM   H13C13428   3.661   5.527   6.401 -0.5681 -2.2897 -1.4203
  126OSM    C1213429   3.756   5.246   6.364  0.4432  0.0678 -0.6109
  126OSM   H12A13430   3.748   5.157   6.303 -0.3675 -1.6020  1.8177
  126OSM   H12B13431   3.654   5.258   6.396  0.7842 -0.7680  0.8775
  126OSM    C1113432   3.831   5.203   6.497  0.3268 -0.1535  0.7397
  126OSM   H11A13433   3.775   5.117   6.540  0.2628 -1.1817 -1.2885
  126OSM   H11B13434   3.831   5.297   6.556  1.4457  0.3930 -0.0866
  126OSM      P13435   4.009   5.015   6.464 -0.0038 -0.0686 -0.1260
  126OSM    O1313436   3.938   4.946   6.358 -0.9643 -0.0051 -0.1790
  126OSM    O1413437   4.156   5.000   6.466  0.5204  0.7146  0.6829
  126OSM    O1113438   3.952   4.967   6.605  0.6258 -0.4602 -0.1091
  126OSM    O1213439   3.970   5.167   6.474 -0.5942 -0.2484  0.2857
  126OSM    C1S13440   4.004   5.029   6.725 -0.1749  0.5570  0.0038
  126OSM    H1S13441   3.993   5.140   6.718 -2.9083  0.2965 -1.3401
  126OSM    H1T13442   4.111   5.005   6.740 -0.3244  0.1984  0.5206
  126OSM     NF13443   3.926   5.074   6.964  0.7111  0.4222  0.0121
  126OSM    HNF13444   3.971   5.034   7.044 -0.2354  1.8160  1.3143
  126OSM    C2S13445   3.908   4.986   6.844  1.0207 -0.4693 -0.0215
  126OSM    H2S13446   3.805   5.014   6.813  0.2148  0.7250  3.3679
  126OSM    C3S13447   3.907   4.835   6.873 -1.0979  0.3948 -0.1680
  126OSM    H3S13448   4.008   4.811   6.914  0.0933  2.1430 -1.9304
  126OSM     O313449   3.884   4.760   6.760 -0.1252  0.3716 -0.5191
  126OSM    HO313450   3.888   4.819   6.685  0.6770  0.8292 -0.1297
  126OSM    C4S13451   3.808   4.795   6.982 -0.2184  0.3152 -1.3961
  126OSM    H4S13452   3.852   4.801   7.083  0.9080  0.3676 -1.8765
  126OSM    C5S13453   3.676   4.753   6.966 -0.5648 -0.2874  0.2334
  126OSM    H5S13454   3.638   4.740   6.863 -2.5011  2.4518  0.4913
  126OSM    C6S13455   3.588   4.691   7.071 -0.3213 -0.6102  0.4223
  126OSM    H6S13456   3.584   4.585   7.037 -0.8501 -0.2573 -0.6516
  126OSM    H6T13457   3.494   4.750   7.070  0.0136 -0.0756  0.1830
  126OSM    C7S13458   3.637   4.699   7.219 -0.1239 -0.0108  0.1557
  126OSM    H7S13459   3.652   4.806   7.246  0.4526  0.0079 -0.2120
  126OSM    H7T13460   3.739   4.654   7.216 -0.2432 -0.3051  0.4181
  126OSM    C8S13461   3.530   4.659   7.315 -0.1409  0.5400 -0.4069
  126OSM    H8S13462   3.503   4.554   7.292  0.3287  0.3957 -0.3069
  126OSM    H8T13463   3.437   4.718   7.301  0.9372  2.4993  0.3732
  126OSM    C9S13464   3.563   4.667   7.464  0.4148 -0.5347 -0.0475
  126OSM    H9S13465   3.602   4.769   7.480 -0.5824 -0.2612  0.7460
  126OSM    H9T13466   3.647   4.600   7.492  1.6378  0.9500 -0.0653
  126OSM   C10S13467   3.449   4.630   7.561 -0.0058 -0.3092  0.4620
  126OSM   H10S13468   3.399   4.539   7.522  3.4002 -1.1758 -2.3211
  126OSM   H10T13469   3.368   4.707   7.563 -0.5660 -0.8865  1.8980
  126OSM   C11S13470   3.494   4.608   7.710 -0.8055 -0.6294 -0.1742
  126OSM   H11S13471   3.556   4.516   7.717 -1.2583 -0.8753  0.8398
  126OSM   H11T13472   3.398   4.585   7.762  0.8392 -0.4710  3.2047
  126OSM   C12S13473   3.548   4.733   7.779 -0.2295  0.8822 -0.2278
  126OSM   H12S13474   3.481   4.812   7.738 -1.9104 -1.8061 -3.0283
  126OSM   H12T13475   3.651   4.747   7.739 -0.6772  0.3711 -1.6008
  126OSM   C13S13476   3.551   4.729   7.927 -0.2443  0.2583  0.0662
  126OSM   H13S13477   3.454   4.710   7.977  0.1777  1.8789  1.6219
  126OSM   H13T13478   3.589   4.816   7.985  2.0904  0.5439 -1.7691
  126OSM   C14S13479   3.647   4.614   7.963 -0.5204 -0.4818 -0.4925
  126OSM   H14S13480   3.739   4.622   7.901 -0.4271 -0.4506 -0.3525
  126OSM   H14T13481   3.595   4.521   7.934 -1.4650  0.3081 -1.4297
  126OSM   C15S13482   3.688   4.599   8.116  0.2468 -0.7546 -0.2045
  126OSM   H15S13483   3.714   4.705   8.139  0.6170 -0.3961 -2.1503
  126OSM   H15T13484   3.780   4.538   8.127  1.7091  1.1905 -1.0603
  126OSM   C16S13485   3.578   4.585   8.224 -0.4478  0.4727 -0.3325
  126OSM   H16S13486   3.562   4.477   8.242 -0.2150  0.6916  1.4158
  126OSM   H16T13487   3.483   4.619   8.179 -1.2451 -2.6708 -1.2866
  126OSM   C17S13488   3.599   4.647   8.368 -0.2675 -0.1077 -0.6895
  126OSM   H17S13489   3.525   4.730   8.376  2.0641  2.0774 -0.3607
  126OSM   H17T13490   3.700   4.692   8.382 -0.7462  0.5433  0.8848
  126OSM   C18S13491   3.575   4.556   8.489  0.3443  0.2518  0.4342
  126OSM   H18S13492   3.466   4.537   8.492  0.4382 -1.4677 -2.6271
  126OSM   H18T13493   3.608   4.602   8.584  1.5884 -2.3152  1.3529
  126OSM   H18U13494   3.629   4.458   8.486  2.1520  1.1757  0.9685
  126OSM    C1F13495   3.893   5.205   6.965 -0.1073 -0.5382 -0.1472
  126OSM     OF13496   3.852   5.262   6.868 -0.2113  0.0353 -0.1404
  126OSM    C2F13497   3.902   5.281   7.099  0.0754 -0.0005 -0.0588
  126OSM    H2F13498   3.985   5.249   7.165 -1.3058 -1.1175  1.2088
  126OSM    H2G13499   3.802   5.258   7.142  0.6076 -1.5662  0.3886
  126OSM    C3F13500   3.907   5.432   7.088 -0.2652 -0.2165 -0.1243
  126OSM    H3F13501   3.835   5.472   7.014 -1.5307 -2.4576 -0.1797
  126OSM    H3G13502   4.010   5.467   7.061 -0.5057 -0.2941 -1.1709
  126OSM    C4F13503   3.864   5.492   7.223 -0.0391  0.2784 -0.4672
  126OSM    H4F13504   3.762   5.451   7.241 -0.4022  0.9321 -0.9767
  126OSM    H4G13505   3.855   5.602   7.216  0.0610  0.3416  0.3631
  126OSM    C5F13506   3.952   5.461   7.337  0.0517  0.7992  0.9902
  126OSM    H5F13507   4.055   5.487   7.303  0.6196 -1.8952  0.4100
  126OSM    H5G13508   3.959   5.350   7.339 -0.3102  0.7196 -0.7330
  126OSM    C6F13509   3.911   5.516   7.480 -0.0195 -0.4432  0.6566
  126OSM    H6F13510   3.811   5.471   7.497 -0.1783 -1.1377 -1.7683
  126OSM    H6G13511   3.900   5.626   7.477  3.0624 -0.0147  1.3189
  126OSM    C7F13512   4.018   5.473   7.582  0.7123  0.4599  0.5254
  126OSM    H7F13513   4.114   5.514   7.542  0.5557 -1.2001 -1.7646
  126OSM    H7G13514   4.028   5.363   7.591  2.2033  0.6913  2.6781
  126OSM    C8F13515   3.991   5.525   7.718 -0.0152 -0.0042 -0.7240
  126OSM    H8F13516   3.963   5.632   7.723  0.6064  0.1205  0.7817
  126OSM    H8G13517   4.091   5.512   7.765  0.8239  0.1979 -2.4014
  126OSM    C9F13518   3.899   5.439   7.803  0.1161 -0.5472  0.2743
  126OSM    H9F13519   3.805   5.418   7.749  0.5504 -1.2131 -0.2281
  126OSM   C10F13520   3.912   5.400   7.930 -0.3780 -0.0474  0.1432
  126OSM   H10F13521   3.821   5.351   7.966 -1.3499 -0.7892 -3.0142
  126OSM   C11F13522   4.029   5.430   8.025  0.5722  0.0654 -0.3893
  126OSM   H11F13523   4.125   5.433   7.971  0.9185 -1.3599  0.1178
  126OSM   H11G13524   4.031   5.354   8.107  0.0948  0.2178 -0.2283
  126OSM   C12F13525   4.010   5.575   8.071 -0.2287  0.2877  0.4815
  126OSM   H12F13526   3.904   5.610   8.076  0.3227  1.9486  3.4736
  126OSM   H12G13527   4.048   5.647   7.996 -1.8758  0.2234 -0.4721
  126OSM   C13F13528   4.060   5.608   8.219  0.6983 -0.1702  0.2153
  126OSM   H13F13529   4.108   5.708   8.228  0.2338 -0.0524  1.6485
  126OSM   H13G13530   4.139   5.539   8.255  1.5274  1.5109  1.7205
  126OSM   C14F13531   3.957   5.604   8.329  0.3208  0.1810 -0.1959
  126OSM   H14F13532   4.010   5.636   8.421  2.1817 -0.9024 -0.8326
  126OSM   H14G13533   3.926   5.499   8.347  0.8429 -0.3305 -2.0129
  126OSM   C15F13534   3.838   5.710   8.326 -0.4832  0.3192 -0.9922
  126OSM   H15F13535   3.778   5.672   8.241 -0.5330  0.2724 -0.9361
  126OSM   H15G13536   3.885   5.810   8.310  0.0164  0.5194  1.3691
  126OSM   C16F13537   3.744   5.696   8.441  0.3456  0.0808 -0.3642
  126OSM   H16F13538   3.717   5.588   8.443  0.6855  0.0007  1.2410
  126OSM   H16G13539   3.655   5.759   8.418  0.9599  0.4635 -1.7788
  126OSM   C17F13540   3.789   5.743   8.579 -0.5561 -0.2665  0.4080
  126OSM   H17F13541   3.820   5.850   8.575  1.9258 -0.9726 -2.9970
  126OSM   H17G13542   3.880   5.688   8.610  0.2899 -0.1166 -1.7020
  126OSM   C18F13543   3.683   5.718   8.689  0.0377  0.3993  0.1126
  126OSM   H18F13544   3.582   5.741   8.648  0.7043 -1.2044 -2.6272
  126OSM   H18G13545   3.700   5.772   8.785  0.9042 -0.9532  0.7413
  126OSM   H18H13546   3.686   5.608   8.706 -0.8278  0.1708 -1.0655
  127OSM      N13547   5.434   3.981   6.287 -0.0140  0.2125  0.9978
  127OSM    C1513548   5.338   4.086   6.231 -0.1969 -0.3889  0.4174
  127OSM   H15A13549   5.386   4.179   6.208 -1.7402  0.4584  0.4912
  127OSM   H15B13550   5.264   4.109   6.307  1.1327  0.0737  1.6155
  127OSM   H15C13551   5.290   4.043   6.144  1.7538 -0.7779 -0.5109
  127OSM    C1413552   5.537   3.970   6.178  0.5704  0.3212  0.6334
  127OSM   H14A13553   5.603   4.055   6.171  0.5193  0.3681  0.7209
  127OSM   H14B13554   5.494   3.937   6.085  2.7040 -3.0374  0.6430
  127OSM   H14C13555   5.601   3.887   6.206  0.2138 -0.0023  0.4855
  127OSM    C1313556   5.494   4.038   6.412 -0.0959  0.0964  0.7946
  127OSM   H13A13557   5.523   4.142   6.401 -1.2019  0.3455  0.0540
  127OSM   H13B13558   5.577   3.982   6.452 -0.9206  1.1798  4.4212
  127OSM   H13C13559   5.430   4.047   6.498  1.1104  0.8565  1.6489
  127OSM    C1213560   5.369   3.844   6.318  0.3842 -0.4796  0.3907
  127OSM   H12A13561   5.275   3.858   6.370  0.6068 -0.5630  0.8152
  127OSM   H12B13562   5.438   3.784   6.375  1.7220 -1.0787 -1.7144
  127OSM    C1113563   5.341   3.746   6.200 -0.1351 -0.0914  1.0021
  127OSM   H11A13564   5.298   3.811   6.121  1.3160  2.5010  2.2354
  127OSM   H11B13565   5.259   3.681   6.238 -0.5752  0.8888  1.7789
  127OSM      P13566   5.514   3.554   6.224 -0.3362  0.1800 -0.3714
  127OSM    O1313567   5.476   3.439   6.143  0.1555 -0.1241 -0.0921
  127OSM    O1413568   5.655   3.583   6.217  0.5269  0.3878  0.0013
  127OSM    O1113569   5.453   3.552   6.369  0.1054 -0.0549 -0.2547
  127OSM    O1213570   5.459   3.674   6.154 -0.3096 -0.3104  0.6465
  127OSM    C1S13571   5.532   3.583   6.488 -0.0140 -0.1269  0.0367
  127OSM    H1S13572   5.527   3.693   6.508 -0.1561  0.0345 -0.8438
  127OSM    H1T13573   5.639   3.557   6.473 -0.2324 -2.1697  1.5889
  127OSM     NF13574   5.569   3.558   6.740 -0.1214  0.5507  0.3924
  127OSM    HNF13575   5.627   3.496   6.793 -0.0243  0.7056  0.4674
  127OSM    C2S13576   5.493   3.504   6.623  0.5320  0.2964 -0.4114
  127OSM    H2S13577   5.387   3.528   6.646  0.7999  0.0548  1.2564
  127OSM    C3S13578   5.501   3.348   6.601 -0.2404 -0.0581  0.8185
  127OSM    H3S13579   5.608   3.321   6.590 -0.1619 -0.6853  2.7878
  127OSM     O313580   5.424   3.315   6.483  0.0413  0.7189 -0.0408
  127OSM    HO313581   5.406   3.394   6.433 -1.2550 -0.1184 -0.9526
  127OSM    C4S13582   5.447   3.274   6.717  0.6214  0.7053 -0.0006
  127OSM    H4S13583   5.494   3.302   6.812  1.3451 -4.4434  1.4366
  127OSM    C5S13584   5.345   3.181   6.720  0.0722 -0.3050 -0.5536
  127OSM    H5S13585   5.293   3.166   6.625  1.3911  0.0746 -1.3530
  127OSM    C6S13586   5.289   3.103   6.839  0.2279  0.3025 -0.1749
  127OSM    H6S13587   5.293   2.993   6.827 -1.8031  0.2773 -1.1301
  127OSM    H6T13588   5.188   3.147   6.854  0.2057 -0.5509  2.7775
  127OSM    C7S13589   5.354   3.115   6.983 -0.9301  0.1820  0.5858
  127OSM    H7S13590   5.338   3.219   7.017 -0.0646  0.4234  0.2741
  127OSM    H7T13591   5.463   3.100   6.970 -1.1111 -1.3158  0.5718
  127OSM    C8S13592   5.315   3.020   7.094  0.6510 -0.6829  0.0872
  127OSM    H8S13593   5.355   2.920   7.068  0.5193 -0.8414  0.4771
  127OSM    H8T13594   5.206   2.997   7.101  0.6206 -0.2459  1.5238
  127OSM    C9S13595   5.371   3.063   7.227 -0.0506 -0.3026  0.2536
  127OSM    H9S13596   5.329   3.165   7.236  0.5843 -0.0811  0.7200
  127OSM    H9T13597   5.481   3.057   7.221 -0.1702 -2.1792 -1.2554
  127OSM   C10S13598   5.335   2.972   7.350  0.1513 -0.5187 -0.2279
  127OSM   H10S13599   5.372   2.867   7.341 -1.2765 -0.9485 -1.4480
  127OSM   H10T13600   5.226   2.967   7.371  0.4383  1.9615  2.5635
  127OSM   C11S13601   5.392   3.016   7.491  0.1440 -0.4341 -0.2588
  127OSM   H11S13602   5.331   3.102   7.526  0.4096 -1.1648  2.2131
  127OSM   H11T13603   5.496   3.052   7.474 -0.0095  0.4242  0.5620
  127OSM   C12S13604   5.394   2.906   7.599 -0.5143  0.3289 -1.1359
  127OSM   H12S13605   5.451   2.816   7.567  0.2644 -0.7016  2.6394
  127OSM   H12T13606   5.292   2.869   7.623 -0.0824 -0.2367 -0.0852
  127OSM   C13S13607   5.456   2.954   7.732 -0.1514 -0.5694 -0.2732
  127OSM   H13S13608   5.410   3.050   7.764  3.1137  1.1045 -0.1157
  127OSM   H13T13609   5.567   2.957   7.730 -0.1314  1.6137  0.7671
  127OSM   C14S13610   5.440   2.846   7.845 -0.4660  0.2233  0.1981
  127OSM   H14S13611   5.462   2.746   7.801  2.0572  0.5781  0.5419
  127OSM   H14T13612   5.330   2.853   7.860 -0.8493  0.3449 -2.2003
  127OSM   C15S13613   5.518   2.871   7.972  0.7086 -0.6422  0.1864
  127OSM   H15S13614   5.486   2.971   8.009  0.2545 -0.3545 -0.9246
  127OSM   H15T13615   5.626   2.883   7.948  1.9233 -1.4321  4.5136
  127OSM   C16S13616   5.498   2.769   8.084 -0.3762 -0.8458 -0.4858
  127OSM   H16S13617   5.528   2.665   8.059 -2.3418 -1.6028  0.1471
  127OSM   H16T13618   5.393   2.769   8.120 -1.4522 -1.1714 -3.3950
  127OSM   C17S13619   5.585   2.818   8.200 -0.4697  0.1296 -0.0950
  127OSM   H17S13620   5.544   2.919   8.221 -0.3834  0.7062 -2.4779
  127OSM   H17T13621   5.690   2.832   8.170 -0.9304  1.7633 -1.0793
  127OSM   C18S13622   5.587   2.737   8.331 -0.1855  0.7617  0.3976
  127OSM   H18S13623   5.642   2.643   8.309  1.9785  1.9289  0.5950
  127OSM   H18T13624   5.483   2.721   8.366  0.0343 -2.3515 -0.0845
  127OSM   H18U13625   5.643   2.789   8.412  1.9461 -1.0441  0.1867
  127OSM    C1F13626   5.558   3.687   6.778  0.1150 -0.0855  0.0713
  127OSM     OF13627   5.476   3.756   6.722 -0.5913 -0.0697 -0.3270
  127OSM    C2F13628   5.648   3.736   6.892  1.1435  0.2782  0.1067
  127OSM    H2F13629   5.747   3.757   6.845  0.2904 -2.9426 -3.7416
  127OSM    H2G13630   5.654   3.659   6.971  0.5220 -0.8758 -0.9403
  127OSM    C3F13631   5.599   3.867   6.966 -0.0718  0.3190 -0.5118
  127OSM    H3F13632   5.498   3.845   7.008 -1.6401  1.8439 -3.2373
  127OSM    H3G13633   5.592   3.943   6.886 -0.9240  0.0622 -0.6963
  127OSM    C4F13634   5.691   3.901   7.079 -0.1187 -0.0693 -0.0046
  127OSM    H4F13635   5.785   3.945   7.039 -0.3041  0.3980  0.0633
  127OSM    H4G13636   5.718   3.809   7.134  0.4750 -0.0920 -0.3215
  127OSM    C5F13637   5.630   3.997   7.184  0.0800 -0.1707 -0.0046
  127OSM    H5F13638   5.547   3.944   7.237  0.2134 -1.0329 -0.6379
  127OSM    H5G13639   5.603   4.090   7.131 -1.1874  0.1991  1.2207
  127OSM    C6F13640   5.731   4.031   7.293  0.2412 -0.0882  0.3678
  127OSM    H6F13641   5.821   4.077   7.247  1.2029 -0.3707  1.8942
  127OSM    H6G13642   5.774   3.938   7.337  2.5967  0.1435 -1.2776
  127OSM    C7F13643   5.672   4.105   7.417 -0.0835 -0.2625 -0.8902
  127OSM    H7F13644   5.623   4.200   7.388  0.8635  0.6692  0.4433
  127OSM    H7G13645   5.758   4.133   7.481  0.5056  0.5926 -2.0261
  127OSM    C8F13646   5.570   4.011   7.499 -0.1757 -0.1999  0.7869
  127OSM    H8F13647   5.639   3.929   7.528 -1.1788 -1.7349 -0.9100
  127OSM    H8G13648   5.498   3.967   7.427  1.8357 -2.6079  0.1186
  127OSM    C9F13649   5.507   4.088   7.620 -0.1033  0.2712  0.1877
  127OSM    H9F13650   5.489   4.194   7.596  1.7505  0.6850  0.4457
  127OSM   C10F13651   5.467   4.050   7.746 -0.3147 -0.1430 -0.0938
  127OSM   H10F13652   5.414   4.127   7.805 -1.2682 -0.7061 -0.1978
  127OSM   C11F13653   5.474   3.905   7.802  0.2163 -0.4954 -0.7724
  127OSM   H11F13654   5.499   3.825   7.729 -0.1937 -1.9348  0.6077
  127OSM   H11G13655   5.370   3.886   7.835 -0.1250  1.0637 -0.8513
  127OSM   C12F13656   5.571   3.884   7.923 -0.1777 -0.0418  0.2817
  127OSM   H12F13657   5.557   3.965   7.998 -0.3192 -1.8537  2.3400
  127OSM   H12G13658   5.678   3.866   7.898 -0.2502 -0.0292 -0.0360
  127OSM   C13F13659   5.515   3.767   8.015  0.2951  0.3904  0.7712
  127OSM   H13F13660   5.542   3.676   7.958 -0.2111  0.6491  0.1164
  127OSM   H13G13661   5.405   3.780   8.012  0.3832  1.3132  1.0341
  127OSM   C14F13662   5.580   3.775   8.156  0.9963  0.5630  0.2313
  127OSM   H14F13663   5.561   3.878   8.191 -1.0496  0.7234 -1.2143
  127OSM   H14G13664   5.688   3.777   8.129  0.3243  0.0080 -2.8727
  127OSM   C15F13665   5.537   3.664   8.252  0.8958 -0.0358  0.2349
  127OSM   H15F13666   5.552   3.563   8.208  0.9233  0.2023 -0.3158
  127OSM   H15G13667   5.427   3.677   8.269  1.0595  4.4489 -0.7006
  127OSM   C16F13668   5.599   3.659   8.393 -0.8381  0.4799 -0.5578
  127OSM   H16F13669   5.522   3.603   8.449 -0.0612 -0.2369 -0.1806
  127OSM   H16G13670   5.613   3.763   8.432 -3.6502  0.7769 -0.1420
  127OSM   C17F13671   5.732   3.582   8.396  0.5073  0.0709  0.3218
  127OSM   H17F13672   5.811   3.631   8.336 -0.1718  1.6105  0.6261
  127OSM   H17G13673   5.718   3.481   8.352 -0.2366  0.6311 -0.7805
  127OSM   C18F13674   5.774   3.573   8.545  0.2136  0.0905  0.0054
  127OSM   H18F13675   5.701   3.508   8.598  2.7027 -2.4091  0.6149
  127OSM   H18G13676   5.777   3.674   8.591  0.5225  0.5481 -0.9672
  127OSM   H18H13677   5.877   3.530   8.547 -0.3534 -1.3005  0.5033
  128OSM      N13678   0.394   1.218   6.154 -0.3339 -0.0172 -0.1753
  128OSM    C1513679   0.398   1.325   6.264  0.2918  0.3034 -0.5068
  128OSM   H15A13680   0.478   1.396   6.252  0.9406 -0.0585  1.3507
  128OSM   H15B13681   0.422   1.267   6.352 -0.7128  0.5436 -0.0465
  128OSM   H15C13682   0.305   1.374   6.289  0.1776 -0.5214  0.8221
  128OSM    C1413683   0.378   1.280   6.016 -0.5202  0.0096 -0.4910
  128OSM   H14A13684   0.474   1.328   6.001 -0.1800 -0.3193  0.5457
  128OSM   H14B13685   0.309   1.362   6.022  1.3225  1.6622 -0.8749
  128OSM   H14C13686   0.355   1.209   5.937  0.4873 -0.5496 -0.3072
  128OSM    C1313687   0.527   1.152   6.141  0.1869  0.4309  0.1029
  128OSM   H13A13688   0.532   1.075   6.066  1.2073 -0.1375  0.7224
  128OSM   H13B13689   0.561   1.099   6.228  1.4000 -0.6974 -1.0128
  128OSM   H13C13690   0.610   1.213   6.108  0.9690 -1.5175 -1.7890
  128OSM    C1213691   0.281   1.122   6.175 -0.6754  0.4534  0.3478
  128OSM   H12A13692   0.276   1.059   6.087  0.0730  1.0699 -0.1433
  128OSM   H12B13693   0.191   1.181   6.186  0.1194  1.2504  3.5368
  128OSM    C1113694   0.284   1.032   6.294  1.0084 -0.3149 -0.2546
  128OSM   H11A13695   0.277   1.098   6.383 -0.6431  0.3438 -0.8397
  128OSM   H11B13696   0.378   0.974   6.302  0.0050 -2.0169 -0.3247
  128OSM      P13697   0.172   0.796   6.320  0.0152 -0.2423  0.4215
  128OSM    O1313698   0.047   0.746   6.390 -0.2126 -0.0072  0.2000
  128OSM    O1413699   0.206   0.731   6.190  0.5242  0.0396  0.8497
  128OSM    O1113700   0.300   0.782   6.412 -0.1331  0.1493 -0.1267
  128OSM    O1213701   0.170   0.952   6.300 -0.4927  0.8190 -0.1721
  128OSM    C1S13702   0.289   0.827   6.544  0.4295 -0.0318 -0.1866
  128OSM    H1S13703   0.192   0.817   6.597  1.8431  0.3732  2.6396
  128OSM    H1T13704   0.314   0.935   6.540 -2.5694  0.7248 -2.2352
  128OSM     NF13705   0.399   0.838   6.763  0.0585 -0.1785  0.2886
  128OSM    HNF13706   0.483   0.889   6.781  0.5896 -0.0071 -2.3692
  128OSM    C2S13707   0.391   0.758   6.644  0.6535 -0.0387 -0.1581
  128OSM    H2S13708   0.345   0.660   6.667  0.3379 -0.4581 -2.3992
  128OSM    C3S13709   0.538   0.734   6.585  0.4095  0.1453  0.0020
  128OSM    H3S13710   0.585   0.835   6.577 -0.0200  0.6538  2.8726
  128OSM     O313711   0.546   0.680   6.452  0.0629  0.2059 -0.4153
  128OSM    HO313712   0.456   0.691   6.420  0.2446 -0.6655 -1.2574
  128OSM    C4S13713   0.623   0.659   6.681 -0.0031 -0.2879 -0.6062
  128OSM    H4S13714   0.677   0.725   6.750 -0.7473  0.8134 -1.0629
  128OSM    C5S13715   0.644   0.531   6.683 -0.2243  0.2086  0.8271
  128OSM    H5S13716   0.576   0.471   6.620 -1.3063  1.7259  0.4946
  128OSM    C6S13717   0.732   0.445   6.770  0.1153 -0.5900  0.4727
  128OSM    H6S13718   0.818   0.402   6.715 -0.9351 -1.7754 -0.3194
  128OSM    H6T13719   0.676   0.355   6.804 -1.4788  0.5818  1.0840
  128OSM    C7S13720   0.786   0.516   6.902  0.3002  0.0880  0.0695
  128OSM    H7S13721   0.698   0.511   6.970  0.1534  2.2057  0.0905
  128OSM    H7T13722   0.824   0.618   6.882 -0.0747  0.7410  2.3780
  128OSM    C8S13723   0.891   0.426   6.964  0.0349 -0.2743 -0.3364
  128OSM    H8S13724   0.966   0.410   6.883 -0.2295 -1.5650 -0.3322
  128OSM    H8T13725   0.865   0.323   6.994 -1.3355  0.1892  0.1230
  128OSM    C9S13726   0.959   0.485   7.090 -0.3682 -0.0772  0.6054
  128OSM    H9S13727   0.953   0.594   7.072 -1.9994 -0.1258  0.6583
  128OSM    H9T13728   1.062   0.448   7.109 -0.7928 -1.4851  0.3110
  128OSM   C10S13729   0.869   0.466   7.216  0.1567  0.1935  0.2340
  128OSM   H10S13730   0.839   0.365   7.249 -0.0607  0.3481  0.5152
  128OSM   H10T13731   0.773   0.509   7.180  1.5546  1.8861 -1.8136
  128OSM   C11S13732   0.926   0.538   7.337  0.2128  0.4797 -0.2235
  128OSM   H11S13733   0.847   0.594   7.391 -0.6523 -0.9098 -0.0151
  128OSM   H11T13734   1.007   0.609   7.307 -2.7880  2.4274 -4.7742
  128OSM   C12S13735   0.981   0.433   7.433 -1.0575 -0.1741  0.2728
  128OSM   H12S13736   1.053   0.371   7.376 -0.4055  1.3746 -0.6533
  128OSM   H12T13737   0.900   0.366   7.470 -0.9258 -0.8090 -0.5625
  128OSM   C13S13738   1.050   0.486   7.560  0.1294  1.3159  0.3652
  128OSM   H13S13739   1.130   0.558   7.535  1.5550 -0.4874 -0.5462
  128OSM   H13T13740   1.104   0.399   7.604  0.7432 -1.3528 -4.8584
  128OSM   C14S13741   0.959   0.559   7.666  0.0182 -0.0768 -0.6267
  128OSM   H14S13742   0.854   0.525   7.677  0.4296 -1.1950  0.0890
  128OSM   H14T13743   0.946   0.660   7.621 -0.9559 -0.5154 -1.3674
  128OSM   C15S13744   1.022   0.561   7.803  0.3697 -0.4040  0.2792
  128OSM   H15S13745   0.972   0.637   7.867 -0.5558 -0.3063 -0.5453
  128OSM   H15T13746   1.132   0.570   7.791  1.0088 -2.3701  3.4212
  128OSM   C16S13747   1.007   0.434   7.880 -0.4791  0.6336  0.1319
  128OSM   H16S13748   1.080   0.367   7.830  0.4347  0.9768  0.9767
  128OSM   H16T13749   0.906   0.388   7.874  0.2567 -1.2275  1.4003
  128OSM   C17S13750   1.049   0.449   8.024 -0.2678 -0.1099  0.6960
  128OSM   H17S13751   1.009   0.549   8.054  1.5901  1.1678 -0.8278
  128OSM   H17T13752   1.158   0.467   8.024 -0.2181  0.0463 -2.5301
  128OSM   C18S13753   1.006   0.345   8.127  0.6018  0.1044 -0.5136
  128OSM   H18S13754   0.897   0.331   8.113  0.1429  1.1540  1.5888
  128OSM   H18T13755   1.040   0.367   8.231  1.4608 -1.4266 -0.4364
  128OSM   H18U13756   1.055   0.249   8.098 -1.5869 -0.8752 -1.1430
  128OSM    C1F13757   0.289   0.852   6.840 -0.9298  1.0636 -0.0862
  128OSM     OF13758   0.195   0.780   6.829 -0.0323  0.3762  0.2563
  128OSM    C2F13759   0.293   0.962   6.939 -0.4503  0.2740  0.3684
  128OSM    H2F13760   0.331   1.055   6.892  2.2609  0.3707  2.4936
  128OSM    H2G13761   0.373   0.947   7.015  0.0779  1.2818  0.0311
  128OSM    C3F13762   0.150   0.984   6.996 -0.0766 -0.1413  0.2293
  128OSM    H3F13763   0.123   0.904   7.068  1.2414 -0.1392  0.7623
  128OSM    H3G13764   0.081   0.979   6.909  2.1519  1.1669 -1.7177
  128OSM    C4F13765   0.131   1.130   7.053 -0.0739  0.0657  0.1590
  128OSM    H4F13766   0.023   1.140   7.077  0.0717  3.4614 -0.0902
  128OSM    H4G13767   0.157   1.199   6.969 -3.6920 -0.1167 -1.2975
  128OSM    C5F13768   0.220   1.150   7.176  0.3495 -0.5553 -0.1255
  128OSM    H5F13769   0.214   1.256   7.209  0.3554 -0.7354  0.4730
  128OSM    H5G13770   0.324   1.135   7.141  0.6926 -0.3714  0.8067
  128OSM    C6F13771   0.186   1.059   7.293  0.7219 -0.1663 -0.0399
  128OSM    H6F13772   0.180   0.954   7.259 -0.1289 -0.0174 -0.3835
  128OSM    H6G13773   0.086   1.087   7.333  0.3137  1.5007 -2.0150
  128OSM    C7F13774   0.300   1.070   7.400  0.1828 -0.5738 -0.1655
  128OSM    H7F13775   0.331   1.174   7.419  2.0624 -0.5631 -2.7745
  128OSM    H7G13776   0.391   1.015   7.368  0.6261  0.0949 -0.0612
  128OSM    C8F13777   0.245   1.020   7.540  0.2370 -0.3550 -0.8709
  128OSM    H8F13778   0.235   0.909   7.536  0.1171 -0.4302  1.0207
  128OSM    H8G13779   0.143   1.060   7.553  0.4071  0.6364 -2.3033
  128OSM    C9F13780   0.337   1.048   7.656  0.2195  0.2675 -0.1531
  128OSM    H9F13781   0.437   1.060   7.612  0.3858 -0.3517  0.0415
  128OSM   C10F13782   0.317   1.056   7.787  0.1957 -0.0565  0.6315
  128OSM   H10F13783   0.406   1.076   7.847 -1.5677 -0.2798  3.4870
  128OSM   C11F13784   0.192   1.043   7.868  0.6752 -0.1148 -0.8563
  128OSM   H11F13785   0.110   0.999   7.807  0.6642  1.3532 -1.9531
  128OSM   H11G13786   0.164   1.143   7.907  0.4866 -0.3754 -0.3146
  128OSM   C12F13787   0.202   0.958   7.991  0.0560 -1.1298 -0.2508
  128OSM   H12F13788   0.225   0.854   7.960  0.5131 -0.9059 -0.6764
  128OSM   H12G13789   0.099   0.954   8.032 -0.1434  0.2639 -0.5682
  128OSM   C13F13790   0.303   1.017   8.088 -0.0862 -0.5835  0.2221
  128OSM   H13F13791   0.280   1.122   8.114 -0.5496 -0.8857  1.0715
  128OSM   H13G13792   0.410   1.007   8.058  0.3859  1.7507  0.8931
  128OSM   C14F13793   0.309   0.926   8.214  0.2533 -0.0997 -0.3209
  128OSM   H14F13794   0.370   0.836   8.192  0.0855  0.0337 -1.3506
  128OSM   H14G13795   0.202   0.904   8.231 -0.2853  2.8138  0.5834
  128OSM   C15F13796   0.365   0.994   8.340  0.9574  0.6208 -0.6450
  128OSM   H15F13797   0.290   1.056   8.394 -0.8307 -0.4694 -1.7841
  128OSM   H15G13798   0.457   1.047   8.305  1.9951  0.1729  1.2515
  128OSM   C16F13799   0.416   0.886   8.442 -0.2188 -0.6648  1.2597
  128OSM   H16F13800   0.483   0.818   8.386  0.7769  1.4482 -0.2670
  128OSM   H16G13801   0.333   0.820   8.474 -1.6672  0.7147  0.5230
  128OSM   C17F13802   0.489   0.936   8.570 -0.1093  0.4470  0.5402
  128OSM   H17F13803   0.474   0.849   8.638  0.6874  1.2872  1.8507
  128OSM   H17G13804   0.424   1.020   8.603 -2.1933  0.0246 -2.2143
  128OSM   C18F13805   0.633   0.983   8.556  0.1565 -0.4478  0.7515
  128OSM   H18F13806   0.650   1.046   8.466 -1.6594 -2.9740 -1.5133
  128OSM   H18G13807   0.698   0.893   8.550 -0.5016 -0.8297 -1.2071
  128OSM   H18H13808   0.662   1.042   8.646 -0.1548 -0.4768  0.8749
  129OSM      N13809   4.849   5.199   6.335  0.2602  0.1840 -0.3076
  129OSM    C1513810   4.788   5.293   6.234  0.0134 -0.1922  0.1912
  129OSM   H15A13811   4.697   5.336   6.272  0.9965 -0.1193  2.6485
  129OSM   H15B13812   4.773   5.248   6.137  3.3609  0.6726 -0.8737
  129OSM   H15C13813   4.854   5.377   6.221  0.9176 -0.5293  2.1366
  129OSM    C1413814   4.968   5.137   6.265  0.3786 -0.1723 -0.2403
  129OSM   H14A13815   5.000   5.056   6.329 -1.0706 -0.7515 -0.1983
  129OSM   H14B13816   5.051   5.206   6.267  0.8798 -0.7626  2.0604
  129OSM   H14C13817   4.936   5.107   6.166  0.4933  1.8817 -0.9617
  129OSM    C1313818   4.907   5.281   6.443 -0.9744 -0.0073  0.2276
  129OSM   H13A13819   4.834   5.336   6.501 -1.4931  0.9761 -1.3089
  129OSM   H13B13820   4.981   5.348   6.405 -0.7937 -0.2882  0.0817
  129OSM   H13C13821   4.962   5.220   6.514  0.0119 -2.0134 -2.1250
  129OSM    C1213822   4.757   5.098   6.391 -0.6822  0.0340 -0.4995
  129OSM   H12A13823   4.711   5.038   6.313 -1.4908  0.0950 -0.0815
  129OSM   H12B13824   4.672   5.147   6.437  0.0104 -0.3172  1.2133
  129OSM    C1113825   4.814   4.990   6.484 -0.0374 -0.4399 -0.2613
  129OSM   H11A13826   4.724   4.942   6.527 -1.1335  1.7235 -0.0056
  129OSM   H11B13827   4.868   5.046   6.564 -0.1546 -1.1350  0.3205
  129OSM      P13828   4.869   4.779   6.356 -0.0727  0.6889 -0.5446
  129OSM    O1313829   4.740   4.801   6.291  0.0433  0.4412 -0.0097
  129OSM    O1413830   4.983   4.731   6.268  0.3399  0.1454  0.3436
  129OSM    O1113831   4.844   4.679   6.475 -0.4012  0.5479 -0.0412
  129OSM    O1213832   4.911   4.903   6.427  0.4904 -0.3495 -0.2995
  129OSM    C1S13833   4.937   4.669   6.583 -0.5964  0.5408  0.4339
  129OSM    H1S13834   4.931   4.764   6.642 -2.2279  0.7760 -0.0547
  129OSM    H1T13835   5.037   4.657   6.537 -0.8194  0.0558  0.0690
  129OSM     NF13836   4.992   4.557   6.784 -0.4579 -0.0241 -0.4806
  129OSM    HNF13837   5.071   4.496   6.777 -0.5497 -0.0195 -1.8214
  129OSM    C2S13838   4.902   4.556   6.677 -0.0068  0.6516 -0.8106
  129OSM    H2S13839   4.802   4.575   6.721 -0.8481 -2.1870 -1.2878
  129OSM    C3S13840   4.890   4.419   6.602 -0.5906  0.1953 -0.1337
  129OSM    H3S13841   4.988   4.397   6.556  0.1176  0.1726  1.3215
  129OSM     O313842   4.805   4.424   6.489  0.7417  0.0177  0.0664
  129OSM    HO313843   4.770   4.513   6.491 -1.4566 -0.7758  1.8010
  129OSM    C4S13844   4.862   4.297   6.686 -0.2529 -0.4958  0.0046
  129OSM    H4S13845   4.949   4.234   6.710  0.1866  1.2109  3.5540
  129OSM    C5S13846   4.736   4.261   6.725  0.5380  0.2969 -0.3086
  129OSM    H5S13847   4.649   4.326   6.710  0.1409  0.4749  2.2620
  129OSM    C6S13848   4.689   4.133   6.799  1.1375 -0.0195  0.2394
  129OSM    H6S13849   4.644   4.076   6.715  1.1123  1.5521 -0.8567
  129OSM    H6T13850   4.611   4.156   6.876 -1.2970 -1.9771 -1.4886
  129OSM    C7S13851   4.788   4.026   6.855  0.1628  0.8226  0.1540
  129OSM    H7S13852   4.863   4.087   6.909 -0.4720  2.2321 -0.5056
  129OSM    H7T13853   4.830   3.978   6.765 -0.8546  1.3173 -0.6125
  129OSM    C8S13854   4.709   3.928   6.953 -0.0246 -0.3443 -0.1463
  129OSM    H8S13855   4.644   3.865   6.889  0.9115  0.0969 -1.5848
  129OSM    H8T13856   4.647   3.998   7.013  0.7862  1.1613 -0.9868
  129OSM    C9S13857   4.803   3.851   7.055 -0.1797  0.4044  0.5850
  129OSM    H9S13858   4.862   3.932   7.103  1.0625 -0.6240  0.8686
  129OSM    H9T13859   4.873   3.779   7.005  0.1218 -0.0255  1.6091
  129OSM   C10S13860   4.730   3.788   7.174 -0.6029  0.5380 -0.1008
  129OSM   H10S13861   4.665   3.704   7.143  1.4314 -2.4322  3.0317
  129OSM   H10T13862   4.670   3.866   7.227 -1.0044 -0.0966  0.3857
  129OSM   C11S13863   4.814   3.738   7.293 -0.5180 -0.2709 -0.3490
  129OSM   H11S13864   4.859   3.827   7.343 -0.2123 -1.7858  2.2127
  129OSM   H11T13865   4.891   3.663   7.262 -0.7241  0.0887 -1.7863
  129OSM   C12S13866   4.728   3.658   7.382 -0.2768 -0.3091 -0.3760
  129OSM   H12S13867   4.689   3.565   7.335 -0.4138  0.0532 -0.9990
  129OSM   H12T13868   4.639   3.716   7.412 -1.9956 -1.6219 -2.5679
  129OSM   C13S13869   4.802   3.610   7.512 -0.2216  0.3225 -0.4401
  129OSM   H13S13870   4.850   3.706   7.543  0.8316 -0.3573  0.0642
  129OSM   H13T13871   4.887   3.546   7.482 -0.3379 -0.4366  0.7811
  129OSM   C14S13872   4.703   3.551   7.611  0.1516  0.2208  0.0108
  129OSM   H14S13873   4.661   3.452   7.583 -0.8049  0.3356  0.9834
  129OSM   H14T13874   4.612   3.615   7.613  0.8362  1.2665 -1.0086
  129OSM   C15S13875   4.759   3.535   7.750  0.3327  0.5093  0.5125
  129OSM   H15S13876   4.810   3.625   7.791  1.2650  0.4709 -0.5304
  129OSM   H15T13877   4.838   3.457   7.760  0.8601  0.9926  0.1572
  129OSM   C16S13878   4.644   3.489   7.839 -0.0548  0.7038 -0.9807
  129OSM   H16S13879   4.604   3.391   7.806 -3.7899  1.6319  0.2435
  129OSM   H16T13880   4.562   3.564   7.826  1.1781  2.1022 -0.9467
  129OSM   C17S13881   4.690   3.486   7.993 -0.2009 -0.7022  0.0504
  129OSM   H17S13882   4.602   3.475   8.059  0.1413  0.3880  0.7058
  129OSM   H17T13883   4.754   3.575   8.008  0.2013 -0.8325 -0.7966
  129OSM   C18S13884   4.765   3.359   8.031  0.3304  0.0617 -0.1956
  129OSM   H18S13885   4.725   3.261   7.998  3.2123 -2.6186  3.4276
  129OSM   H18T13886   4.775   3.355   8.142  2.8500 -0.2558 -0.3752
  129OSM   H18U13887   4.871   3.379   8.003  0.4384  2.1343  1.4419
  129OSM    C1F13888   4.986   4.642   6.886  0.6899 -0.0162 -0.5385
  129OSM     OF13889   4.900   4.729   6.891  0.3511  0.3729  0.4067
  129OSM    C2F13890   5.071   4.608   7.004  0.5418 -0.2420  0.4569
  129OSM    H2F13891   5.116   4.507   6.998  0.4635 -0.2365 -0.4192
  129OSM    H2G13892   4.994   4.622   7.082  1.0491  3.0430  0.5219
  129OSM    C3F13893   5.181   4.711   7.043 -0.0333 -0.6995  0.3802
  129OSM    H3F13894   5.127   4.808   7.055  1.6111  0.3938 -0.6712
  129OSM    H3G13895   5.248   4.726   6.956  2.5435 -2.1897  1.9819
  129OSM    C4F13896   5.246   4.681   7.173 -1.8014  0.7360 -0.0867
  129OSM    H4F13897   5.353   4.700   7.154 -1.4164  0.7672  1.9296
  129OSM    H4G13898   5.234   4.572   7.191 -0.1101  0.5070 -0.1752
  129OSM    C5F13899   5.190   4.763   7.284  0.5819  0.7133 -0.6746
  129OSM    H5F13900   5.200   4.872   7.266  0.3909  0.5155 -2.1001
  129OSM    H5G13901   5.258   4.755   7.371  0.0138  1.1113 -0.1891
  129OSM    C6F13902   5.038   4.728   7.324 -0.1849  0.2884  0.6204
  129OSM    H6F13903   5.027   4.618   7.329  2.6751 -0.0016  4.3171
  129OSM    H6G13904   4.966   4.764   7.247 -1.2543 -1.6041  0.6843
  129OSM    C7F13905   5.011   4.767   7.474 -0.6331  0.1857  0.2767
  129OSM    H7F13906   5.021   4.877   7.480 -0.1779  0.1798 -0.3738
  129OSM    H7G13907   5.078   4.717   7.547  0.1713  2.0538  0.8803
  129OSM    C8F13908   4.875   4.721   7.517 -0.8462  0.1004  0.1477
  129OSM    H8F13909   4.867   4.755   7.623  0.5995 -1.4165  0.7956
  129OSM    H8G13910   4.869   4.610   7.508  0.8120  0.0473 -0.7123
  129OSM    C9F13911   4.765   4.781   7.438 -0.2856 -0.3537 -0.1080
  129OSM    H9F13912   4.808   4.859   7.374  1.8663 -3.0772 -2.2605
  129OSM   C10F13913   4.634   4.760   7.462 -0.3837  0.1626 -0.0910
  129OSM   H10F13914   4.568   4.814   7.393  0.8463  0.0185 -1.4325
  129OSM   C11F13915   4.576   4.658   7.560  0.7311  0.1285 -0.7102
  129OSM   H11F13916   4.632   4.567   7.592 -1.5101 -0.7711  1.0099
  129OSM   H11G13917   4.486   4.611   7.514  1.0988  0.3428 -1.6605
  129OSM   C12F13918   4.514   4.726   7.687  0.6441  0.4793  0.3025
  129OSM   H12F13919   4.465   4.648   7.748 -2.6489 -0.3972 -3.0721
  129OSM   H12G13920   4.446   4.808   7.655  2.1793  1.6797 -0.0575
  129OSM   C13F13921   4.623   4.793   7.770 -0.5471  0.7094 -0.0676
  129OSM   H13F13922   4.565   4.848   7.846 -3.5006 -1.1214 -0.8429
  129OSM   H13G13923   4.681   4.861   7.703  2.6001 -1.5843  0.0812
  129OSM   C14F13924   4.702   4.688   7.846  0.7419 -0.2816  0.5244
  129OSM   H14F13925   4.774   4.635   7.781 -0.2662  0.3384 -1.1557
  129OSM   H14G13926   4.628   4.622   7.896 -0.3633  0.3273 -0.2751
  129OSM   C15F13927   4.778   4.759   7.956  0.2688 -0.3892 -0.1444
  129OSM   H15F13928   4.719   4.832   8.016 -1.3734 -0.5289 -1.5128
  129OSM   H15G13929   4.861   4.816   7.911 -1.3591  1.9174 -0.4174
  129OSM   C16F13930   4.836   4.670   8.060  0.3110  0.5111 -0.1346
  129OSM   H16F13931   4.903   4.734   8.121  1.6720  1.4522 -2.4755
  129OSM   H16G13932   4.883   4.586   8.004  0.5261  1.3746 -1.2674
  129OSM   C17F13933   4.729   4.632   8.164 -0.1976  0.1418  0.4831
  129OSM   H17F13934   4.652   4.564   8.123 -2.4194  2.3817  0.7253
  129OSM   H17G13935   4.683   4.725   8.203  1.1274  0.8055  0.5193
  129OSM   C18F13936   4.800   4.577   8.286  0.4011  0.1890 -0.2662
  129OSM   H18F13937   4.731   4.559   8.371 -0.5920  0.7414 -0.9333
  129OSM   H18G13938   4.885   4.639   8.321 -0.7591  1.6328  0.0975
  129OSM   H18H13939   4.848   4.482   8.256 -1.6182 -1.1505  0.5228
  130OSM      N13940   1.071   6.673   6.074  0.1013  0.3601  0.1168
  130OSM    C1513941   1.188   6.722   5.996 -0.5351 -0.2646  0.0353
  130OSM   H15A13942   1.230   6.636   5.945  1.8010  0.2508  0.9658
  130OSM   H15B13943   1.258   6.767   6.065  1.6224 -0.3650 -1.9280
  130OSM   H15C13944   1.150   6.804   5.938 -1.5145 -0.6071  0.1804
  130OSM    C1413945   0.969   6.614   5.981  0.4703  0.6624  0.0856
  130OSM   H14A13946   0.900   6.683   5.937 -0.5101  0.7370  1.6777
  130OSM   H14B13947   0.910   6.545   6.039 -0.7299 -0.7412 -2.6135
  130OSM   H14C13948   1.014   6.559   5.899 -0.2775  0.6019 -0.2874
  130OSM    C1313949   1.115   6.560   6.151  0.0164 -0.0616  0.1249
  130OSM   H13A13950   1.036   6.519   6.212 -1.1757  0.5349 -0.9787
  130OSM   H13B13951   1.194   6.585   6.221 -1.6464  2.5829  1.1911
  130OSM   H13C13952   1.156   6.478   6.095 -1.3928 -0.2815 -0.6330
  130OSM    C1213953   1.006   6.780   6.160  0.0702  0.2480  0.0333
  130OSM   H12A13954   1.087   6.818   6.221  0.7609  1.9961 -1.8508
  130OSM   H12B13955   0.930   6.731   6.219 -0.5673  0.1057 -0.8757
  130OSM    C1113956   0.958   6.910   6.094  0.2393 -0.3218 -0.3933
  130OSM   H11A13957   0.904   6.972   6.168 -0.0291 -0.2937 -0.6095
  130OSM   H11B13958   0.888   6.881   6.012  0.5356  2.2562 -1.6367
  130OSM      P13959   1.169   7.056   6.118  0.0377  0.4666 -0.0589
  130OSM    O1313960   1.285   6.965   6.111  0.0853  0.5411  0.1728
  130OSM    O1413961   1.171   7.198   6.076  0.0382  0.3783  0.3035
  130OSM    O1113962   1.113   7.045   6.266  0.0274 -0.1098  0.3555
  130OSM    O1213963   1.059   6.988   6.030  0.7191  0.4466 -0.5247
  130OSM    C1S13964   1.191   7.124   6.358  1.0864 -0.5096 -0.2807
  130OSM    H1S13965   1.151   7.226   6.341 -0.1367 -1.1384 -1.3592
  130OSM    H1T13966   1.301   7.124   6.342  1.4922 -2.9099  1.9866
  130OSM     NF13967   1.214   7.192   6.592 -0.6603  0.7776 -0.2018
  130OSM    HNF13968   1.311   7.196   6.615 -0.2557 -1.8876 -1.0555
  130OSM    C2S13969   1.168   7.081   6.505 -0.4779 -0.5722  0.2081
  130OSM    H2S13970   1.059   7.077   6.528 -0.5867  4.0505  1.3946
  130OSM    C3S13971   1.237   6.945   6.532  0.4530  0.1483  0.0269
  130OSM    H3S13972   1.347   6.960   6.523  0.6908  0.0302  2.1230
  130OSM     O313973   1.199   6.849   6.444  0.9205 -0.4080  0.0465
  130OSM    HO313974   1.144   6.894   6.379  2.1051 -1.9078 -2.0917
  130OSM    C4S13975   1.213   6.903   6.675  0.7137 -0.6396  0.1499
  130OSM    H4S13976   1.301   6.911   6.740  0.5838 -1.2995  0.4118
  130OSM    C5S13977   1.100   6.858   6.725 -0.6161  0.2460  0.3083
  130OSM    H5S13978   1.008   6.863   6.665  0.2349  1.4767 -0.9724
  130OSM    C6S13979   1.076   6.821   6.872  0.0128  0.0057  0.5157
  130OSM    H6S13980   1.087   6.711   6.877  1.9393  0.1954  2.3674
  130OSM    H6T13981   0.968   6.839   6.890 -0.0232  0.9797 -0.5783
  130OSM    C7S13982   1.158   6.891   6.976 -0.1471  0.2251  1.0625
  130OSM    H7S13983   1.157   7.002   6.975 -0.9335  0.2290  1.0362
  130OSM    H7T13984   1.264   6.858   6.968 -0.3354  0.0207 -1.3378
  130OSM    C8S13985   1.114   6.847   7.118 -0.4943 -0.4536 -0.2749
  130OSM    H8S13986   1.159   6.745   7.117 -1.1904 -0.9258  3.3101
  130OSM    H8T13987   1.004   6.835   7.114 -0.1680 -4.9475 -0.5048
  130OSM    C9S13988   1.167   6.918   7.241 -0.4341  0.0488  0.0803
  130OSM    H9S13989   1.143   7.026   7.250 -0.2922  0.1975 -1.1523
  130OSM    H9T13990   1.278   6.921   7.247 -0.3539 -2.5174  0.9743
  130OSM   C10S13991   1.136   6.841   7.367  0.7571 -0.0565  1.4905
  130OSM   H10S13992   1.163   6.736   7.346 -1.5971  0.0403 -3.1970
  130OSM   H10T13993   1.027   6.855   7.387  1.1042  0.1719  3.4217
  130OSM   C11S13994   1.208   6.895   7.489 -0.8167  0.1272 -0.2347
  130OSM   H11S13995   1.187   7.004   7.491  0.3346  0.3875 -1.1701
  130OSM   H11T13996   1.316   6.884   7.467 -0.8109 -1.8071  0.5459
  130OSM   C12S13997   1.155   6.839   7.621 -0.1261 -0.1753  0.3034
  130OSM   H12S13998   1.119   6.735   7.607 -1.7275  0.4422 -0.3811
  130OSM   H12T13999   1.069   6.906   7.646  0.1869  0.5718 -0.5712
  130OSM   C13S14000   1.268   6.839   7.723  0.2702  0.6223 -0.1324
  130OSM   H13S14001   1.317   6.938   7.730  2.3681 -0.4956  4.1014
  130OSM   H13T14002   1.339   6.759   7.691 -1.5944 -0.6378 -1.3402
  130OSM   C14S14003   1.207   6.832   7.872 -0.0917  0.3258  0.4113
  130OSM   H14S14004   1.115   6.770   7.868 -1.3626  2.1675 -0.2046
  130OSM   H14T14005   1.157   6.927   7.898 -0.4980 -0.7379  3.9839
  130OSM   C15S14006   1.330   6.798   7.962 -0.0640  0.1944 -0.2102
  130OSM   H15S14007   1.416   6.855   7.919  1.6744 -2.1827 -0.0644
  130OSM   H15T14008   1.355   6.691   7.949 -3.2275 -0.7165  0.5119
  130OSM   C16S14009   1.309   6.825   8.109 -0.0652  0.1246  0.1197
  130OSM   H16S14010   1.313   6.934   8.127  2.6109 -0.1331  1.4879
  130OSM   H16T14011   1.395   6.790   8.169 -0.6113  0.2564  0.9941
  130OSM   C17S14012   1.187   6.749   8.173  0.0431 -0.1836 -0.0398
  130OSM   H17S14013   1.200   6.641   8.151 -0.2022 -0.2273  0.0313
  130OSM   H17T14014   1.095   6.777   8.117 -0.8533 -0.0574  1.4537
  130OSM   C18S14015   1.173   6.776   8.322 -0.2604 -0.5735 -0.2423
  130OSM   H18S14016   1.116   6.871   8.332 -1.5624 -1.4517  1.3003
  130OSM   H18T14017   1.269   6.797   8.372  0.9876 -1.8116 -1.9987
  130OSM   H18U14018   1.134   6.692   8.385 -0.4506 -1.8113 -1.9194
  130OSM    C1F14019   1.142   7.301   6.601 -0.3850  0.0871  0.0462
  130OSM     OF14020   1.039   7.318   6.541 -0.1300 -0.0339 -0.1063
  130OSM    C2F14021   1.193   7.410   6.687  0.0028 -0.3174  0.0041
  130OSM    H2F14022   1.218   7.494   6.619 -1.0983  1.4703  1.7177
  130OSM    H2G14023   1.295   7.381   6.722 -0.4179 -3.2348 -0.9091
  130OSM    C3F14024   1.107   7.467   6.799  0.0697  0.0373  0.3526
  130OSM    H3F14025   1.128   7.409   6.891  0.3888 -0.1700  0.1498
  130OSM    H3G14026   0.999   7.458   6.774  0.4652 -2.3659 -0.7480
  130OSM    C4F14027   1.133   7.617   6.833  0.4264  0.2591  0.0684
  130OSM    H4F14028   1.052   7.656   6.899 -2.2199 -1.0310 -2.2099
  130OSM    H4G14029   1.133   7.668   6.734  2.7481 -1.8794 -1.1429
  130OSM    C5F14030   1.271   7.640   6.901  0.0952 -0.1377  0.8015
  130OSM    H5F14031   1.300   7.746   6.883 -0.5282 -0.1565 -0.4365
  130OSM    H5G14032   1.341   7.569   6.851 -2.1727 -3.0832  1.5041
  130OSM    C6F14033   1.266   7.609   7.048 -0.0117 -0.5632  0.2168
  130OSM    H6F14034   1.239   7.502   7.065  0.9764 -0.5753  1.9770
  130OSM    H6G14035   1.195   7.669   7.108 -1.0995 -1.5229 -0.0685
  130OSM    C7F14036   1.401   7.638   7.109  0.3422  0.1725  0.4265
  130OSM    H7F14037   1.440   7.733   7.067  0.6040  0.2415  0.8165
  130OSM    H7G14038   1.475   7.561   7.076  1.5071  2.5887 -3.2889
  130OSM    C8F14039   1.404   7.665   7.267 -0.4724  0.0603  0.0155
  130OSM    H8F14040   1.329   7.747   7.271 -0.5780  0.0545 -1.3524
  130OSM    H8G14041   1.508   7.701   7.283 -0.0499 -0.6896 -0.9278
  130OSM    C9F14042   1.356   7.550   7.355 -0.1435  0.3311  0.4767
  130OSM    H9F14043   1.333   7.451   7.313  1.1786  0.3638 -0.3801
  130OSM   C10F14044   1.347   7.558   7.489  0.1484  0.4164 -0.5196
  130OSM   H10F14045   1.310   7.475   7.551  1.3231 -0.1367 -0.5390
  130OSM   C11F14046   1.404   7.672   7.569 -0.4793  0.1904 -0.3228
  130OSM   H11F14047   1.330   7.755   7.565 -0.4983  0.1666 -0.4709
  130OSM   H11G14048   1.503   7.714   7.540 -0.1203  0.3934  1.1146
  130OSM   C12F14049   1.440   7.635   7.720  0.3235 -0.5369  0.1330
  130OSM   H12F14050   1.475   7.726   7.773  1.0228  1.0488 -2.8066
  130OSM   H12G14051   1.528   7.567   7.723  1.7773  1.2862  2.7340
  130OSM   C13F14052   1.322   7.577   7.799  0.3848  0.4908  0.1938
  130OSM   H13F14053   1.298   7.487   7.739  0.5300  1.8100 -1.9860
  130OSM   H13G14054   1.236   7.648   7.791  2.3483  2.9407 -0.5997
  130OSM   C14F14055   1.344   7.562   7.945 -0.5870 -0.2140 -0.7721
  130OSM   H14F14056   1.447   7.525   7.965 -0.8193 -0.5730 -0.2271
  130OSM   H14G14057   1.271   7.487   7.984 -1.6892  1.2523  0.0600
  130OSM   C15F14058   1.314   7.690   8.026  0.0307  0.2458  1.0607
  130OSM   H15F14059   1.204   7.699   8.039  0.1820 -0.1004  2.6779
  130OSM   H15G14060   1.367   7.772   7.972  0.0323  0.1423  0.9035
  130OSM   C16F14061   1.371   7.694   8.168 -0.0679  0.4047 -0.2314
  130OSM   H16F14062   1.361   7.800   8.198  0.4238  0.1913  0.7320
  130OSM   H16G14063   1.482   7.681   8.169  0.0161  1.0983  0.7242
  130OSM   C17F14064   1.298   7.615   8.272  0.1639 -0.1190 -0.0016
  130OSM   H17F14065   1.250   7.520   8.240 -0.0912 -0.1968  0.5987
  130OSM   H17G14066   1.203   7.666   8.299 -0.6233 -1.9915  0.9412
  130OSM   C18F14067   1.382   7.601   8.396 -0.2526  0.5580  0.1564
  130OSM   H18F14068   1.419   7.698   8.435  1.8392 -0.0067 -0.3158
  130OSM   H18G14069   1.463   7.529   8.371  0.3696  1.6261 -0.9868
  130OSM   H18H14070   1.316   7.548   8.469 -1.2706 -1.1642 -1.8992
  131OSM      N14071   4.917   3.194   5.926  0.3049  0.6119  0.3149
  131OSM    C1514072   5.069   3.202   5.949 -0.6456 -0.1735 -0.6123
  131OSM   H15A14073   5.106   3.101   5.963 -1.6993 -0.4375  0.4029
  131OSM   H15B14074   5.096   3.271   6.028 -0.5167 -0.8756 -0.0313
  131OSM   H15C14075   5.117   3.238   5.859 -1.3577  0.9033 -0.5792
  131OSM    C1414076   4.851   3.139   6.044 -0.2242 -0.1327 -0.0334
  131OSM   H14A14077   4.893   3.045   6.076  0.4534  0.3319  0.4856
  131OSM   H14B14078   4.745   3.122   6.040 -0.1640 -0.4750 -0.1947
  131OSM   H14C14079   4.878   3.206   6.125  0.2732 -0.3635 -0.0040
  131OSM    C1314080   4.869   3.333   5.902 -0.3180  0.5609  0.5143
  131OSM   H13A14081   4.765   3.348   5.877  0.2374  0.5153 -2.1818
  131OSM   H13B14082   4.927   3.372   5.819 -0.2638 -0.0243  0.2689
  131OSM   H13C14083   4.895   3.392   5.988  2.6563  1.0833 -0.6117
  131OSM    C1214084   4.894   3.107   5.803  1.2663  0.0273  0.0196
  131OSM   H12A14085   4.945   3.145   5.716 -1.7715 -1.4640 -2.6210
  131OSM   H12B14086   4.790   3.112   5.776  1.7148  1.2184 -1.6696
  131OSM    C1114087   4.928   2.957   5.826  0.1680 -0.2265 -0.5303
  131OSM   H11A14088   4.905   2.897   5.735 -5.5550 -0.2910  0.5655
  131OSM   H11B14089   4.849   2.922   5.896  0.2914  1.3763  0.4555
  131OSM      P14090   5.094   2.831   5.989  0.3169 -0.0209  0.2640
  131OSM    O1314091   5.063   2.697   5.934 -0.4273 -0.6479 -0.0579
  131OSM    O1414092   5.228   2.860   6.039 -0.0005 -0.0862 -0.4497
  131OSM    O1114093   4.990   2.872   6.103 -0.8477  0.0088  0.0161
  131OSM    O1214094   5.065   2.933   5.868  0.1760 -0.3829 -0.2013
  131OSM    C1S14095   4.939   2.780   6.202  0.1739 -0.2892 -0.0334
  131OSM    H1S14096   4.974   2.676   6.183  3.7900  0.7421  0.2917
  131OSM    H1T14097   4.828   2.783   6.204  0.1652  0.5537 -1.0033
  131OSM     NF14098   4.933   2.705   6.436 -0.6709  0.1791  0.0194
  131OSM    HNF14099   4.859   2.737   6.493 -0.8098 -3.2515  2.0749
  131OSM    C2S14100   4.991   2.802   6.343  0.2199 -0.1893 -0.8496
  131OSM    H2S14101   5.101   2.785   6.336  0.4296  1.0729 -0.7402
  131OSM    C3S14102   4.965   2.950   6.394 -0.0199 -0.8825 -0.2854
  131OSM    H3S14103   4.856   2.970   6.382 -0.2294 -1.1230  1.0212
  131OSM     O314104   5.038   3.046   6.321 -0.6526 -0.5959  0.0610
  131OSM    HO314105   5.055   2.998   6.239 -0.3467 -0.0955 -0.1702
  131OSM    C4S14106   4.990   2.973   6.545  0.0662  0.1430  0.6068
  131OSM    H4S14107   5.093   2.991   6.579 -0.1174 -1.2192  1.9501
  131OSM    C5S14108   4.891   2.981   6.638 -0.6429  0.3660  0.3118
  131OSM    H5S14109   4.788   2.968   6.603 -0.7904  0.6342  0.6468
  131OSM    C6S14110   4.907   2.994   6.779  0.0129  0.7551  0.4363
  131OSM    H6S14111   4.844   3.080   6.813 -0.0850  0.6427  0.5411
  131OSM    H6T14112   5.012   3.018   6.807  0.1251  0.8400 -0.0378
  131OSM    C7S14113   4.886   2.855   6.845  0.2746  0.0403 -0.0359
  131OSM    H7S14114   4.965   2.787   6.807  1.6904  1.3182  0.4931
  131OSM    H7T14115   4.778   2.829   6.834 -0.2034  0.5678  2.6197
  131OSM    C8S14116   4.914   2.856   7.000  0.1254 -0.0729  0.7028
  131OSM    H8S14117   4.840   2.921   7.051 -0.2458  1.3337 -1.4901
  131OSM    H8T14118   5.010   2.909   7.017 -0.4476  1.0602  0.4669
  131OSM    C9S14119   4.901   2.718   7.070 -0.7221 -0.0962 -0.3254
  131OSM    H9S14120   4.965   2.644   7.018  0.1646  1.0735 -0.9592
  131OSM    H9T14121   4.795   2.688   7.083 -0.4389 -1.1235 -0.2856
  131OSM   C10S14122   4.970   2.733   7.209 -0.4912 -0.0220 -0.7516
  131OSM   H10S14123   5.071   2.777   7.192 -0.3026  0.1223  0.6153
  131OSM   H10T14124   4.980   2.634   7.259  0.2431  0.6840  0.5783
  131OSM   C11S14125   4.880   2.808   7.307  0.2236 -0.2042 -0.0663
  131OSM   H11S14126   4.777   2.764   7.306  0.9482 -1.9770 -0.2064
  131OSM   H11T14127   4.853   2.906   7.263  1.1166 -0.2477 -0.7425
  131OSM   C12S14128   4.925   2.821   7.453 -0.3676  0.2136  0.3304
  131OSM   H12S14129   4.834   2.853   7.507 -0.0331 -2.2701  2.6040
  131OSM   H12T14130   5.005   2.898   7.455 -0.8372  0.8738 -2.2172
  131OSM   C13S14131   4.983   2.696   7.525  0.9522  0.2068 -0.3428
  131OSM   H13S14132   5.089   2.674   7.497  1.0728 -0.0827  0.3174
  131OSM   H13T14133   4.926   2.608   7.488  3.0401 -0.4945 -2.0817
  131OSM   C14S14134   4.975   2.716   7.674 -0.3294  0.3297 -0.8351
  131OSM   H14S14135   4.870   2.735   7.705  0.0754  0.9887  0.1723
  131OSM   H14T14136   5.033   2.809   7.691 -1.3514  0.9573 -0.7045
  131OSM   C15S14137   5.019   2.599   7.761 -0.2445 -0.2071 -0.0362
  131OSM   H15S14138   5.127   2.588   7.740 -0.6308 -1.1961 -1.6537
  131OSM   H15T14139   4.981   2.501   7.726  2.4617 -0.5506 -2.4599
  131OSM   C16S14140   5.004   2.617   7.910  0.3857 -0.0409 -0.1487
  131OSM   H16S14141   4.896   2.612   7.937  0.3295 -0.4454 -0.4247
  131OSM   H16T14142   5.041   2.720   7.928  0.9941 -0.3289  0.2762
  131OSM   C17S14143   5.096   2.524   7.994 -0.7023 -0.6148  0.3234
  131OSM   H17S14144   5.199   2.538   7.955 -0.7317  1.9064  0.9673
  131OSM   H17T14145   5.059   2.422   7.974 -0.4655 -0.4221 -1.2285
  131OSM   C18S14146   5.107   2.560   8.140 -0.4787  0.5265 -0.0818
  131OSM   H18S14147   5.011   2.553   8.197  0.2836 -2.3181  0.9976
  131OSM   H18T14148   5.155   2.659   8.157  1.8309 -1.0298  3.8056
  131OSM   H18U14149   5.173   2.488   8.193 -0.4736  0.6865  0.1306
  131OSM    C1F14150   4.956   2.576   6.440  0.0425 -0.0882 -0.2065
  131OSM     OF14151   5.022   2.518   6.360  0.2996 -0.1464  0.1763
  131OSM    C2F14152   4.870   2.488   6.539 -0.1382  0.9684  0.2269
  131OSM    H2F14153   4.768   2.475   6.495  0.3958 -1.1985 -0.5204
  131OSM    H2G14154   4.870   2.546   6.633  1.7588 -0.2588  1.0355
  131OSM    C3F14155   4.935   2.347   6.573  0.4914 -0.0272  0.3093
  131OSM    H3F14156   5.029   2.383   6.621  0.4061  0.3967  0.1603
  131OSM    H3G14157   4.957   2.274   6.492  1.0764  1.3188 -0.7722
  131OSM    C4F14158   4.854   2.266   6.687  0.1293 -0.8467 -0.3642
  131OSM    H4F14159   4.908   2.170   6.703  1.3789 -0.0957  0.0597
  131OSM    H4G14160   4.748   2.255   6.656 -0.0114  1.6666 -0.9613
  131OSM    C5F14161   4.832   2.343   6.817  0.6559 -0.3411 -0.3788
  131OSM    H5F14162   4.770   2.434   6.805  0.8659 -0.3440 -1.6898
  131OSM    H5G14163   4.931   2.365   6.863  0.7368 -1.5394  0.0351
  131OSM    C6F14164   4.734   2.254   6.908 -0.4290 -0.1816  0.3096
  131OSM    H6F14165   4.788   2.158   6.925 -0.3886 -0.5627 -1.7115
  131OSM    H6G14166   4.641   2.236   6.851  0.5727  1.4619 -2.0065
  131OSM    C7F14167   4.694   2.323   7.039  0.3977 -0.0409 -0.2201
  131OSM    H7F14168   4.599   2.279   7.077 -0.2687 -0.2641 -2.0518
  131OSM    H7G14169   4.675   2.431   7.020  1.0229 -0.1457 -1.4718
  131OSM    C8F14170   4.815   2.311   7.134 -0.5038  0.5586  0.3884
  131OSM    H8F14171   4.893   2.361   7.072  0.1899  2.2077  2.4805
  131OSM    H8G14172   4.826   2.201   7.145 -0.4842  0.6832  1.7428
  131OSM    C9F14173   4.790   2.385   7.266 -0.3026  0.2793  0.0546
  131OSM    H9F14174   4.742   2.483   7.257 -1.8179 -0.4428  0.0227
  131OSM   C10F14175   4.838   2.358   7.391  0.2465  0.3466 -0.1161
  131OSM   H10F14176   4.828   2.423   7.480 -0.2448 -2.1826  1.8008
  131OSM   C11F14177   4.927   2.239   7.406 -0.1929  0.1438 -0.9904
  131OSM   H11F14178   5.026   2.249   7.355  0.1324 -1.1317 -0.6329
  131OSM   H11G14179   4.892   2.144   7.363 -0.0503  0.0731 -0.9523
  131OSM   C12F14180   4.962   2.218   7.552 -0.6453 -0.4815 -0.3525
  131OSM   H12F14181   4.872   2.210   7.616 -0.5448  0.1566 -0.1270
  131OSM   H12G14182   5.020   2.309   7.579  3.7740 -2.4953 -2.1706
  131OSM   C13F14183   5.046   2.094   7.570 -0.1987  0.6979  0.3154
  131OSM   H13F14184   5.130   2.096   7.498 -0.5897 -2.3645 -0.3271
  131OSM   H13G14185   4.995   2.001   7.537  0.8789  0.2936 -0.2601
  131OSM   C14F14186   5.085   2.073   7.725  0.4551 -0.9037  0.8299
  131OSM   H14F14187   4.993   2.080   7.787 -0.4521  1.0104 -0.6292
  131OSM   H14G14188   5.142   2.164   7.754 -2.1008  2.3220 -3.1971
  131OSM   C15F14189   5.163   1.947   7.748 -0.7718  0.1006  0.4665
  131OSM   H15F14190   5.253   1.948   7.683  0.2680 -0.7582  1.8564
  131OSM   H15G14191   5.100   1.864   7.708  1.6238 -2.0473  0.9152
  131OSM   C16F14192   5.200   1.925   7.895 -0.2446 -0.1860  0.8670
  131OSM   H16F14193   5.123   1.985   7.949 -0.5843  1.1907 -1.0551
  131OSM   H16G14194   5.288   1.988   7.922  0.1088  0.4790 -1.5861
  131OSM   C17F14195   5.208   1.785   7.941 -0.3515 -0.3350  0.7564
  131OSM   H17F14196   5.287   1.744   7.875 -3.1544 -0.5151 -2.7864
  131OSM   H17G14197   5.113   1.730   7.924 -0.6725  0.5520 -0.4932
  131OSM   C18F14198   5.255   1.773   8.087 -1.0927  0.1061  0.2642
  131OSM   H18F14199   5.349   1.830   8.102 -1.8471  0.8053  2.7395
  131OSM   H18G14200   5.280   1.667   8.109  2.2808  0.2718 -1.8786
  131OSM   H18H14201   5.182   1.817   8.158 -0.5325 -2.2707  2.4240
  132OSM      N14202   1.399   3.897   5.918  0.4651  0.0419 -0.0945
  132OSM    C1514203   1.528   3.967   5.951  0.3644  0.6232 -0.5745
  132OSM   H15A14204   1.555   4.038   5.874 -2.6307  1.0238 -1.3615
  132OSM   H15B14205   1.600   3.887   5.960 -0.1660  0.2224  0.2044
  132OSM   H15C14206   1.516   4.027   6.039 -1.8590  0.9516 -1.0478
  132OSM    C1414207   1.309   4.003   5.876  0.6119 -0.1058 -0.1401
  132OSM   H14A14208   1.207   3.968   5.864  1.0152 -0.9455 -1.3587
  132OSM   H14B14209   1.332   4.061   5.788 -1.1710  1.4495  0.3568
  132OSM   H14C14210   1.295   4.080   5.950 -1.8358  0.9910 -1.6061
  132OSM    C1314211   1.410   3.805   5.799 -0.5085  0.3691 -0.1847
  132OSM   H13A14212   1.483   3.728   5.819 -1.0632 -0.2451 -0.4998
  132OSM   H13B14213   1.466   3.854   5.720  2.1007 -0.0276  1.3119
  132OSM   H13C14214   1.312   3.792   5.755  0.0782 -1.6083 -1.0364
  132OSM    C1214215   1.350   3.822   6.040  0.0815  0.1138 -0.0710
  132OSM   H12A14216   1.337   3.888   6.125  0.4147  0.0519  0.0281
  132OSM   H12B14217   1.432   3.758   6.069  1.9176  1.2603 -2.4614
  132OSM    C1114218   1.221   3.741   6.030 -0.2934  0.4621  0.1488
  132OSM   H11A14219   1.211   3.675   6.119 -3.0610  0.9702  0.3047
  132OSM   H11B14220   1.223   3.679   5.938  0.0930  2.8236 -1.5284
  132OSM      P14221   0.993   3.820   6.137 -0.3434  0.2692  0.5017
  132OSM    O1314222   0.904   3.928   6.088 -0.6603 -0.0199 -0.6956
  132OSM    O1414223   0.941   3.678   6.141 -0.2923  0.5018 -0.6854
  132OSM    O1114224   1.082   3.858   6.264  0.1874  0.3885  0.0607
  132OSM    O1214225   1.108   3.823   6.025  0.7403  0.3221  0.6963
  132OSM    C1S14226   1.018   3.853   6.396 -0.2677  0.1499 -0.1548
  132OSM    H1S14227   1.009   3.746   6.424  4.4561 -1.0028 -2.0646
  132OSM    H1T14228   0.918   3.900   6.396 -0.2749  0.4420  3.7623
  132OSM     NF14229   1.092   3.924   6.634  0.6591  0.4528  0.1882
  132OSM    HNF14230   1.037   3.988   6.687 -1.5487 -2.8163  2.2174
  132OSM    C2S14231   1.109   3.943   6.493 -0.3928  0.1975  0.0212
  132OSM    H2S14232   1.216   3.914   6.479 -0.2904  1.2387 -1.5768
  132OSM    C3S14233   1.097   4.095   6.455 -0.3618 -0.3694  0.3046
  132OSM    H3S14234   0.993   4.130   6.472 -1.1929 -2.1216 -0.9017
  132OSM     O314235   1.135   4.108   6.317 -0.3211 -0.2776 -0.0585
  132OSM    HO314236   1.121   4.021   6.281 -2.2021  0.9545 -2.6511
  132OSM    C4S14237   1.184   4.178   6.535 -0.3617  0.0988 -0.7056
  132OSM    H4S14238   1.279   4.134   6.568  0.9998  3.7033  0.6547
  132OSM    C5S14239   1.142   4.291   6.594 -0.0948 -0.0369  0.1436
  132OSM    H5S14240   1.034   4.315   6.585  0.1762  1.1109 -0.2241
  132OSM    C6S14241   1.201   4.381   6.697 -0.0942 -0.6562 -0.2087
  132OSM    H6S14242   1.169   4.486   6.682 -1.5423 -1.0523 -0.0471
  132OSM    H6T14243   1.311   4.388   6.684 -0.1033 -0.8618 -0.3949
  132OSM    C7S14244   1.172   4.337   6.838 -0.3528  0.0831  0.0350
  132OSM    H7S14245   1.215   4.236   6.855 -2.5093 -0.9796 -0.3725
  132OSM    H7T14246   1.063   4.336   6.860 -0.1728 -1.0542  0.9678
  132OSM    C8S14247   1.230   4.448   6.929 -0.5578  0.5291  0.8181
  132OSM    H8S14248   1.189   4.548   6.904 -2.7367 -0.7861 -1.3419
  132OSM    H8T14249   1.340   4.446   6.915 -0.1921 -1.6252  3.3599
  132OSM    C9S14250   1.200   4.419   7.070 -0.1308 -0.3054  0.1767
  132OSM    H9S14251   1.220   4.310   7.083 -0.5736 -0.4227 -0.0891
  132OSM    H9T14252   1.090   4.427   7.086 -0.4401  0.3506 -1.9677
  132OSM   C10S14253   1.261   4.492   7.185 -0.1951 -0.0973  0.1851
  132OSM   H10S14254   1.259   4.602   7.167 -1.1690 -0.2575 -0.7609
  132OSM   H10T14255   1.370   4.470   7.190  0.3734  2.2118 -0.6962
  132OSM   C11S14256   1.203   4.437   7.319 -0.1926  0.2672  0.2858
  132OSM   H11S14257   1.222   4.327   7.329 -2.4494 -0.1367  0.5216
  132OSM   H11T14258   1.094   4.455   7.322  0.1219  2.9617 -1.4683
  132OSM   C12S14259   1.256   4.507   7.440 -0.0134 -0.9757  0.3453
  132OSM   H12S14260   1.219   4.612   7.437  0.1624 -0.9372 -1.8319
  132OSM   H12T14261   1.367   4.509   7.428  0.2597 -1.6104  2.3113
  132OSM   C13S14262   1.220   4.435   7.570 -0.7113 -0.5737  0.0743
  132OSM   H13S14263   1.278   4.340   7.570  3.4274  1.6970  1.6359
  132OSM   H13T14264   1.110   4.419   7.570 -1.0911  1.6635 -0.8715
  132OSM   C14S14265   1.257   4.504   7.695  0.8861 -0.1741  0.6533
  132OSM   H14S14266   1.229   4.611   7.685 -0.2547 -0.3237  2.0267
  132OSM   H14T14267   1.368   4.506   7.696  1.0093  0.6450 -2.4567
  132OSM   C15S14268   1.192   4.456   7.823  0.0093  0.5264 -0.9474
  132OSM   H15S14269   1.198   4.346   7.836 -0.0219  0.4606 -1.4509
  132OSM   H15T14270   1.085   4.487   7.822 -0.7517 -1.8271  0.4685
  132OSM   C16S14271   1.243   4.522   7.949  0.5444  0.2847  0.0366
  132OSM   H16S14272   1.249   4.632   7.934 -1.9120  0.8628  2.4717
  132OSM   H16T14273   1.341   4.470   7.952 -0.9138 -2.7490 -1.1510
  132OSM   C17S14274   1.159   4.483   8.079 -0.1797  0.0192 -0.3345
  132OSM   H17S14275   1.214   4.521   8.167  1.7276  2.2538 -2.3888
  132OSM   H17T14276   1.177   4.374   8.090  2.1338  0.4824  1.1453
  132OSM   C18S14277   1.012   4.513   8.078 -0.0723  0.4979  0.6240
  132OSM   H18S14278   0.960   4.456   7.998  2.1496  2.0772 -2.1274
  132OSM   H18T14279   0.986   4.619   8.059 -1.0319  0.1127 -0.3901
  132OSM   H18U14280   0.964   4.471   8.169 -2.4399  1.3488 -0.1691
  132OSM    C1F14281   1.122   3.801   6.682 -0.6046  0.1075 -0.1943
  132OSM     OF14282   1.186   3.720   6.616 -0.6333 -0.4169 -0.5814
  132OSM    C2F14283   1.081   3.771   6.827 -0.5011 -0.1376  0.0730
  132OSM    H2F14284   0.985   3.716   6.837 -0.6774 -0.1299 -1.3232
  132OSM    H2G14285   1.068   3.867   6.881 -2.4313  0.1092 -0.7358
  132OSM    C3F14286   1.192   3.688   6.889 -0.4927 -0.7248 -0.9234
  132OSM    H3F14287   1.282   3.753   6.898 -1.4389  0.3966  1.2720
  132OSM    H3G14288   1.224   3.596   6.835  2.7629  0.2542 -0.8813
  132OSM    C4F14289   1.163   3.642   7.032  0.3454 -0.4541 -0.0872
  132OSM    H4F14290   1.253   3.632   7.096 -0.6900 -2.2704  1.1728
  132OSM    H4G14291   1.130   3.537   7.015 -2.8505 -0.0384  2.5117
  132OSM    C5F14292   1.062   3.730   7.114 -0.3009  0.0156  0.4714
  132OSM    H5F14293   0.975   3.740   7.044  0.6216 -1.1582 -0.9011
  132OSM    H5G14294   1.118   3.823   7.136  1.5504 -1.0877  0.5644
  132OSM    C6F14295   1.000   3.661   7.233 -0.0094  0.1431  0.2053
  132OSM    H6F14296   0.959   3.563   7.200  1.7751  0.1184 -2.2182
  132OSM    H6G14297   0.917   3.724   7.273  0.6708  0.9133  0.4491
  132OSM    C7F14298   1.098   3.637   7.348  0.7989  0.2616 -0.8631
  132OSM    H7F14299   1.164   3.723   7.371 -0.0854  1.5940 -3.0073
  132OSM    H7G14300   1.166   3.553   7.321  2.2033  1.2951 -0.6234
  132OSM    C8F14301   1.022   3.583   7.466  0.8320 -0.9019  0.2494
  132OSM    H8F14302   1.078   3.496   7.506  2.8299  1.1971  2.3153
  132OSM    H8G14303   0.919   3.565   7.427  1.2757  0.4702 -1.6834
  132OSM    C9F14304   1.003   3.688   7.573 -0.1805  0.0705 -0.2342
  132OSM    H9F14305   0.998   3.791   7.534  0.8758 -0.3288 -1.5137
  132OSM   C10F14306   1.011   3.664   7.704 -0.6991  0.2221 -0.2446
  132OSM   H10F14307   0.985   3.739   7.780 -0.2434 -0.2965  0.4358
  132OSM   C11F14308   1.060   3.533   7.768  0.5717  0.0247  0.0633
  132OSM   H11F14309   1.120   3.470   7.699 -1.2648 -0.5826 -1.0681
  132OSM   H11G14310   0.968   3.483   7.805  0.3936  0.4981  0.2682
  132OSM   C12F14311   1.143   3.567   7.892 -0.6908  0.8581 -0.3163
  132OSM   H12F14312   1.095   3.624   7.975  1.3685  1.7145  0.3587
  132OSM   H12G14313   1.226   3.637   7.867 -1.3975  1.5790 -0.7061
  132OSM   C13F14314   1.208   3.446   7.957  0.4739 -0.2360  0.1605
  132OSM   H13F14315   1.281   3.392   7.893 -0.8072 -2.7280  0.6762
  132OSM   H13G14316   1.131   3.370   7.981  1.6460 -1.2527  0.8250
  132OSM   C14F14317   1.280   3.460   8.098 -0.4884 -0.1340  0.0826
  132OSM   H14F14318   1.213   3.523   8.160  0.9307  0.6248  0.9164
  132OSM   H14G14319   1.377   3.513   8.086  0.7631 -1.6828  2.4487
  132OSM   C15F14320   1.292   3.321   8.174  0.4259 -0.2194  0.1365
  132OSM   H15F14321   1.343   3.253   8.103 -0.4163 -0.4775 -0.2315
  132OSM   H15G14322   1.196   3.274   8.201  1.2394 -1.7233  0.5180
  132OSM   C16F14323   1.375   3.332   8.301 -0.3666  0.0638 -0.2541
  132OSM   H16F14324   1.352   3.234   8.347  0.4637 -0.8177 -1.6458
  132OSM   H16G14325   1.331   3.417   8.358  0.3089 -0.0454  0.4427
  132OSM   C17F14326   1.526   3.358   8.288  0.1175  0.4872  0.2294
  132OSM   H17F14327   1.556   3.444   8.224  0.1212  1.6922  1.7990
  132OSM   H17G14328   1.562   3.263   8.243  0.8088  0.1840  1.3803
  132OSM   C18F14329   1.587   3.374   8.428 -0.3805  0.3232  0.4137
  132OSM   H18F14330   1.561   3.293   8.500  0.9140  0.8406  1.5016
  132OSM   H18G14331   1.554   3.474   8.463 -1.2778  0.1492  0.0724
  132OSM   H18H14332   1.698   3.374   8.415 -0.3913 -1.2875  0.0122
  133OSM      N14333   2.109   4.665   6.235 -0.1021 -0.1050 -0.2534
  133OSM    C1514334   2.233   4.717   6.284 -0.3336  0.1719 -0.8913
  133OSM   H15A14335   2.298   4.640   6.321 -1.3982 -0.1598  0.3392
  133OSM   H15B14336   2.227   4.804   6.347  2.4321 -0.7082  0.7353
  133OSM   H15C14337   2.289   4.757   6.200  1.2971  2.0693  0.9764
  133OSM    C1414338   2.030   4.776   6.167  0.6594 -0.2178 -0.3583
  133OSM   H14A14339   1.953   4.735   6.103  0.2261 -1.2748  0.7900
  133OSM   H14B14340   2.098   4.836   6.108  0.1965 -0.4810 -1.1696
  133OSM   H14C14341   1.984   4.844   6.237 -0.2602 -0.0277 -1.1215
  133OSM    C1314342   2.139   4.554   6.136 -0.1744  0.8450  0.0656
  133OSM   H13A14343   2.176   4.470   6.192 -0.5776  0.4053 -0.3272
  133OSM   H13B14344   2.216   4.588   6.068  0.4253 -0.9738 -0.2187
  133OSM   H13C14345   2.053   4.526   6.077 -0.1300 -0.3428  0.5357
  133OSM    C1214346   2.028   4.610   6.349 -0.7758 -0.4975 -0.9179
  133OSM   H12A14347   1.933   4.571   6.315 -0.5164 -2.1596  0.1105
  133OSM   H12B14348   2.013   4.699   6.408  2.5316 -0.5475  0.2008
  133OSM    C1114349   2.074   4.499   6.440 -0.2220  0.6582 -0.7200
  133OSM   H11A14350   2.005   4.506   6.527  0.4883  2.3400 -0.2525
  133OSM   H11B14351   2.180   4.508   6.470 -0.6115 -1.2835  1.4865
  133OSM      P14352   2.121   4.244   6.422 -0.2916  0.3124 -0.2243
  133OSM    O1314353   2.087   4.128   6.338 -0.0927  0.2665  0.0024
  133OSM    O1414354   2.262   4.268   6.456 -0.1938 -0.2893  0.0560
  133OSM    O1114355   2.045   4.233   6.558  0.5349  0.7180  0.4883
  133OSM    O1214356   2.052   4.375   6.366  0.0916  0.0303 -0.5412
  133OSM    C1S14357   1.902   4.208   6.562  0.2207 -0.6635 -1.4133
  133OSM    H1S14358   1.871   4.102   6.547 -2.3611 -0.7363  2.8114
  133OSM    H1T14359   1.842   4.268   6.490 -2.6198 -1.8091 -0.1454
  133OSM     NF14360   1.707   4.209   6.719 -0.0555  0.2897 -0.0000
  133OSM    HNF14361   1.658   4.294   6.700 -0.3056 -0.1576 -1.4910
  133OSM    C2S14362   1.848   4.232   6.708  0.2307 -0.7765 -0.1403
  133OSM    H2S14363   1.895   4.154   6.771 -1.1728 -2.8771 -1.5698
  133OSM    C3S14364   1.892   4.377   6.766  0.6816 -0.3058  0.0162
  133OSM    H3S14365   1.852   4.446   6.689 -2.2608 -1.7683  0.0944
  133OSM     O314366   2.036   4.400   6.778  0.5941 -0.3062  0.1952
  133OSM    HO314367   2.081   4.348   6.711 -0.3849  1.0161 -1.5729
  133OSM    C4S14368   1.823   4.404   6.901  0.9351  0.3071 -0.2443
  133OSM    H4S14369   1.731   4.464   6.897 -0.6391 -1.9305  0.4161
  133OSM    C5S14370   1.872   4.365   7.022 -0.2156 -0.4838  0.6557
  133OSM    H5S14371   1.975   4.327   7.022  0.4372  1.1981  1.7494
  133OSM    C6S14372   1.809   4.393   7.153 -0.5678 -0.2912  0.2592
  133OSM    H6S14373   1.790   4.500   7.178 -0.6928 -0.1368 -0.4764
  133OSM    H6T14374   1.870   4.347   7.233  0.6288 -0.3341 -0.6429
  133OSM    C7S14375   1.677   4.328   7.177  0.3475 -0.2324  0.1455
  133OSM    H7S14376   1.695   4.222   7.150 -0.4158 -1.0117  2.4807
  133OSM    H7T14377   1.605   4.362   7.099 -0.0912  0.2069  0.7349
  133OSM    C8S14378   1.614   4.336   7.315  0.1395  0.2623 -0.0778
  133OSM    H8S14379   1.510   4.298   7.322 -0.4312  1.6781 -0.5286
  133OSM    H8T14380   1.597   4.445   7.332  1.2761  0.5032 -0.4199
  133OSM    C9S14381   1.688   4.269   7.430 -0.3223 -0.4806 -0.4968
  133OSM    H9S14382   1.793   4.306   7.421 -1.1857  2.8717  1.4221
  133OSM    H9T14383   1.697   4.159   7.416  0.3738 -0.2041 -2.4988
  133OSM   C10S14384   1.643   4.303   7.570 -0.1649  0.2896  0.6975
  133OSM   H10S14385   1.547   4.254   7.598  0.3928  1.1532  4.6641
  133OSM   H10T14386   1.642   4.414   7.580  0.2391  0.5001 -1.2035
  133OSM   C11S14387   1.739   4.241   7.678 -1.0665  1.0426  1.0288
  133OSM   H11S14388   1.837   4.281   7.646 -1.9675  0.5893 -2.7835
  133OSM   H11T14389   1.736   4.131   7.663  0.8517  1.2872 -2.0105
  133OSM   C12S14390   1.720   4.295   7.817 -1.1012 -0.1924  0.7231
  133OSM   H12S14391   1.745   4.403   7.817 -0.8978 -0.2346 -0.2891
  133OSM   H12T14392   1.790   4.241   7.884  0.1895  0.8595  0.2535
  133OSM   C13S14393   1.579   4.272   7.867  0.0011  0.4033 -0.2615
  133OSM   H13S14394   1.542   4.180   7.817  1.0724  0.0987 -0.5194
  133OSM   H13T14395   1.511   4.353   7.831 -1.1527 -0.9326 -1.1747
  133OSM   C14S14396   1.573   4.252   8.022  0.2734 -0.2501 -0.5018
  133OSM   H14S14397   1.467   4.260   8.053  0.0054  0.1100 -1.4668
  133OSM   H14T14398   1.636   4.324   8.078  0.0728 -0.3400 -0.1594
  133OSM   C15S14399   1.614   4.111   8.063 -0.3160  0.2929  0.0854
  133OSM   H15S14400   1.718   4.082   8.035 -0.7331  0.6089 -1.8862
  133OSM   H15T14401   1.542   4.056   8.000 -0.9150 -0.4646  1.3900
  133OSM   C16S14402   1.576   4.079   8.208  0.3681  0.0215  0.2143
  133OSM   H16S14403   1.466   4.093   8.211  0.3534  0.0263 -0.2798
  133OSM   H16T14404   1.623   4.140   8.288 -0.8005  1.1042  0.0879
  133OSM   C17S14405   1.618   3.935   8.251  0.3495  0.5915 -0.6546
  133OSM   H17S14406   1.595   3.906   8.356  1.6438  0.0526 -0.5033
  133OSM   H17T14407   1.728   3.927   8.247  0.3251 -0.5990  0.5473
  133OSM   C18S14408   1.558   3.833   8.157 -1.4325  1.0463 -0.2580
  133OSM   H18S14409   1.449   3.854   8.150 -1.9388 -0.8903  1.0368
  133OSM   H18T14410   1.570   3.727   8.187  0.8953  1.1146 -0.7318
  133OSM   H18U14411   1.602   3.842   8.056  1.0471 -0.5012  0.5882
  133OSM    C1F14412   1.645   4.089   6.712 -0.5743  0.2662  0.7768
  133OSM     OF14413   1.713   3.993   6.692  0.0701 -0.3077 -0.0760
  133OSM    C2F14414   1.496   4.077   6.710 -0.2246 -0.0253  0.1440
  133OSM    H2F14415   1.478   4.016   6.619 -1.5302  0.0699  0.3171
  133OSM    H2G14416   1.449   4.178   6.713 -1.6708 -0.6897  0.9349
  133OSM    C3F14417   1.467   3.981   6.830  0.0419 -0.1048  0.2145
  133OSM    H3F14418   1.516   3.883   6.814  1.8145  0.8908 -0.6973
  133OSM    H3G14419   1.356   3.971   6.820 -0.0451 -0.9900  1.7294
  133OSM    C4F14420   1.500   4.035   6.973 -0.0092  0.4195 -0.6302
  133OSM    H4F14421   1.453   4.135   6.974 -1.8805 -0.4139 -1.0379
  133OSM    H4G14422   1.608   4.057   6.989  0.5348 -2.2108 -0.0631
  133OSM    C5F14423   1.436   3.956   7.088  0.9067 -0.5495  0.1484
  133OSM    H5F14424   1.496   3.871   7.125  0.5117  0.2448  2.8101
  133OSM    H5G14425   1.341   3.914   7.049  2.6565 -1.4169 -3.7268
  133OSM    C6F14426   1.397   4.049   7.199  0.0553  0.5022  0.6633
  133OSM    H6F14427   1.324   4.127   7.167 -0.8836 -1.2577 -1.7319
  133OSM    H6G14428   1.487   4.101   7.238 -1.2181  2.4388  1.2007
  133OSM    C7F14429   1.340   3.979   7.325  0.0391  0.2010  0.6847
  133OSM    H7F14430   1.414   3.898   7.339  2.9071  2.2469 -1.4650
  133OSM    H7G14431   1.242   3.938   7.291 -0.0823  0.7887  0.3122
  133OSM    C8F14432   1.313   4.063   7.451 -1.2635 -0.4857  0.2084
  133OSM    H8F14433   1.246   4.145   7.416  1.4171  1.8251  0.1598
  133OSM    H8G14434   1.404   4.125   7.465 -0.6796 -1.6078  1.5893
  133OSM    C9F14435   1.268   3.990   7.577  0.1865  0.5187  0.8060
  133OSM    H9F14436   1.168   4.012   7.618 -0.5048 -2.2208  0.8414
  133OSM   C10F14437   1.353   3.934   7.665 -0.2193 -0.7178 -0.4798
  133OSM   H10F14438   1.313   3.902   7.763  1.8374 -0.1708  0.6066
  133OSM   C11F14439   1.504   3.908   7.659  0.0513  0.1942 -0.7466
  133OSM   H11F14440   1.551   3.997   7.706 -1.9639  0.6889  0.4822
  133OSM   H11G14441   1.547   3.900   7.557 -0.1909 -1.3925 -0.7556
  133OSM   C12F14442   1.539   3.772   7.733  0.1802 -1.1106 -0.0314
  133OSM   H12F14443   1.506   3.770   7.839 -2.1205 -1.8584 -0.7018
  133OSM   H12G14444   1.650   3.768   7.730  0.4109  2.3868  0.3869
  133OSM   C13F14445   1.487   3.649   7.661  0.3574  0.0248  0.5895
  133OSM   H13F14446   1.485   3.663   7.551 -2.3805  2.2203  0.8312
  133OSM   H13G14447   1.381   3.653   7.694  0.0816 -2.2119  0.1809
  133OSM   C14F14448   1.560   3.527   7.695  0.0112 -0.3660 -0.0243
  133OSM   H14F14449   1.552   3.518   7.805 -0.3310 -0.0968 -0.0245
  133OSM   H14G14450   1.664   3.544   7.661  1.2094  1.0699  3.8370
  133OSM   C15F14451   1.493   3.401   7.640  0.4254  0.3547  0.2547
  133OSM   H15F14452   1.447   3.415   7.539 -1.2462 -0.2742  0.8856
  133OSM   H15G14453   1.417   3.374   7.716  0.3280 -0.1911 -0.0317
  133OSM   C16F14454   1.590   3.285   7.617  0.5767  0.2025 -0.1165
  133OSM   H16F14455   1.651   3.257   7.706  0.6980  2.3959  0.5336
  133OSM   H16G14456   1.664   3.317   7.541  0.4619  0.0044 -0.3110
  133OSM   C17F14457   1.518   3.161   7.554  0.1317 -0.1888  0.2929
  133OSM   H17F14458   1.466   3.203   7.466 -2.3667 -2.7626  0.4059
  133OSM   H17G14459   1.435   3.129   7.621 -1.0275 -3.0437 -2.3032
  133OSM   C18F14460   1.606   3.054   7.494  0.2495 -0.0122 -0.2406
  133OSM   H18F14461   1.552   2.958   7.493  0.6573 -0.2422 -0.5473
  133OSM   H18G14462   1.693   3.046   7.563 -1.7190 -3.6465  2.1332
  133OSM   H18H14463   1.649   3.077   7.394  3.9555 -2.8856  0.4618
  134OSM      N14464   2.534   0.511   6.378 -0.4099 -1.1930  0.3147
  134OSM    C1514465   2.617   0.486   6.499  0.4636  0.3537  0.4904
  134OSM   H15A14466   2.682   0.569   6.523 -0.0042  0.6720  0.6714
  134OSM   H15B14467   2.664   0.390   6.484 -1.4891 -0.5810  0.1429
  134OSM   H15C14468   2.551   0.472   6.583  1.9956 -2.2198  1.3745
  134OSM    C1414469   2.622   0.554   6.262 -0.5716 -0.2284 -0.5284
  134OSM   H14A14470   2.677   0.642   6.292  1.3335 -1.5573  0.0987
  134OSM   H14B14471   2.561   0.574   6.175  0.4902  2.1435 -0.7989
  134OSM   H14C14472   2.707   0.488   6.246 -0.8807 -0.8667  0.3292
  134OSM    C1314473   2.471   0.376   6.344 -0.5841 -0.9543  0.2517
  134OSM   H13A14474   2.385   0.355   6.406 -1.6053  0.0216 -0.7882
  134OSM   H13B14475   2.540   0.295   6.360 -0.1803 -0.3905  1.4882
  134OSM   H13C14476   2.441   0.368   6.241 -0.0174  1.3800 -0.1486
  134OSM    C1214477   2.441   0.623   6.407 -0.0859 -1.0876  0.6184
  134OSM   H12A14478   2.375   0.626   6.322 -0.6042 -1.1847  1.0100
  134OSM   H12B14479   2.496   0.716   6.411 -2.0187  0.0969  0.5190
  134OSM    C1114480   2.353   0.618   6.529 -0.1537 -0.1707  0.2456
  134OSM   H11A14481   2.307   0.718   6.542  1.4432  0.9687 -2.0790
  134OSM   H11B14482   2.415   0.609   6.621  1.6418  1.3810 -0.7308
  134OSM      P14483   2.133   0.527   6.429  0.5186 -0.1077 -0.0532
  134OSM    O1314484   2.057   0.649   6.469 -0.2686 -0.2128 -0.0002
  134OSM    O1414485   2.168   0.513   6.283 -0.6570 -0.5617 -0.3232
  134OSM    O1114486   2.044   0.404   6.476 -0.2539 -0.6116  0.1859
  134OSM    O1214487   2.265   0.505   6.512 -0.2364 -0.2097  0.0073
  134OSM    C1S14488   2.101   0.311   6.579  0.4068 -0.2504  0.1146
  134OSM    H1S14489   2.122   0.366   6.673  1.6486  1.0127 -0.8734
  134OSM    H1T14490   2.190   0.255   6.542  1.0609  0.4881  0.5526
  134OSM     NF14491   2.017   0.158   6.762 -0.3354  0.8256 -0.0361
  134OSM    HNF14492   2.038   0.062   6.781  1.4429  1.2455  0.3520
  134OSM    C2S14493   1.994   0.202   6.626 -0.5965  0.3501  0.1383
  134OSM    H2S14494   1.899   0.258   6.630  0.0222  1.5224 -0.8669
  134OSM    C3S14495   1.993   0.093   6.523 -0.3737  0.5469  0.0200
  134OSM    H3S14496   2.093   0.044   6.524 -0.3390  0.6177  0.0629
  134OSM     O314497   1.992   0.150   6.386 -0.0875 -0.6830 -0.2619
  134OSM    HO314498   1.986   0.245   6.395 -0.8142 -0.6144 -1.2641
  134OSM    C4S14499   1.876   0.001   6.551 -0.1258 -0.2834  0.2436
  134OSM    H4S14500   1.775   0.040   6.529  0.0945  0.1309 -0.0578
  134OSM    C5S14501   1.883  -0.122   6.601  0.6412  0.3167  0.4546
  134OSM    H5S14502   1.983  -0.161   6.626  1.2147  0.8317 -0.9083
  134OSM    C6S14503   1.760  -0.205   6.620 -0.2249 -1.2195 -0.2453
  134OSM    H6S14504   1.775  -0.301   6.673  0.4435 -0.0419  1.8347
  134OSM    H6T14505   1.739  -0.229   6.514  1.0479  1.2508 -1.1366
  134OSM    C7S14506   1.626  -0.137   6.682 -0.5250  0.6525  0.0476
  134OSM    H7S14507   1.557  -0.222   6.703 -0.9653  1.2598  1.1766
  134OSM    H7T14508   1.577  -0.063   6.615  1.1754  1.9116  0.1365
  134OSM    C8S14509   1.661  -0.061   6.809 -0.8534  0.5669  0.7085
  134OSM    H8S14510   1.727   0.023   6.779 -2.1258  1.2528 -0.2827
  134OSM    H8T14511   1.715  -0.134   6.873  0.6261  0.3089 -0.7654
  134OSM    C9S14512   1.542   0.001   6.885  0.3921 -0.1080  0.1717
  134OSM    H9S14513   1.467  -0.078   6.908  0.5420 -0.3866 -0.2821
  134OSM    H9T14514   1.496   0.077   6.819 -0.2092  0.2703  1.0029
  134OSM   C10S14515   1.597   0.062   7.015  0.8521 -1.1099  0.2904
  134OSM   H10S14516   1.513   0.115   7.064  0.9423  0.6306 -1.3285
  134OSM   H10T14517   1.689   0.124   7.004  0.7349 -0.9928 -0.0417
  134OSM   C11S14518   1.638  -0.039   7.121  0.6671 -0.1050  0.2244
  134OSM   H11S14519   1.725  -0.105   7.096  1.9613  0.8673  1.9257
  134OSM   H11T14520   1.557  -0.111   7.145  0.0652  0.7082  0.6660
  134OSM   C12S14521   1.686   0.020   7.258  0.8234 -0.2768  0.2085
  134OSM   H12S14522   1.607   0.089   7.294 -0.4375 -2.0449  0.9938
  134OSM   H12T14523   1.774   0.073   7.216 -0.6705  1.1685 -1.1766
  134OSM   C13S14524   1.723  -0.088   7.359 -0.5063 -0.6812  0.6520
  134OSM   H13S14525   1.806  -0.146   7.314 -1.0197 -2.1576  1.5502
  134OSM   H13T14526   1.635  -0.154   7.371 -1.2570  0.4859  1.8549
  134OSM   C14S14527   1.768  -0.035   7.500 -0.1831  0.2481 -0.0818
  134OSM   H14S14528   1.841   0.047   7.490 -1.0581  1.2040  1.0229
  134OSM   H14T14529   1.835  -0.105   7.554  3.6153  3.3403 -0.3353
  134OSM   C15S14530   1.642  -0.008   7.587 -0.1537 -0.2294  0.0228
  134OSM   H15S14531   1.575  -0.092   7.614 -1.6691  1.0904  0.5266
  134OSM   H15T14532   1.574   0.051   7.522 -0.7633 -0.0844  0.7780
  134OSM   C16S14533   1.676   0.053   7.722  0.3819 -0.3477 -0.0642
  134OSM   H16S14534   1.588   0.108   7.760  0.5352  1.4708 -2.1417
  134OSM   H16T14535   1.751   0.135   7.729  0.8493 -0.8364  0.7666
  134OSM   C17S14536   1.724  -0.053   7.823 -0.9039 -0.9604  0.3382
  134OSM   H17S14537   1.823  -0.096   7.796 -0.2134  0.7484 -0.0128
  134OSM   H17T14538   1.657  -0.141   7.821 -1.8872 -0.3080  2.0603
  134OSM   C18S14539   1.737   0.001   7.964 -0.2086  0.1027  0.5995
  134OSM   H18S14540   1.793   0.097   7.964 -3.4785  2.1402 -0.3789
  134OSM   H18T14541   1.783  -0.066   8.040 -0.6939  0.6367  1.3829
  134OSM   H18U14542   1.639   0.017   8.013  0.1187  1.2150  0.9196
  134OSM    C1F14543   2.006   0.237   6.861 -0.6210 -0.4841 -0.0715
  134OSM     OF14544   1.952   0.345   6.843  0.3696 -0.8259 -0.3885
  134OSM    C2F14545   2.054   0.191   6.992  0.2277 -0.0150  0.5819
  134OSM    H2F14546   2.164   0.183   6.983  0.2671  0.0042  1.0483
  134OSM    H2G14547   2.009   0.089   6.990  0.0907  0.0318  1.2314
  134OSM    C3F14548   2.022   0.294   7.094  0.6441  0.6736  0.2432
  134OSM    H3F14549   1.912   0.303   7.112  0.9682  1.2060  2.1094
  134OSM    H3G14550   2.043   0.400   7.069  1.0624  1.1010  2.2466
  134OSM    C4F14551   2.073   0.257   7.235  0.0861  0.0016  0.3951
  134OSM    H4F14552   2.182   0.240   7.230  0.4855  2.5867 -1.6929
  134OSM    H4G14553   2.020   0.165   7.267  0.6203 -0.2494  0.5645
  134OSM    C5F14554   2.037   0.363   7.346 -0.1843  0.9531 -0.3684
  134OSM    H5F14555   1.930   0.389   7.332  0.3912  2.6794 -1.8146
  134OSM    H5G14556   2.095   0.454   7.321 -0.7288  1.4186  0.0341
  134OSM    C6F14557   2.060   0.317   7.489  0.5667  0.0483  0.1371
  134OSM    H6F14558   2.168   0.296   7.500  0.4365 -1.5200 -1.2032
  134OSM    H6G14559   2.001   0.226   7.511  1.9279 -0.5985  1.2326
  134OSM    C7F14560   2.001   0.411   7.597  0.0071 -0.5827  0.3517
  134OSM    H7F14561   1.900   0.445   7.564  0.7441  1.7360  0.2814
  134OSM    H7G14562   2.068   0.500   7.602  4.2007 -3.4674  0.5225
  134OSM    C8F14563   1.992   0.333   7.730 -0.2929 -0.1733 -0.0158
  134OSM    H8F14564   2.095   0.304   7.759  0.6198  2.5111 -0.3291
  134OSM    H8G14565   1.941   0.236   7.709  2.4489 -1.8678  0.5890
  134OSM    C9F14566   1.924   0.407   7.838  0.4679 -0.8835 -0.5149
  134OSM    H9F14567   1.840   0.469   7.803  2.6193  1.3769 -2.0871
  134OSM   C10F14568   1.963   0.429   7.971  0.3072  0.0543 -0.5227
  134OSM   H10F14569   1.901   0.500   8.027 -2.0539 -0.2393 -2.5908
  134OSM   C11F14570   2.079   0.366   8.055  1.1559 -0.0204 -0.0643
  134OSM   H11F14571   2.135   0.436   8.120  1.4550  0.5789 -0.9487
  134OSM   H11G14572   2.160   0.327   7.990  0.7197 -0.2431 -0.4821
  134OSM   C12F14573   2.035   0.262   8.162  0.2926  0.1500  0.0415
  134OSM   H12F14574   2.125   0.209   8.198 -1.1777 -1.9663  0.7947
  134OSM   H12G14575   1.972   0.188   8.108  0.0388  1.1928 -1.1561
  134OSM   C13F14576   1.961   0.332   8.282 -0.2088  0.3326 -0.3675
  134OSM   H13F14577   1.889   0.409   8.244  0.2708  0.3515 -1.2590
  134OSM   H13G14578   2.030   0.390   8.347 -0.9965  0.6151  0.2440
  134OSM   C14F14579   1.876   0.240   8.373  0.6233  0.1292  0.4348
  134OSM   H14F14580   1.796   0.189   8.314  0.9327 -0.3688  0.4370
  134OSM   H14G14581   1.822   0.313   8.437 -0.5785 -1.2049  1.0009
  134OSM   C15F14582   1.950   0.135   8.459 -0.3059  0.3246  0.3624
  134OSM   H15F14583   1.987   0.051   8.397  0.9800  0.0539  1.4509
  134OSM   H15G14584   1.877   0.090   8.530  0.8261 -0.3259  1.1294
  134OSM   C16F14585   2.071   0.182   8.535  0.2900 -0.1138 -0.6864
  134OSM   H16F14586   2.048   0.275   8.592  0.6248  0.4454 -1.4392
  134OSM   H16G14587   2.156   0.212   8.470 -1.1924  1.6931 -1.9027
  134OSM   C17F14588   2.121   0.078   8.637 -0.0065  0.6287 -0.2652
  134OSM   H17F14589   2.127  -0.018   8.582 -1.9311 -0.4565  1.2706
  134OSM   H17G14590   2.049   0.043   8.715  0.0776 -0.4226 -0.6421
  134OSM   C18F14591   2.252   0.118   8.702 -0.1866  0.4617  0.6566
  134OSM   H18F14592   2.336   0.133   8.631 -0.5664 -1.1493 -0.1805
  134OSM   H18G14593   2.289   0.030   8.759 -1.8442 -0.8665 -0.2403
  134OSM   H18H14594   2.248   0.192   8.784  0.2331  0.2039  0.9132
  135OSM      N14595   1.850   0.544   5.980 -0.0073 -0.0134  0.7704
  135OSM    C1514596   1.842   0.471   5.848  0.5026  0.3722  0.7420
  135OSM   H15A14597   1.894   0.527   5.771  0.1609 -1.0725 -0.5770
  135OSM   H15B14598   1.741   0.465   5.813  0.0881  1.4542  1.6816
  135OSM   H15C14599   1.879   0.370   5.855 -1.1578 -0.1574  2.4897
  135OSM    C1414600   1.997   0.549   6.021 -0.1482  0.6793  0.5188
  135OSM   H14A14601   2.063   0.556   5.936  1.9294  2.0334  2.1381
  135OSM   H14B14602   2.017   0.460   6.078 -0.8316 -1.0148 -1.7230
  135OSM   H14C14603   2.000   0.635   6.087 -1.2826  0.3299  1.0516
  135OSM    C1314604   1.791   0.686   5.969  0.5355 -0.0021  0.1356
  135OSM   H13A14605   1.772   0.733   6.064 -0.7156 -0.5840  0.1955
  135OSM   H13B14606   1.698   0.678   5.914 -0.8450 -1.0465  2.4736
  135OSM   H13C14607   1.857   0.749   5.911 -0.1695  0.4728 -0.1657
  135OSM    C1214608   1.767   0.463   6.080 -0.0017  0.2793 -0.1584
  135OSM   H12A14609   1.787   0.357   6.085  0.2720  0.0779 -3.3725
  135OSM   H12B14610   1.660   0.462   6.065  0.0799 -0.9450 -0.7830
  135OSM    C1114611   1.797   0.521   6.219 -0.0513  0.3428 -0.3777
  135OSM   H11A14612   1.903   0.530   6.252  0.8524 -0.3385 -2.8257
  135OSM   H11B14613   1.747   0.453   6.290  1.6206  1.5258  2.0768
  135OSM      P14614   1.588   0.653   6.323 -0.2862 -0.0666 -0.2245
  135OSM    O1314615   1.562   0.793   6.364  0.1197 -0.0211  0.6569
  135OSM    O1414616   1.483   0.587   6.238  0.2834  0.6004 -0.0766
  135OSM    O1114617   1.616   0.559   6.445 -0.0080 -0.7690 -1.2255
  135OSM    O1214618   1.731   0.646   6.242 -0.2542 -0.0653  0.1348
  135OSM    C1S14619   1.734   0.567   6.530  0.5717 -0.9201 -0.0116
  135OSM    H1S14620   1.804   0.650   6.505 -0.5359  0.5290  1.4798
  135OSM    H1T14621   1.783   0.470   6.506 -0.8071 -2.0061  1.3392
  135OSM     NF14622   1.823   0.576   6.745 -0.7813 -0.4466 -0.4425
  135OSM    HNF14623   1.866   0.496   6.788  0.4709 -0.3743 -1.5109
  135OSM    C2S14624   1.701   0.564   6.679  0.5735  0.4510 -0.9508
  135OSM    H2S14625   1.633   0.649   6.701 -0.5387 -0.5761 -0.3038
  135OSM    C3S14626   1.629   0.433   6.716 -0.7104 -0.0457  0.3602
  135OSM    H3S14627   1.699   0.348   6.698 -0.0186  0.8479 -1.4412
  135OSM     O314628   1.513   0.398   6.649 -0.1317 -0.6460  0.7168
  135OSM    HO314629   1.489   0.475   6.596 -2.3357 -1.4719  0.4213
  135OSM    C4S14630   1.601   0.430   6.866 -0.0334  0.2011  0.2647
  135OSM    H4S14631   1.690   0.399   6.923  0.8152 -0.6027 -1.4374
  135OSM    C5S14632   1.481   0.460   6.917 -0.4289  0.2571  0.5540
  135OSM    H5S14633   1.397   0.494   6.855 -0.4734  0.1436  0.5520
  135OSM    C6S14634   1.445   0.462   7.061 -0.9678 -0.5525 -1.4317
  135OSM    H6S14635   1.360   0.394   7.085 -0.5246 -1.1727 -1.6082
  135OSM    H6T14636   1.428   0.564   7.100  0.9121 -0.8765  0.4124
  135OSM    C7S14637   1.555   0.407   7.163  0.2130  0.1255 -0.4666
  135OSM    H7S14638   1.643   0.475   7.171  1.3818 -1.5007  1.2931
  135OSM    H7T14639   1.596   0.305   7.155  1.3347  0.6627 -2.0048
  135OSM    C8S14640   1.506   0.416   7.311 -0.5887 -0.6172 -0.1060
  135OSM    H8S14641   1.430   0.338   7.331  1.1975 -2.0624  1.5394
  135OSM    H8T14642   1.445   0.508   7.324 -0.2261 -0.1925 -1.2852
  135OSM    C9S14643   1.626   0.392   7.411  0.4273 -0.4537  0.0814
  135OSM    H9S14644   1.689   0.484   7.419  0.6183 -0.5536 -0.2698
  135OSM    H9T14645   1.692   0.312   7.371  0.5355 -0.3293  0.0099
  135OSM   C10S14646   1.574   0.353   7.550  0.1081  0.1407  0.5770
  135OSM   H10S14647   1.664   0.334   7.613  0.3287  0.7030  0.4370
  135OSM   H10T14648   1.499   0.273   7.539 -0.9485  0.6622  3.2273
  135OSM   C11S14649   1.497   0.470   7.623  0.3831  0.3392 -0.6182
  135OSM   H11S14650   1.405   0.500   7.570 -0.6963  0.2721  1.1313
  135OSM   H11T14651   1.570   0.554   7.627  0.3041  0.3673  0.9737
  135OSM   C12S14652   1.452   0.448   7.769  0.9230  0.2295  0.9538
  135OSM   H12S14653   1.378   0.364   7.766 -0.3615  1.3386 -0.3336
  135OSM   H12T14654   1.398   0.538   7.806  0.7693  0.6086 -0.1283
  135OSM   C13S14655   1.560   0.417   7.873 -0.5895  0.0166 -0.3024
  135OSM   H13S14656   1.633   0.501   7.871 -0.6806  0.0979 -0.2556
  135OSM   H13T14657   1.616   0.331   7.831  1.3025  1.6707 -1.3276
  135OSM   C14S14658   1.503   0.390   8.008  0.5047  0.1839  0.5814
  135OSM   H14S14659   1.443   0.296   8.004  1.4335 -0.3934 -0.7290
  135OSM   H14T14660   1.428   0.468   8.033 -0.6002 -0.2110 -1.2502
  135OSM   C15S14661   1.593   0.396   8.129  0.1307  0.9494 -1.1856
  135OSM   H15S14662   1.619   0.501   8.156 -0.3948  0.2162  2.9182
  135OSM   H15T14663   1.689   0.348   8.099 -0.6112 -2.4458  1.2435
  135OSM   C16S14664   1.534   0.329   8.255 -0.2326  0.2680  0.3284
  135OSM   H16S14665   1.614   0.325   8.332  1.3907 -0.2089 -1.3083
  135OSM   H16T14666   1.493   0.229   8.228  0.1304  0.4341 -0.9297
  135OSM   C17S14667   1.418   0.415   8.310  0.0319  0.0897 -0.3267
  135OSM   H17S14668   1.335   0.430   8.237  0.5686  0.6826 -0.8292
  135OSM   H17T14669   1.460   0.517   8.321  1.1718 -0.0092 -3.0036
  135OSM   C18S14670   1.355   0.363   8.443  0.0940  0.5162  0.4216
  135OSM   H18S14671   1.266   0.301   8.420  0.6423 -0.0820 -0.1536
  135OSM   H18T14672   1.320   0.441   8.514  0.0478 -0.0231  0.9953
  135OSM   H18U14673   1.421   0.293   8.499  1.3605  1.7635  0.5470
  135OSM    C1F14674   1.898   0.690   6.757  0.5228  0.0660 -0.5817
  135OSM     OF14675   1.852   0.796   6.724 -0.1344 -0.0344 -0.0445
  135OSM    C2F14676   2.034   0.677   6.818  0.6238  0.8201  0.1564
  135OSM    H2F14677   2.113   0.668   6.741  2.7945  1.0087  2.2289
  135OSM    H2G14678   2.047   0.583   6.876 -1.5919 -0.2951 -1.0027
  135OSM    C3F14679   2.071   0.789   6.912  0.3275 -0.5421 -0.3790
  135OSM    H3F14680   2.079   0.880   6.848  1.8710 -1.7504 -2.0155
  135OSM    H3G14681   2.164   0.766   6.967  0.2639 -2.2545 -0.9491
  135OSM    C4F14682   1.964   0.821   7.024  0.4414 -0.7417  0.1001
  135OSM    H4F14683   1.862   0.834   6.982 -0.1298  0.8341  1.8463
  135OSM    H4G14684   1.989   0.919   7.069 -0.9116 -0.9158  1.3072
  135OSM    C5F14685   1.945   0.708   7.128 -0.4503  0.1202  1.2045
  135OSM    H5F14686   2.049   0.679   7.156 -0.2063  0.3466  0.5438
  135OSM    H5G14687   1.894   0.621   7.081  2.2347 -0.8991 -0.0193
  135OSM    C6F14688   1.862   0.742   7.257  0.0373  0.0286  0.0937
  135OSM    H6F14689   1.808   0.656   7.302 -0.5978 -0.4718 -1.5383
  135OSM    H6G14690   1.785   0.813   7.221  0.4414  0.1310 -0.5932
  135OSM    C7F14691   1.952   0.818   7.358  0.1379  0.5954  0.3185
  135OSM    H7F14692   2.012   0.889   7.297  0.0540  0.1789 -0.2528
  135OSM    H7G14693   2.012   0.730   7.389 -1.4378 -0.1836  1.3058
  135OSM    C8F14694   1.877   0.880   7.470  0.0676 -0.4908 -0.3234
  135OSM    H8F14695   1.807   0.953   7.423  0.0574  0.2478  0.8187
  135OSM    H8G14696   1.947   0.940   7.531 -1.3436  0.2969  0.5791
  135OSM    C9F14697   1.793   0.790   7.556  0.6432  0.5558 -0.1080
  135OSM    H9F14698   1.695   0.765   7.511  0.9154  2.3075 -1.8074
  135OSM   C10F14699   1.807   0.752   7.683  0.0780 -0.2362 -0.6248
  135OSM   H10F14700   1.730   0.685   7.722 -0.1184 -0.2169 -0.9708
  135OSM   C11F14701   1.921   0.790   7.780 -0.3157 -0.2288  0.2386
  135OSM   H11F14702   2.010   0.839   7.735 -0.1553  0.1146  0.9220
  135OSM   H11G14703   1.961   0.696   7.823  2.2754  1.0025  0.7065
  135OSM   C12F14704   1.882   0.876   7.904 -0.3902 -0.4090 -1.2206
  135OSM   H12F14705   1.968   0.871   7.974  0.4334 -2.2144 -2.2885
  135OSM   H12G14706   1.786   0.837   7.943 -0.0856 -0.3911 -0.4390
  135OSM   C13F14707   1.866   1.023   7.862 -0.8926 -0.1681 -0.0965
  135OSM   H13F14708   1.796   1.015   7.776 -0.2535  0.2317 -0.6704
  135OSM   H13G14709   1.961   1.046   7.808 -0.9364 -0.2500 -0.2078
  135OSM   C14F14710   1.821   1.124   7.974 -0.0927 -0.7890 -0.5354
  135OSM   H14F14711   1.838   1.226   7.934 -0.5897 -0.8991 -1.0349
  135OSM   H14G14712   1.889   1.102   8.059 -0.6125  3.5178  1.2168
  135OSM   C15F14713   1.675   1.101   8.014 -0.4829 -0.0534 -0.3233
  135OSM   H15F14714   1.662   0.993   8.036 -0.0210 -0.5980 -2.4819
  135OSM   H15G14715   1.601   1.125   7.934  0.1315 -1.8908 -1.5156
  135OSM   C16F14716   1.641   1.172   8.144  0.2202 -0.2316  0.0258
  135OSM   H16F14717   1.530   1.181   8.136  0.2467 -0.4395 -0.6489
  135OSM   H16G14718   1.684   1.275   8.150  0.5824 -0.3008 -1.1222
  135OSM   C17F14719   1.682   1.100   8.271 -0.7769 -0.5812 -0.0368
  135OSM   H17F14720   1.793   1.097   8.265 -0.6548 -0.2854  1.5393
  135OSM   H17G14721   1.638   0.999   8.282 -2.1693 -0.6185 -4.2496
  135OSM   C18F14722   1.657   1.181   8.400  0.4760 -0.2401 -0.0981
  135OSM   H18F14723   1.720   1.163   8.489 -0.8646  0.8919  1.1421
  135OSM   H18G14724   1.554   1.163   8.438  0.6872 -1.1345  0.0620
  135OSM   H18H14725   1.667   1.286   8.365  0.2305 -0.2744 -0.2733
  136OSM      N14726   6.034   6.559   6.172 -0.4646  0.1968 -0.2143
  136OSM    C1514727   6.049   6.439   6.082 -0.3217 -0.2542  0.0598
  136OSM   H15A14728   6.085   6.348   6.128 -0.9978 -1.2605 -1.3365
  136OSM   H15B14729   6.127   6.455   6.009  1.4591 -0.1739  1.8936
  136OSM   H15C14730   5.953   6.414   6.040 -1.4146  2.0527  1.0361
  136OSM    C1414731   5.996   6.676   6.089 -0.1157  0.4442 -0.0777
  136OSM   H14A14732   6.086   6.710   6.040 -1.1644  1.9273 -1.0686
  136OSM   H14B14733   5.947   6.758   6.141 -0.9934 -0.9835  1.4601
  136OSM   H14C14734   5.922   6.648   6.016  1.6893 -1.9433 -1.0986
  136OSM    C1314735   5.917   6.527   6.272 -0.1480 -0.1454  0.1769
  136OSM   H13A14736   5.910   6.611   6.338 -0.0859 -0.0006  0.0015
  136OSM   H13B14737   5.924   6.439   6.334  1.7064  1.4011  2.3126
  136OSM   H13C14738   5.832   6.508   6.207  1.5369 -3.5158 -1.3538
  136OSM    C1214739   6.165   6.594   6.249 -0.2782  0.9727  0.3615
  136OSM   H12A14740   6.186   6.510   6.314  2.5503 -0.8897 -2.6981
  136OSM   H12B14741   6.127   6.674   6.312 -3.5275  0.0077 -0.1722
  136OSM    C1114742   6.293   6.639   6.175 -0.0510  0.4932  0.2296
  136OSM   H11A14743   6.322   6.564   6.098 -1.7619  0.7375 -0.7022
  136OSM   H11B14744   6.372   6.639   6.254 -1.5065  0.4462  1.7326
  136OSM      P14745   6.292   6.901   6.199  0.1374  0.0748  0.1422
  136OSM    O1314746   6.428   6.900   6.255  0.5161 -0.4560 -0.1830
  136OSM    O1414747   6.254   7.013   6.113  0.3793  0.4214  0.0503
  136OSM    O1114748   6.186   6.903   6.315  0.1993 -0.0940 -0.4685
  136OSM    O1214749   6.275   6.764   6.122  0.5593 -0.4078  0.2448
  136OSM    C1S14750   6.223   6.893   6.453 -0.1259  0.2755 -0.8849
  136OSM    H1S14751   6.292   6.977   6.477  0.1134 -0.4355  1.0876
  136OSM    H1T14752   6.284   6.802   6.467  0.0065  0.1833 -1.9299
  136OSM     NF14753   6.156   6.860   6.689  0.5423  0.0436 -0.0083
  136OSM    HNF14754   6.143   6.764   6.710  0.2370 -0.4250 -2.1209
  136OSM    C2S14755   6.103   6.892   6.555 -0.1716  0.0314  0.3308
  136OSM    H2S14756   6.065   6.996   6.554 -2.5508 -0.7873  0.1723
  136OSM    C3S14757   5.993   6.790   6.511 -0.2907  0.4106 -0.4660
  136OSM    H3S14758   6.031   6.686   6.502  1.2682  0.9438 -0.3445
  136OSM     O314759   5.936   6.815   6.383  0.2329  0.2386 -0.2604
  136OSM    HO314760   6.003   6.876   6.349  1.3130 -0.0822  1.2291
  136OSM    C4S14761   5.888   6.773   6.622 -0.0063 -0.0745 -0.2338
  136OSM    H4S14762   5.917   6.696   6.695  2.9530  0.5488 -0.6272
  136OSM    C5S14763   5.762   6.823   6.635 -0.9430 -0.5982 -0.1239
  136OSM    H5S14764   5.748   6.895   6.553  0.3614  0.6930  0.7339
  136OSM    C6S14765   5.663   6.807   6.741  0.4301  0.4038  0.4810
  136OSM    H6S14766   5.574   6.770   6.685  1.6064  0.1026 -1.2922
  136OSM    H6T14767   5.647   6.907   6.787  3.3107  0.1160  2.3583
  136OSM    C7S14768   5.689   6.694   6.845 -0.5857 -0.1948  0.1193
  136OSM    H7S14769   5.791   6.706   6.888 -1.1354  3.1106  0.7496
  136OSM    H7T14770   5.691   6.603   6.782 -0.8965  0.3813 -0.7327
  136OSM    C8S14771   5.571   6.685   6.938 -0.2721 -0.6711  0.3428
  136OSM    H8S14772   5.560   6.583   6.980  1.9536  0.0355  2.9455
  136OSM    H8T14773   5.478   6.714   6.884  0.2332  0.8988  0.2547
  136OSM    C9S14774   5.590   6.782   7.054 -0.0218  0.4188  0.3552
  136OSM    H9S14775   5.576   6.892   7.040 -1.7759  0.6103  2.9278
  136OSM    H9T14776   5.692   6.769   7.096  0.0289  0.5501  0.2740
  136OSM   C10S14777   5.498   6.744   7.175  0.1943 -0.8529  0.0594
  136OSM   H10S14778   5.517   6.638   7.202 -1.5694 -0.5158  3.0209
  136OSM   H10T14779   5.393   6.768   7.148  0.7077 -0.9326 -2.1673
  136OSM   C11S14780   5.541   6.829   7.294 -0.0590 -0.0985 -0.0566
  136OSM   H11S14781   5.513   6.936   7.283 -2.5172 -0.6450  0.2498
  136OSM   H11T14782   5.652   6.830   7.308 -0.3665  0.4014  3.1594
  136OSM   C12S14783   5.466   6.793   7.429 -0.0356  0.1049  0.0368
  136OSM   H12S14784   5.495   6.693   7.466 -1.3967 -0.4497 -0.3038
  136OSM   H12T14785   5.355   6.790   7.415 -0.0550  1.4408 -0.1799
  136OSM   C13S14786   5.494   6.889   7.540  0.5388  0.5004 -0.6707
  136OSM   H13S14787   5.456   6.986   7.503  1.7562  0.6414 -1.6396
  136OSM   H13T14788   5.605   6.888   7.547  0.5519  2.1296 -0.4557
  136OSM   C14S14789   5.437   6.846   7.681  0.2345 -0.1809 -0.8432
  136OSM   H14S14790   5.457   6.739   7.704 -0.6813  0.1307  1.6649
  136OSM   H14T14791   5.326   6.838   7.674  0.2336 -0.6407 -0.3825
  136OSM   C15S14792   5.494   6.931   7.802  0.1998 -0.3331  0.2929
  136OSM   H15S14793   5.481   7.040   7.787 -1.8862 -0.6752 -0.7518
  136OSM   H15T14794   5.603   6.911   7.799  0.5046  1.3522 -1.6222
  136OSM   C16S14795   5.424   6.888   7.929  0.0723  0.5348 -1.2461
  136OSM   H16S14796   5.423   6.778   7.939 -0.8650  0.6639  0.6774
  136OSM   H16T14797   5.320   6.926   7.936  0.1048  0.3490  2.6220
  136OSM   C17S14798   5.496   6.936   8.055 -0.0776 -0.3922 -0.3610
  136OSM   H17S14799   5.504   7.046   8.055  1.6445 -0.4608  1.0100
  136OSM   H17T14800   5.598   6.892   8.049  0.5910  1.0118  0.2493
  136OSM   C18S14801   5.435   6.890   8.187  0.0260  0.4131  0.0933
  136OSM   H18S14802   5.329   6.924   8.196 -1.7736 -4.4048  0.1920
  136OSM   H18T14803   5.495   6.936   8.268  0.6614  1.1395 -0.7606
  136OSM   H18U14804   5.436   6.779   8.190 -1.6170  0.3947  1.0215
  136OSM    C1F14805   6.247   6.934   6.756 -0.1393  0.2052  0.0165
  136OSM     OF14806   6.272   7.051   6.715 -0.0125 -0.4908  0.6773
  136OSM    C2F14807   6.312   6.870   6.881 -0.5627 -0.2118 -0.4452
  136OSM    H2F14808   6.410   6.824   6.856 -1.3281 -1.3904 -1.4021
  136OSM    H2G14809   6.244   6.793   6.922  0.6935 -1.5734 -0.8221
  136OSM    C3F14810   6.321   6.975   6.996  0.2754  0.7977  0.1020
  136OSM    H3F14811   6.216   7.010   7.008  0.0357  0.6369 -1.4012
  136OSM    H3G14812   6.396   7.056   6.979  2.2152 -0.8855  0.2711
  136OSM    C4F14813   6.379   6.900   7.118  0.4353 -0.0236 -0.0705
  136OSM    H4F14814   6.489   6.905   7.102  0.3955 -0.5219 -0.5232
  136OSM    H4G14815   6.331   6.800   7.124 -2.2149  1.2476  2.2230
  136OSM    C5F14816   6.337   6.956   7.250  0.4704  0.5779  0.0168
  136OSM    H5F14817   6.226   6.964   7.260  0.1400 -2.8749  0.3730
  136OSM    H5G14818   6.383   7.057   7.250  2.0631 -0.1247  0.1075
  136OSM    C6F14819   6.384   6.885   7.374  0.5709 -0.5116 -0.4076
  136OSM    H6F14820   6.492   6.860   7.374  0.7926  0.3750 -0.8117
  136OSM    H6G14821   6.335   6.786   7.367 -1.3033  0.3304  0.1431
  136OSM    C7F14822   6.345   6.949   7.508 -0.1636 -0.8797  0.3499
  136OSM    H7F14823   6.361   6.865   7.579  1.2963 -1.1320 -0.2359
  136OSM    H7G14824   6.241   6.987   7.518  0.1899 -0.4331  3.1367
  136OSM    C8F14825   6.434   7.068   7.551  0.2791  0.2198  0.1954
  136OSM    H8F14826   6.386   7.122   7.635 -0.4140  1.9462 -1.2282
  136OSM    H8G14827   6.427   7.144   7.470  0.6358  0.0540  0.0070
  136OSM    C9F14828   6.574   7.029   7.579 -0.2425 -0.8034  0.2156
  136OSM    H9F14829   6.655   7.044   7.505 -0.6045  0.0852 -0.0116
  136OSM   C10F14830   6.602   6.975   7.699  0.6661 -0.2997 -0.9853
  136OSM   H10F14831   6.708   6.954   7.720  0.9585  1.9440  0.1210
  136OSM   C11F14832   6.501   6.946   7.814  0.1472  0.0202  0.7469
  136OSM   H11F14833   6.482   6.837   7.817  1.0307 -0.1287  1.4852
  136OSM   H11G14834   6.405   6.998   7.793 -0.0966  0.4259  2.6649
  136OSM   C12F14835   6.556   6.996   7.944  0.6109 -0.4398  0.3579
  136OSM   H12F14836   6.528   7.104   7.943 -0.9681 -0.8340 -0.4582
  136OSM   H12G14837   6.667   6.987   7.944  1.0672  1.8836 -4.1654
  136OSM   C13F14838   6.490   6.921   8.063  0.0530  0.7280 -0.3787
  136OSM   H13F14839   6.519   6.816   8.040  2.1714  0.7089  1.9315
  136OSM   H13G14840   6.379   6.926   8.059 -0.2751 -2.4637  1.3498
  136OSM   C14F14841   6.553   6.948   8.200 -0.0476  0.7278 -0.2635
  136OSM   H14F14842   6.574   7.056   8.213  1.0837  0.7416 -1.8772
  136OSM   H14G14843   6.652   6.897   8.209 -0.7168 -0.5318  0.3108
  136OSM   C15F14844   6.472   6.893   8.321 -0.4022 -0.4019 -0.0309
  136OSM   H15F14845   6.489   6.784   8.333  0.1944 -0.0664  3.2655
  136OSM   H15G14846   6.364   6.912   8.304  0.2016  1.2042 -2.6648
  136OSM   C16F14847   6.506   6.977   8.445 -0.4754 -0.3058  0.2718
  136OSM   H16F14848   6.449   6.945   8.535 -1.1672 -1.0390 -0.4103
  136OSM   H16G14849   6.483   7.080   8.413 -1.8895 -0.3736  1.0103
  136OSM   C17F14850   6.645   6.960   8.499 -0.0785  0.3426  0.3435
  136OSM   H17F14851   6.721   6.954   8.417 -1.4396  1.4038 -1.0532
  136OSM   H17G14852   6.655   6.862   8.550 -2.6025 -1.4118 -2.1915
  136OSM   C18F14853   6.689   7.056   8.611 -0.4740 -0.1630 -0.0991
  136OSM   H18F14854   6.793   7.041   8.646 -0.3265 -1.7114 -1.1364
  136OSM   H18G14855   6.616   7.041   8.694 -1.7402 -0.0675 -1.1686
  136OSM   H18H14856   6.684   7.157   8.564  1.1746 -0.1982 -0.4028
  137OSM      N14857   2.067   5.733   6.333  0.6208 -0.4476 -0.3619
  137OSM    C1514858   2.043   5.602   6.270  0.3192  0.5231  0.5342
  137OSM   H15A14859   2.073   5.616   6.167  0.0141  2.3749  0.6560
  137OSM   H15B14860   1.937   5.588   6.254  0.4191 -0.3326  0.5763
  137OSM   H15C14861   2.088   5.514   6.313  1.1670 -0.3634 -1.9870
  137OSM    C1414862   2.005   5.844   6.254  0.0349  0.1125 -0.2440
  137OSM   H14A14863   1.900   5.827   6.239  0.6480 -2.9304 -2.1774
  137OSM   H14B14864   2.059   5.851   6.160  1.5824 -0.5077  0.5550
  137OSM   H14C14865   2.017   5.933   6.314  1.1026 -0.9861  1.2401
  137OSM    C1314866   2.013   5.737   6.463 -0.1113 -0.1871  0.0455
  137OSM   H13A14867   1.906   5.726   6.468 -0.2612  0.5384 -0.9979
  137OSM   H13B14868   2.041   5.830   6.510  0.0587  0.2444 -0.8763
  137OSM   H13C14869   2.057   5.658   6.522  1.2891 -0.4947 -1.3440
  137OSM    C1214870   2.214   5.773   6.333 -1.0318 -0.0642  0.0786
  137OSM   H12A14871   2.224   5.868   6.383  0.6667 -0.1323 -0.0872
  137OSM   H12B14872   2.249   5.781   6.231 -3.2224 -0.0282 -0.7300
  137OSM    C1114873   2.298   5.671   6.414 -0.1090 -0.5429 -0.2949
  137OSM   H11A14874   2.281   5.570   6.371 -3.6151  0.1957 -0.9507
  137OSM   H11B14875   2.266   5.665   6.520 -0.2686  0.3862 -0.2852
  137OSM      P14876   2.510   5.827   6.480 -0.5169  0.3437 -0.1029
  137OSM    O1314877   2.631   5.776   6.552  0.0736 -0.1395 -0.6111
  137OSM    O1414878   2.519   5.942   6.392  0.4557  0.2045  0.1676
  137OSM    O1114879   2.402   5.851   6.592  0.9016  0.8240  0.1163
  137OSM    O1214880   2.433   5.703   6.403 -0.5203  0.0724  0.0807
  137OSM    C1S14881   2.429   5.912   6.717  0.2301  0.0502 -0.0204
  137OSM    H1S14882   2.380   6.011   6.713  1.2867  0.5520 -2.2983
  137OSM    H1T14883   2.538   5.923   6.735  0.7776 -2.8166 -0.9956
  137OSM     NF14884   2.401   5.878   6.965 -0.6438 -0.0558  0.2700
  137OSM    HNF14885   2.464   5.831   7.026 -1.2536  0.5864  1.4210
  137OSM    C2S14886   2.374   5.826   6.835 -0.0765  0.3132  0.0644
  137OSM    H2S14887   2.263   5.817   6.833 -0.1445 -0.3547  2.6133
  137OSM    C3S14888   2.438   5.682   6.827 -0.5047  0.2837 -0.6794
  137OSM    H3S14889   2.548   5.700   6.823 -0.5688  0.9251  0.1373
  137OSM     O314890   2.395   5.605   6.716  0.9034 -0.0190 -0.1948
  137OSM    HO314891   2.375   5.675   6.655  0.9459 -0.1942 -0.4101
  137OSM    C4S14892   2.410   5.592   6.952 -0.0619 -0.0197  0.1149
  137OSM    H4S14893   2.304   5.588   6.979 -0.8857 -1.1169 -2.8834
  137OSM    C5S14894   2.502   5.539   7.033  0.4459  0.6958  0.1028
  137OSM    H5S14895   2.607   5.569   7.037  0.5003  0.3367  2.4651
  137OSM    C6S14896   2.459   5.475   7.160  1.1489  0.0506 -0.0629
  137OSM    H6S14897   2.543   5.416   7.203 -0.3921 -2.8540 -0.7872
  137OSM    H6T14898   2.384   5.400   7.127  0.7685  0.3348  0.1476
  137OSM    C7S14899   2.394   5.573   7.266 -1.0497 -0.1900  0.7065
  137OSM    H7S14900   2.286   5.588   7.244 -0.8885  3.1597  1.6210
  137OSM    H7T14901   2.445   5.672   7.267  1.2864 -1.1735 -2.4933
  137OSM    C8S14902   2.375   5.519   7.409  0.0528 -0.1827 -0.0975
  137OSM    H8S14903   2.474   5.486   7.448  1.5240  0.4014 -3.0464
  137OSM    H8T14904   2.303   5.436   7.424  0.8686 -0.6438  1.6006
  137OSM    C9S14905   2.344   5.632   7.507  0.4924  0.5804 -0.0419
  137OSM    H9S14906   2.249   5.682   7.478  0.7679  0.5271 -1.0793
  137OSM    H9T14907   2.423   5.709   7.500  0.3986  0.6416 -0.4663
  137OSM   C10S14908   2.313   5.583   7.651 -0.6446  0.0909 -0.5658
  137OSM   H10S14909   2.405   5.533   7.687 -0.5033  0.7097 -0.0512
  137OSM   H10T14910   2.232   5.507   7.651  0.8158 -1.5733  1.5798
  137OSM   C11S14911   2.265   5.690   7.751  0.5047 -0.0090 -0.1837
  137OSM   H11S14912   2.173   5.735   7.707  0.3236 -1.0871 -0.9570
  137OSM   H11T14913   2.335   5.776   7.757 -0.7240  1.0179 -0.0879
  137OSM   C12S14914   2.241   5.638   7.889  0.8953 -1.0738  0.1009
  137OSM   H12S14915   2.330   5.576   7.911  1.0158 -0.7586  0.5272
  137OSM   H12T14916   2.160   5.562   7.883 -1.7191  1.6105 -1.0658
  137OSM   C13S14917   2.211   5.751   7.994 -0.4397 -0.0105  1.2888
  137OSM   H13S14918   2.118   5.807   7.974  1.6268  2.5750 -2.3706
  137OSM   H13T14919   2.292   5.824   7.973 -1.9921  1.6541  0.9441
  137OSM   C14S14920   2.204   5.702   8.134  0.3996 -0.1864 -0.0550
  137OSM   H14S14921   2.133   5.617   8.137  0.8152 -0.5922 -1.1561
  137OSM   H14T14922   2.162   5.782   8.198 -0.2032  0.8798 -1.7101
  137OSM   C15S14923   2.340   5.665   8.191 -0.4440  0.2681 -0.9187
  137OSM   H15S14924   2.407   5.754   8.201 -0.4902  0.3048 -0.9357
  137OSM   H15T14925   2.392   5.583   8.139  1.2649 -0.2289  1.3810
  137OSM   C16S14926   2.337   5.624   8.337  0.0877 -0.3121  0.2747
  137OSM   H16S14927   2.311   5.708   8.404  3.2607  0.9332  0.1196
  137OSM   H16T14928   2.443   5.605   8.366  0.0104 -0.6809  0.3271
  137OSM   C17S14929   2.244   5.499   8.380 -0.4094  0.4661  1.1693
  137OSM   H17S14930   2.134   5.507   8.364 -0.3926 -2.4056 -1.1943
  137OSM   H17T14931   2.250   5.485   8.490  1.4015 -2.3137  0.8206
  137OSM   C18S14932   2.293   5.374   8.308  0.1376 -0.5328 -0.1247
  137OSM   H18S14933   2.402   5.355   8.320  0.7030  2.1277 -0.4608
  137OSM   H18T14934   2.277   5.387   8.199 -0.2409  1.8839  0.1582
  137OSM   H18U14935   2.254   5.278   8.349 -2.6389  0.4241 -0.3412
  137OSM    C1F14936   2.340   5.994   7.000 -0.4518  0.2113 -0.6655
  137OSM     OF14937   2.266   6.043   6.922  0.3822  0.3472 -0.0195
  137OSM    C2F14938   2.372   6.059   7.135 -0.7572 -0.1775 -0.1462
  137OSM    H2F14939   2.476   6.096   7.147 -0.7871 -0.2824  0.4742
  137OSM    H2G14940   2.366   5.980   7.213  0.7974 -0.6148 -0.4312
  137OSM    C3F14941   2.265   6.160   7.163 -0.3337 -0.0555 -0.4002
  137OSM    H3F14942   2.158   6.130   7.167  0.1791 -1.9943 -0.3029
  137OSM    H3G14943   2.275   6.243   7.089  1.9718  0.7994  0.7745
  137OSM    C4F14944   2.289   6.218   7.313  0.7473  0.8355 -0.7550
  137OSM    H4F14945   2.201   6.281   7.339 -1.2799 -1.2941 -2.0443
  137OSM    H4G14946   2.386   6.272   7.307  1.3558 -0.0976  0.2251
  137OSM    C5F14947   2.301   6.103   7.424 -0.5169  0.0597 -0.1193
  137OSM    H5F14948   2.410   6.077   7.427  0.2474  2.6193 -2.1096
  137OSM    H5G14949   2.241   6.013   7.401  1.1533 -0.7516 -1.5506
  137OSM    C6F14950   2.259   6.151   7.562 -0.0918 -0.2153 -0.6146
  137OSM    H6F14951   2.149   6.161   7.571 -0.1182  0.7382 -1.7270
  137OSM    H6G14952   2.310   6.245   7.590  1.4349 -1.5426  1.2889
  137OSM    C7F14953   2.291   6.041   7.654  0.4711  0.0323 -0.4718
  137OSM    H7F14954   2.400   6.032   7.673  0.5557 -1.6353 -1.4930
  137OSM    H7G14955   2.256   5.945   7.609  3.1655 -2.0361  1.5617
  137OSM    C8F14956   2.215   6.064   7.792 -0.3694  0.7277 -0.8010
  137OSM    H8F14957   2.243   5.979   7.856 -1.4135  0.2961 -0.8971
  137OSM    H8G14958   2.105   6.056   7.781 -0.3628  0.5568 -0.7433
  137OSM    C9F14959   2.249   6.198   7.855 -0.4944  0.0063  0.1559
  137OSM    H9F14960   2.246   6.287   7.790  1.4095  0.2695  0.3966
  137OSM   C10F14961   2.303   6.222   7.974  0.2955  0.3852 -0.6445
  137OSM   H10F14962   2.334   6.323   8.004  1.4825 -0.1781  0.1122
  137OSM   C11F14963   2.342   6.109   8.066 -0.0943  0.2614 -1.2444
  137OSM   H11F14964   2.367   6.010   8.022  0.4915 -0.8015  1.3369
  137OSM   H11G14965   2.263   6.093   8.143  0.4705 -0.5129 -0.8147
  137OSM   C12F14966   2.461   6.147   8.156 -0.0808  0.3951  0.1721
  137OSM   H12F14967   2.430   6.236   8.215  1.4859  2.0901 -1.4152
  137OSM   H12G14968   2.550   6.171   8.094 -0.7014 -0.6552 -1.1597
  137OSM   C13F14969   2.491   6.033   8.252  0.2528 -0.3453  0.3784
  137OSM   H13F14970   2.511   5.941   8.194  1.1451 -0.2631  0.5313
  137OSM   H13G14971   2.402   6.012   8.315  0.8661 -2.0412  0.7271
  137OSM   C14F14972   2.603   6.069   8.355  0.4907 -0.1071 -0.6164
  137OSM   H14F14973   2.578   6.162   8.412  1.0590  0.5587 -1.4353
  137OSM   H14G14974   2.692   6.099   8.295  0.6806 -1.3016 -0.9448
  137OSM   C15F14975   2.625   5.952   8.449  0.8110  0.3131 -0.1566
  137OSM   H15F14976   2.697   5.876   8.415  0.9393 -0.2001  1.2197
  137OSM   H15G14977   2.530   5.893   8.451  0.0037  1.5001 -1.1744
  137OSM   C16F14978   2.673   5.988   8.587  0.3309 -0.8105  0.9491
  137OSM   H16F14979   2.676   5.892   8.642  0.2685 -0.4585  1.5825
  137OSM   H16G14980   2.602   6.053   8.643  0.5457  0.9487 -0.7284
  137OSM   C17F14981   2.819   6.046   8.585  0.5036 -0.6103  0.1366
  137OSM   H17F14982   2.805   6.147   8.540  2.0507 -0.1068  0.7333
  137OSM   H17G14983   2.877   5.997   8.505 -1.5516 -1.2472 -1.0466
  137OSM   C18F14984   2.891   6.049   8.723 -0.6665 -0.1973  0.2270
  137OSM   H18F14985   2.981   6.113   8.708 -1.7125  0.8096 -2.2265
  137OSM   H18G14986   2.940   5.951   8.739  0.9391  0.8640  2.4373
  137OSM   H18H14987   2.822   6.087   8.801 -1.0358  1.4532 -0.8393
  138OSM      N14988   3.544   1.297   5.921  0.3524 -0.3716  0.4769
  138OSM    C1514989   3.462   1.405   5.973  0.4489 -0.2848  0.2992
  138OSM   H15A14990   3.469   1.493   5.911 -2.1330 -0.4001 -0.3034
  138OSM   H15B14991   3.494   1.427   6.074  1.5232 -1.3859  0.2226
  138OSM   H15C14992   3.356   1.382   5.974  0.2336  0.6701  1.4189
  138OSM    C1414993   3.484   1.259   5.795  0.1838 -0.7470  0.8510
  138OSM   H14A14994   3.379   1.236   5.800  0.4425 -2.6535 -1.0303
  138OSM   H14B14995   3.524   1.176   5.739  0.5349  0.2719 -0.4954
  138OSM   H14C14996   3.485   1.339   5.722 -0.8865 -1.9206 -0.4969
  138OSM    C1314997   3.687   1.347   5.894  0.1877  0.0599 -0.4912
  138OSM   H13A14998   3.749   1.264   5.863  0.3146  0.3751 -1.1010
  138OSM   H13B14999   3.730   1.374   5.989 -0.9010  3.4981 -0.8403
  138OSM   H13C15000   3.683   1.425   5.819  0.1176 -1.1155 -1.7353
  138OSM    C1215001   3.544   1.180   6.020  0.4494  0.3911 -0.2740
  138OSM   H12A15002   3.616   1.107   5.986  1.1433  0.8007  0.2862
  138OSM   H12B15003   3.450   1.128   6.010  1.2144 -1.1957  0.4073
  138OSM    C1115004   3.572   1.205   6.170 -0.7512 -0.1106  0.7989
  138OSM   H11A15005   3.555   1.109   6.223 -0.9886 -1.7875 -2.1036
  138OSM   H11B15006   3.505   1.280   6.218  0.1244 -0.9453  3.4888
  138OSM      P15007   3.836   1.169   6.173  0.2686 -0.0183 -0.3582
  138OSM    O1315008   3.797   1.037   6.112  0.2849 -0.0417 -0.0856
  138OSM    O1415009   3.940   1.248   6.103  0.1555  0.2242 -0.4672
  138OSM    O1115010   3.891   1.150   6.317 -0.3423 -0.0993  0.1563
  138OSM    O1215011   3.703   1.253   6.193 -0.9966 -0.0037 -0.0315
  138OSM    C1S15012   3.825   1.208   6.426 -0.6405  0.7146  0.2289
  138OSM    H1S15013   3.725   1.162   6.441  0.1314 -0.6894  1.3207
  138OSM    H1T15014   3.814   1.319   6.419  1.3770  0.8925 -0.9693
  138OSM     NF15015   3.824   1.191   6.682 -0.6643 -0.7280  0.0771
  138OSM    HNF15016   3.836   1.270   6.742  1.8913  0.0742 -1.3438
  138OSM    C2S15017   3.912   1.184   6.561  0.5425  0.1320  0.6612
  138OSM    H2S15018   3.947   1.079   6.551 -0.0713  0.0641 -0.9953
  138OSM    C3S15019   4.034   1.274   6.565  0.6134  0.1837  0.0283
  138OSM    H3S15020   3.999   1.377   6.588 -3.4969 -0.7974 -1.0699
  138OSM     O315021   4.099   1.283   6.438  0.1268 -0.1315  0.0486
  138OSM    HO315022   4.047   1.226   6.382  0.2840 -0.1028 -0.1287
  138OSM    C4S15023   4.128   1.227   6.676 -0.3184 -0.1109 -0.1711
  138OSM    H4S15024   4.076   1.236   6.772 -0.1785  0.6948 -0.1656
  138OSM    C5S15025   4.249   1.166   6.678  0.7482  0.3438  0.6953
  138OSM    H5S15026   4.307   1.156   6.584  1.4830  0.1676  1.1607
  138OSM    C6S15027   4.328   1.122   6.798  0.6874  0.3720 -0.1689
  138OSM    H6S15028   4.435   1.146   6.785  1.0242 -0.0130  1.6468
  138OSM    H6T15029   4.315   1.013   6.818 -1.7789  0.8507  1.2044
  138OSM    C7S15030   4.283   1.194   6.929 -0.0634  0.5633  0.2519
  138OSM    H7S15031   4.172   1.196   6.936  0.0153  1.8646  1.6709
  138OSM    H7T15032   4.315   1.300   6.940  0.7551  0.1886  1.7211
  138OSM    C8S15033   4.344   1.128   7.052 -0.2741  0.1537  0.5755
  138OSM    H8S15034   4.455   1.128   7.037 -0.4173 -0.0683 -0.6192
  138OSM    H8T15035   4.314   1.022   7.066  1.9264 -0.8188 -1.3352
  138OSM    C9S15036   4.321   1.201   7.181 -0.1788 -0.3162  0.0003
  138OSM    H9S15037   4.211   1.211   7.186 -0.1227  0.1796  0.2984
  138OSM    H9T15038   4.359   1.305   7.181  2.0630 -1.0537 -1.7947
  138OSM   C10S15039   4.391   1.130   7.299  0.1674  0.0979 -0.1319
  138OSM   H10S15040   4.502   1.136   7.290  0.5195 -2.0932  1.8614
  138OSM   H10T15041   4.372   1.021   7.303 -0.0944  0.1738  1.4273
  138OSM   C11S15042   4.355   1.202   7.429  0.0261 -0.9358  0.4493
  138OSM   H11S15043   4.248   1.186   7.455  0.6486  0.1854  4.3840
  138OSM   H11T15044   4.371   1.310   7.413 -1.1478 -0.7742  0.2836
  138OSM   C12S15045   4.443   1.167   7.554  0.6230 -0.0714  0.2213
  138OSM   H12S15046   4.551   1.182   7.531  0.5087  1.1493  0.4208
  138OSM   H12T15047   4.433   1.056   7.562  3.2929 -0.3267  0.9904
  138OSM   C13S15048   4.404   1.248   7.675 -0.3275  1.1604 -0.4780
  138OSM   H13S15049   4.300   1.222   7.701 -0.0019 -0.1209 -0.3922
  138OSM   H13T15050   4.393   1.354   7.643  2.2055  1.1841 -1.5766
  138OSM   C14S15051   4.494   1.224   7.800  0.1188  0.4755 -0.4264
  138OSM   H14S15052   4.600   1.234   7.767  0.3617 -0.3204  0.1068
  138OSM   H14T15053   4.464   1.123   7.836 -1.3920  0.0412 -2.6072
  138OSM   C15S15054   4.475   1.335   7.901 -0.7300 -0.4569  0.3095
  138OSM   H15S15055   4.467   1.436   7.857 -2.9932 -0.0657  1.4418
  138OSM   H15T15056   4.562   1.347   7.969 -1.2418  0.6477  0.7905
  138OSM   C16S15057   4.345   1.324   7.980  0.1116 -0.6507  0.1681
  138OSM   H16S15058   4.320   1.220   8.011  0.3753 -0.3454  1.4576
  138OSM   H16T15059   4.255   1.369   7.934  0.5269  0.7871  0.7208
  138OSM   C17S15060   4.367   1.402   8.113 -0.6832  0.8159 -0.0130
  138OSM   H17S15061   4.389   1.509   8.091  2.0348  0.7668  1.8916
  138OSM   H17T15062   4.456   1.364   8.169  0.0832  1.2606 -0.8989
  138OSM   C18S15063   4.255   1.394   8.217  0.0745  0.3606 -0.0955
  138OSM   H18S15064   4.163   1.426   8.165 -0.2203  0.3916  0.4424
  138OSM   H18T15065   4.268   1.475   8.292  1.6466  0.8405 -0.8296
  138OSM   H18U15066   4.238   1.295   8.264 -1.7680 -0.0058 -1.4384
  138OSM    C1F15067   3.723   1.109   6.700  0.1365  0.3279 -0.0283
  138OSM     OF15068   3.705   1.014   6.630  0.8757  0.3054  0.4859
  138OSM    C2F15069   3.626   1.127   6.813  0.4518  0.2454  0.0793
  138OSM    H2F15070   3.677   1.200   6.879 -0.6455 -0.2651  1.5466
  138OSM    H2G15071   3.627   1.038   6.879 -0.8857 -0.4149 -0.7467
  138OSM    C3F15072   3.486   1.179   6.776  0.7547  0.4650 -0.3428
  138OSM    H3F15073   3.433   1.101   6.717 -0.8395  0.7738  0.6138
  138OSM    H3G15074   3.503   1.270   6.714  2.4679  1.3597  1.3630
  138OSM    C4F15075   3.398   1.215   6.897  0.4084  0.6868 -0.2918
  138OSM    H4F15076   3.300   1.257   6.864  0.0166 -0.7659 -1.0849
  138OSM    H4G15077   3.448   1.286   6.966  0.7116  1.5078 -1.3192
  138OSM    C5F15078   3.346   1.094   6.981 -0.1654  0.2020 -0.1856
  138OSM    H5F15079   3.431   1.027   7.006  0.2029 -0.0986 -2.0788
  138OSM    H5G15080   3.270   1.042   6.918 -0.8422  1.2994 -0.3011
  138OSM    C6F15081   3.278   1.141   7.112  0.3249 -0.0531  0.5563
  138OSM    H6F15082   3.195   1.215   7.105  1.9918  1.7760 -1.3795
  138OSM    H6G15083   3.367   1.198   7.147  1.1490  0.0036 -1.5112
  138OSM    C7F15084   3.261   1.027   7.213 -0.3275 -0.5965  0.4062
  138OSM    H7F15085   3.365   1.003   7.243 -0.0061  0.2855  0.0446
  138OSM    H7G15086   3.226   0.933   7.166 -0.9863  0.5751 -1.5402
  138OSM    C8F15087   3.195   1.076   7.336  0.3204 -0.1134  0.3878
  138OSM    H8F15088   3.091   1.101   7.306  0.3122 -2.5793 -2.0175
  138OSM    H8G15089   3.242   1.168   7.377 -1.4189  0.4831  1.1520
  138OSM    C9F15090   3.196   0.967   7.439  0.4442  0.4602  0.1835
  138OSM    H9F15091   3.180   0.870   7.388  2.0308  0.9493 -1.3247
  138OSM   C10F15092   3.198   0.964   7.573 -0.7920  0.0243 -0.9082
  138OSM   H10F15093   3.207   0.864   7.617  1.6308  0.4652 -0.2386
  138OSM   C11F15094   3.210   1.081   7.671 -0.5572 -0.0680 -0.5341
  138OSM   H11F15095   3.110   1.120   7.698  0.8622  2.1940  2.0084
  138OSM   H11G15096   3.267   1.169   7.633 -0.4254  1.2585  2.4201
  138OSM   C12F15097   3.254   1.038   7.812 -0.2401 -0.1789  0.1314
  138OSM   H12F15098   3.357   0.998   7.798 -0.6000 -1.2424  0.4225
  138OSM   H12G15099   3.188   0.955   7.846  0.0076 -0.5500 -0.2786
  138OSM   C13F15100   3.232   1.147   7.920 -0.7781 -0.0509  0.0796
  138OSM   H13F15101   3.126   1.179   7.935 -0.9663 -1.3721  1.8834
  138OSM   H13G15102   3.282   1.242   7.891 -2.3055  1.2390  1.5160
  138OSM   C14F15103   3.303   1.110   8.051  0.5652 -0.4103 -0.3686
  138OSM   H14F15104   3.278   1.194   8.120 -2.3738  0.0914 -1.8846
  138OSM   H14G15105   3.411   1.094   8.029  1.0334  1.8761 -0.0439
  138OSM   C15F15106   3.241   0.979   8.122  0.2719  0.6524 -0.4109
  138OSM   H15F15107   3.269   0.893   8.056 -2.5386 -2.2011  1.8066
  138OSM   H15G15108   3.131   0.985   8.137  0.5809  0.7281  2.2083
  138OSM   C16F15109   3.298   0.954   8.257 -0.6028  0.2360  0.2561
  138OSM   H16F15110   3.280   1.043   8.321 -0.0167  1.7100 -1.5233
  138OSM   H16G15111   3.408   0.941   8.244 -0.5400 -0.6495  1.4886
  138OSM   C17F15112   3.242   0.830   8.322 -0.9326  0.2803 -1.2014
  138OSM   H17F15113   3.252   0.742   8.255  0.9144 -0.6870  0.2573
  138OSM   H17G15114   3.136   0.847   8.352 -0.1605  1.1157  1.3236
  138OSM   C18F15115   3.320   0.808   8.452  0.2336 -0.2963  0.4694
  138OSM   H18F15116   3.333   0.906   8.501  1.6567  0.7908 -1.9134
  138OSM   H18G15117   3.425   0.772   8.436  0.2111 -1.5567  2.6801
  138OSM   H18H15118   3.269   0.733   8.516  2.4804 -1.2901  1.2119
  139OSM      N15119   2.448   3.010   6.068  0.6467 -0.7284  0.1024
  139OSM    C1515120   2.442   3.162   6.092 -0.3477  0.3816  0.0748
  139OSM   H15A15121   2.351   3.187   6.144 -1.4962 -0.0723 -1.6308
  139OSM   H15B15122   2.436   3.216   5.998 -0.7994  0.3468  0.0803
  139OSM   H15C15123   2.518   3.197   6.160 -0.4954  1.9192 -0.4874
  139OSM    C1415124   2.331   2.982   5.973 -0.5182 -0.1855  0.5347
  139OSM   H14A15125   2.318   3.065   5.906  0.9761 -1.5141 -1.5357
  139OSM   H14B15126   2.238   2.954   6.020 -1.2030 -0.6576 -1.0424
  139OSM   H14C15127   2.357   2.900   5.907 -2.0781 -2.1225  2.1921
  139OSM    C1315128   2.578   2.965   6.003  0.0869  0.4661  0.5477
  139OSM   H13A15129   2.659   2.994   6.069  1.1588 -0.3511 -0.3693
  139OSM   H13B15130   2.606   3.021   5.915  2.5514 -0.9989  0.3152
  139OSM   H13C15131   2.574   2.861   5.974  0.7362  0.6002 -0.0553
  139OSM    C1215132   2.431   2.934   6.200  0.3439 -0.3584 -0.3253
  139OSM   H12A15133   2.508   2.952   6.273 -1.2868 -1.7334  1.8807
  139OSM   H12B15134   2.447   2.829   6.178 -0.5927 -0.9863  1.7283
  139OSM    C1115135   2.307   2.966   6.284  0.3218  0.0407  0.4584
  139OSM   H11A15136   2.297   2.894   6.368  0.5690 -1.5036 -0.7798
  139OSM   H11B15137   2.210   2.960   6.232  0.2928 -2.2628  0.6627
  139OSM      P15138   2.438   3.128   6.444  0.0822 -0.2347 -0.1088
  139OSM    O1315139   2.568   3.122   6.376  0.0234 -0.0901  0.4530
  139OSM    O1415140   2.416   3.263   6.501 -0.0299  0.2877  0.0233
  139OSM    O1115141   2.421   3.012   6.546  0.0091 -0.1334  0.1305
  139OSM    O1215142   2.315   3.093   6.345 -0.1554 -0.2904  0.4979
  139OSM    C1S15143   2.480   3.023   6.674 -0.6139 -0.0095 -0.6204
  139OSM    H1S15144   2.568   3.089   6.688  1.3100 -3.0389  4.7885
  139OSM    H1T15145   2.522   2.921   6.690 -0.4890 -0.3646 -2.8413
  139OSM     NF15146   2.442   3.089   6.914 -0.6280 -0.2256 -0.0345
  139OSM    HNF15147   2.410   3.029   6.988  2.0100 -1.1186  0.5017
  139OSM    C2S15148   2.376   3.075   6.784 -0.0946  0.4170  0.6081
  139OSM    H2S15149   2.339   3.177   6.760  0.4794  0.9648  2.0073
  139OSM    C3S15150   2.255   2.980   6.782 -0.0658  0.1615 -0.2687
  139OSM    H3S15151   2.293   2.876   6.793  0.8102  0.1717 -2.6994
  139OSM     O315152   2.174   2.981   6.666 -0.1486  0.0995 -0.0677
  139OSM    HO315153   2.227   3.033   6.604  2.4950  0.1364  2.0587
  139OSM    C4S15154   2.161   2.999   6.896  0.0274 -0.4505  0.6550
  139OSM    H4S15155   2.123   3.102   6.906  0.3463 -0.3386  0.6972
  139OSM    C5S15156   2.115   2.901   6.975 -0.1817 -0.4643 -0.4941
  139OSM    H5S15157   2.144   2.796   6.956  0.1895 -0.7652  1.4847
  139OSM    C6S15158   2.018   2.930   7.090 -0.0725  0.0306  0.3243
  139OSM    H6S15159   2.019   2.837   7.151  2.2713 -0.0495  0.2473
  139OSM    H6T15160   1.915   2.937   7.050 -0.1275 -1.8566  0.0246
  139OSM    C7S15161   2.038   3.055   7.181 -0.2922  0.8711 -0.1488
  139OSM    H7S15162   2.036   3.145   7.116  1.6416  1.1966  0.1753
  139OSM    H7T15163   2.141   3.050   7.223 -0.9841 -1.6448  1.4893
  139OSM    C8S15164   1.939   3.070   7.296 -0.6796  0.5486 -0.3428
  139OSM    H8S15165   1.935   2.971   7.346 -0.4875 -0.0110 -1.4057
  139OSM    H8T15166   1.836   3.081   7.254 -0.9919 -0.1125  0.2213
  139OSM    C9S15167   1.964   3.179   7.405  0.3694 -0.4002  0.7704
  139OSM    H9S15168   1.866   3.195   7.456  0.4439  0.7746  0.5760
  139OSM    H9T15169   1.978   3.273   7.349 -1.5595 -0.2113  0.5192
  139OSM   C10S15170   2.071   3.151   7.505  0.2058 -0.4017  0.1926
  139OSM   H10S15171   2.166   3.137   7.448 -0.4284  0.0148 -1.0107
  139OSM   H10T15172   2.050   3.051   7.549  1.1618 -0.3932  0.7069
  139OSM   C11S15173   2.080   3.258   7.616  0.5891  0.0801 -0.9297
  139OSM   H11S15174   1.979   3.296   7.640  0.9846  0.3356  0.4531
  139OSM   H11T15175   2.150   3.336   7.579 -0.4576  1.5022 -0.0047
  139OSM   C12S15176   2.128   3.198   7.748 -0.2015 -0.6731 -0.4199
  139OSM   H12S15177   2.211   3.127   7.727  0.6964  0.5479 -1.1481
  139OSM   H12T15178   2.052   3.130   7.794  1.3885 -1.5599  1.0297
  139OSM   C13S15179   2.175   3.310   7.841 -0.1302 -0.1128 -0.0046
  139OSM   H13S15180   2.112   3.312   7.932 -1.1179 -0.1918 -0.6652
  139OSM   H13T15181   2.161   3.410   7.794 -1.8518 -0.3342 -0.0124
  139OSM   C14S15182   2.326   3.305   7.877 -0.0641 -0.0247 -0.1865
  139OSM   H14S15183   2.381   3.316   7.781 -0.6583  0.3671 -0.4830
  139OSM   H14T15184   2.341   3.201   7.916  0.4084  0.5093  1.1245
  139OSM   C15S15185   2.375   3.401   7.992 -0.1565 -0.3727 -1.1405
  139OSM   H15S15186   2.483   3.382   8.012  0.4563  0.9575 -2.8712
  139OSM   H15T15187   2.311   3.373   8.078  0.4126  1.1426 -0.1896
  139OSM   C16S15188   2.349   3.556   7.954 -0.3886 -0.0568 -0.1536
  139OSM   H16S15189   2.248   3.568   7.910  0.3062 -1.8745 -2.4856
  139OSM   H16T15190   2.424   3.581   7.875 -1.1478  0.5032 -0.7047
  139OSM   C17S15191   2.370   3.643   8.081 -0.3729 -0.1298 -0.1909
  139OSM   H17S15192   2.457   3.600   8.135  0.3067  0.2022 -0.9901
  139OSM   H17T15193   2.290   3.626   8.157 -0.5260 -0.1678 -0.3598
  139OSM   C18S15194   2.389   3.788   8.062 -0.4197 -0.5071 -0.1425
  139OSM   H18S15195   2.467   3.813   7.987 -0.4803  1.7801  0.4849
  139OSM   H18T15196   2.406   3.855   8.149 -0.6800  0.0565 -0.5130
  139OSM   H18U15197   2.301   3.826   8.005  2.1180  5.7293 -0.7031
  139OSM    C1F15198   2.531   3.178   6.942 -0.1033 -0.1442 -0.1388
  139OSM     OF15199   2.551   3.273   6.870  0.1014 -0.4944 -0.3081
  139OSM    C2F15200   2.597   3.159   7.077  0.0654 -0.2983 -0.1939
  139OSM    H2F15201   2.624   3.256   7.124 -1.0469 -0.0416 -0.0701
  139OSM    H2G15202   2.687   3.095   7.062 -0.8366 -1.3109 -1.4587
  139OSM    C3F15203   2.509   3.086   7.185 -0.3159  0.2253 -0.3176
  139OSM    H3F15204   2.478   2.987   7.145 -0.2526  1.3213 -3.3080
  139OSM    H3G15205   2.416   3.145   7.188  0.3892  1.3599 -0.0167
  139OSM    C4F15206   2.576   3.065   7.320 -0.1525 -0.1712  0.0165
  139OSM    H4F15207   2.592   3.164   7.366 -1.6881  0.1911 -0.1577
  139OSM    H4G15208   2.675   3.015   7.314  0.6300  1.3500 -0.3265
  139OSM    C5F15209   2.482   2.999   7.414 -0.6665 -0.0849  0.0002
  139OSM    H5F15210   2.457   2.898   7.375  0.2482  0.6465 -2.7597
  139OSM    H5G15211   2.384   3.050   7.401 -0.7030  0.2874  1.5671
  139OSM    C6F15212   2.528   3.015   7.560 -0.5068 -0.4156 -0.1204
  139OSM    H6F15213   2.513   3.120   7.591  2.0689  0.7697 -2.4072
  139OSM    H6G15214   2.635   2.986   7.570 -0.8629 -1.4688  0.8146
  139OSM    C7F15215   2.459   2.922   7.661  0.5341  0.0801 -0.3155
  139OSM    H7F15216   2.479   2.823   7.615  2.4581  0.1706  0.2418
  139OSM    H7G15217   2.349   2.939   7.664  0.7047  1.9279 -2.0197
  139OSM    C8F15218   2.515   2.931   7.796 -0.6731  0.1072  0.3692
  139OSM    H8F15219   2.528   3.037   7.828 -0.4683 -0.4770  2.3782
  139OSM    H8G15220   2.620   2.895   7.806 -0.1094  1.4074 -0.5589
  139OSM    C9F15221   2.424   2.867   7.900  0.4191  0.2229 -0.6657
  139OSM    H9F15222   2.317   2.881   7.877  0.3467  0.8938  0.0386
  139OSM   C10F15223   2.458   2.790   8.013  0.2237 -0.9196  0.3802
  139OSM   H10F15224   2.380   2.755   8.083 -0.7539 -0.7784 -0.6029
  139OSM   C11F15225   2.596   2.742   8.056 -0.5999  0.0931 -0.2437
  139OSM   H11F15226   2.673   2.800   8.002  0.3019  0.3066  1.2380
  139OSM   H11G15227   2.605   2.637   8.019 -2.6263 -0.2612  0.1345
  139OSM   C12F15228   2.627   2.723   8.204  0.0674  0.3939 -0.3956
  139OSM   H12F15229   2.724   2.672   8.217 -0.2204  0.0020  0.2717
  139OSM   H12G15230   2.542   2.671   8.253  0.9901 -0.5768  0.1978
  139OSM   C13F15231   2.659   2.867   8.257 -0.4657  0.3914  0.1032
  139OSM   H13F15232   2.570   2.930   8.235 -1.3542 -1.6313 -2.6747
  139OSM   H13G15233   2.747   2.913   8.207  1.3558 -0.6339  2.2011
  139OSM   C14F15234   2.686   2.869   8.405  0.4011  0.1714  0.2422
  139OSM   H14F15235   2.778   2.809   8.421  1.2022  1.0751 -0.7854
  139OSM   H14G15236   2.594   2.837   8.458 -1.6255  2.7264 -1.5179
  139OSM   C15F15237   2.733   3.007   8.457  0.8298 -0.0110  0.6120
  139OSM   H15F15238   2.648   3.072   8.427  0.7082 -0.5024 -0.1470
  139OSM   H15G15239   2.810   3.047   8.387  0.0671 -1.9317 -1.4568
  139OSM   C16F15240   2.791   2.994   8.597 -0.1492 -0.3307  0.1654
  139OSM   H16F15241   2.830   3.086   8.645  3.0299 -0.8730 -1.0910
  139OSM   H16G15242   2.890   2.944   8.584  0.2365  0.3486  0.4325
  139OSM   C17F15243   2.696   2.925   8.693  0.6035  0.0036  0.3953
  139OSM   H17F15244   2.649   2.831   8.657  0.1325 -0.0970  1.2312
  139OSM   H17G15245   2.608   2.985   8.724  0.5811 -0.0253  0.3885
  139OSM   C18F15246   2.770   2.878   8.823 -0.1865 -0.5366  0.7983
  139OSM   H18F15247   2.794   2.964   8.888  0.1991 -1.3306  1.7277
  139OSM   H18G15248   2.861   2.829   8.781 -1.3295 -2.0160 -0.0590
  139OSM   H18H15249   2.719   2.804   8.888 -1.0198 -0.2762  0.4531
  140OSM      N15250   2.747   4.107   6.422 -0.2328 -0.7304 -0.1539
  140OSM    C1515251   2.646   4.158   6.319 -0.3283  0.2961 -0.6089
  140OSM   H15A15252   2.669   4.132   6.217  0.1423  2.5760 -1.1526
  140OSM   H15B15253   2.655   4.266   6.315  0.1087  0.2964  0.1885
  140OSM   H15C15254   2.547   4.121   6.338  0.6874 -2.3894 -0.1472
  140OSM    C1415255   2.721   3.964   6.438  0.2791  0.2381  0.2226
  140OSM   H14A15256   2.786   3.926   6.515  1.2921  0.0175 -0.7243
  140OSM   H14B15257   2.731   3.897   6.355 -1.4227 -0.5986  0.6326
  140OSM   H14C15258   2.615   3.959   6.462  0.1682 -0.0432 -0.3106
  140OSM    C1315259   2.890   4.129   6.378 -0.1998 -0.0801  0.8940
  140OSM   H13A15260   2.969   4.098   6.445  0.8673  0.9985  0.1890
  140OSM   H13B15261   2.899   4.235   6.356  0.2365 -0.0955  0.9980
  140OSM   H13C15262   2.908   4.079   6.284 -1.3109  0.9359  0.1155
  140OSM    C1215263   2.718   4.187   6.552 -0.8168 -0.2182 -0.2586
  140OSM   H12A15264   2.789   4.150   6.625 -2.1181 -2.8706 -0.1985
  140OSM   H12B15265   2.625   4.157   6.598 -0.5138  0.5632  0.9213
  140OSM    C1115266   2.725   4.340   6.545 -0.0662  0.9026  0.2494
  140OSM   H11A15267   2.724   4.371   6.652  2.6360  0.7239  0.3849
  140OSM   H11B15268   2.643   4.394   6.492  2.2011  2.2208 -2.1269
  140OSM      P15269   2.858   4.541   6.455 -0.1322  0.2290 -0.1472
  140OSM    O1315270   2.998   4.577   6.438  0.0076  0.7045  0.3703
  140OSM    O1415271   2.755   4.585   6.360 -0.7189 -0.4259  0.5524
  140OSM    O1115272   2.819   4.600   6.595 -0.4573 -0.3596  0.0879
  140OSM    O1215273   2.848   4.394   6.488 -0.7644  0.1585 -0.5008
  140OSM    C1S15274   2.899   4.566   6.710  0.5654 -0.4620  0.1298
  140OSM    H1S15275   3.009   4.567   6.693  0.6050 -1.2884  0.2675
  140OSM    H1T15276   2.873   4.463   6.742  2.3533 -0.9114  0.2914
  140OSM     NF15277   2.954   4.665   6.927 -0.4700 -0.3884  0.2302
  140OSM    HNF15278   2.919   4.611   7.004  0.6914 -3.4440 -1.2267
  140OSM    C2S15279   2.860   4.660   6.820  1.0362  0.0942 -0.0409
  140OSM    H2S15280   2.853   4.760   6.773  2.5933  0.6699  0.8730
  140OSM    C3S15281   2.724   4.604   6.867 -0.3927  0.5798 -0.5238
  140OSM    H3S15282   2.743   4.504   6.911 -1.0442  0.4209 -0.5938
  140OSM     O315283   2.621   4.590   6.766 -0.4562 -0.2224 -0.2797
  140OSM    HO315284   2.674   4.571   6.688 -1.1673 -2.1893 -0.3445
  140OSM    C4S15285   2.672   4.695   6.988 -0.5396  0.1558  0.1848
  140OSM    H4S15286   2.652   4.799   6.960 -0.6718  0.1011  0.0758
  140OSM    C5S15287   2.654   4.642   7.112 -0.0315 -1.3528 -0.7478
  140OSM    H5S15288   2.686   4.541   7.141  0.4709 -0.9548  0.1299
  140OSM    C6S15289   2.614   4.732   7.226  0.0435 -0.0095 -0.0856
  140OSM    H6S15290   2.505   4.752   7.230 -0.6383 -2.9537 -1.3186
  140OSM    H6T15291   2.666   4.830   7.220  1.0615 -0.3464  2.2003
  140OSM    C7S15292   2.663   4.683   7.363 -0.2297  0.5725  0.2120
  140OSM    H7S15293   2.772   4.702   7.359 -0.5621  2.9615  0.7020
  140OSM    H7T15294   2.638   4.575   7.374  0.0780  0.5731  0.9686
  140OSM    C8S15295   2.596   4.759   7.473 -0.3867  0.1611  0.1332
  140OSM    H8S15296   2.490   4.727   7.464 -0.3820  0.4651 -1.2860
  140OSM    H8T15297   2.603   4.869   7.464 -0.7332  0.0554 -1.8919
  140OSM    C9S15298   2.651   4.710   7.610  0.0017 -0.5804  1.0927
  140OSM    H9S15299   2.754   4.746   7.633  0.5836 -2.2636  1.2810
  140OSM    H9T15300   2.652   4.599   7.612  0.3437 -0.5739  1.4968
  140OSM   C10S15301   2.566   4.754   7.735  0.1437  0.3947 -0.1702
  140OSM   H10S15302   2.463   4.720   7.712 -0.0269  0.3726  0.5894
  140OSM   H10T15303   2.574   4.865   7.739  1.0341  0.3364 -0.0333
  140OSM   C11S15304   2.616   4.717   7.879  0.1866 -0.1443  0.1656
  140OSM   H11S15305   2.723   4.745   7.893  0.4517 -0.7424 -0.6411
  140OSM   H11T15306   2.615   4.606   7.874  0.2539 -0.3313  2.8336
  140OSM   C12S15307   2.536   4.774   7.994 -0.7895 -0.2760  0.2896
  140OSM   H12S15308   2.431   4.760   7.960 -0.6904 -0.9180  0.2312
  140OSM   H12T15309   2.555   4.883   8.002 -1.0704 -0.0221 -1.9256
  140OSM   C13S15310   2.561   4.692   8.123 -0.0184  0.0244  0.1296
  140OSM   H13S15311   2.665   4.713   8.156  0.5317  0.2335 -1.6033
  140OSM   H13T15312   2.551   4.583   8.102  0.5550 -0.2163  1.0670
  140OSM   C14S15313   2.450   4.714   8.229 -0.9764  0.1371  0.4328
  140OSM   H14S15314   2.351   4.739   8.186 -1.7122 -1.2614  1.2625
  140OSM   H14T15315   2.492   4.803   8.281 -0.7211 -0.0784  0.5971
  140OSM   C15S15316   2.425   4.595   8.331 -0.0632 -0.5043  0.0317
  140OSM   H15S15317   2.517   4.569   8.388 -0.3115  0.4091  0.8650
  140OSM   H15T15318   2.399   4.515   8.257 -0.4454  1.4559 -2.0605
  140OSM   C16S15319   2.303   4.617   8.416  0.2824  0.4726 -0.8225
  140OSM   H16S15320   2.259   4.532   8.473 -1.3698  2.5561  1.2350
  140OSM   H16T15321   2.216   4.655   8.359 -2.7683 -0.8245  2.5572
  140OSM   C17S15322   2.341   4.715   8.532  0.1324  0.5044 -0.8644
  140OSM   H17S15323   2.443   4.707   8.575  0.7444  0.8447 -2.2118
  140OSM   H17T15324   2.267   4.694   8.613 -3.4115  2.1219 -3.4177
  140OSM   C18S15325   2.308   4.859   8.487 -0.1052  0.2309 -0.1336
  140OSM   H18S15326   2.401   4.913   8.459  0.7903 -0.4295  1.4285
  140OSM   H18T15327   2.266   4.913   8.575 -0.9389 -0.7566  0.0935
  140OSM   H18U15328   2.228   4.860   8.410 -2.7024  4.0412  2.2580
  140OSM    C1F15329   3.080   4.711   6.914 -0.2378  0.0031 -0.2625
  140OSM     OF15330   3.130   4.746   6.809  0.3636  0.1344 -0.3723
  140OSM    C2F15331   3.169   4.706   7.026  0.7342  0.1167 -0.0293
  140OSM    H2F15332   3.262   4.649   7.001 -0.2213 -2.0949  1.1544
  140OSM    H2G15333   3.127   4.662   7.119  2.5583 -0.7916  0.4152
  140OSM    C3F15334   3.221   4.843   7.076  0.0369  0.0075  0.1028
  140OSM    H3F15335   3.239   4.910   6.990 -0.8693 -0.4733 -0.4696
  140OSM    H3G15336   3.323   4.832   7.120 -0.4177 -0.0494  1.1867
  140OSM    C4F15337   3.138   4.913   7.195 -0.2364  0.1461  0.8132
  140OSM    H4F15338   3.038   4.948   7.161 -0.9823 -1.8881  0.7425
  140OSM    H4G15339   3.190   5.007   7.221  0.7908 -0.7971  2.3163
  140OSM    C5F15340   3.129   4.838   7.329  0.2839 -0.0512 -0.9269
  140OSM    H5F15341   3.210   4.764   7.342  2.1940  1.7832 -1.8049
  140OSM    H5G15342   3.026   4.796   7.330  0.0973  0.3342  1.4702
  140OSM    C6F15343   3.115   4.940   7.447  1.0437 -0.2062  0.1343
  140OSM    H6F15344   3.027   5.003   7.421  0.8790 -1.3887 -2.6248
  140OSM    H6G15345   3.204   5.006   7.458  0.7773 -0.0538  1.4370
  140OSM    C7F15346   3.109   4.873   7.582  0.3780  0.5334 -0.4894
  140OSM    H7F15347   3.188   4.794   7.586  0.7231  0.9030  0.2323
  140OSM    H7G15348   3.012   4.822   7.596 -0.4669  2.4380  1.0892
  140OSM    C8F15349   3.142   4.978   7.699 -0.1588  0.4343  0.0651
  140OSM    H8F15350   3.224   5.042   7.660  0.4314 -0.8742 -0.9200
  140OSM    H8G15351   3.180   4.908   7.777 -0.2920 -0.5928 -0.7783
  140OSM    C9F15352   3.022   5.048   7.752  0.5504  0.0095 -0.3161
  140OSM    H9F15353   2.984   5.118   7.676 -0.2279  2.6133  2.2557
  140OSM   C10F15354   2.944   5.033   7.867 -0.0385  0.6312  0.2109
  140OSM   H10F15355   2.849   5.089   7.864 -0.3832  0.0893  0.6558
  140OSM   C11F15356   2.967   4.944   7.990  0.8584  1.1692  0.2720
  140OSM   H11F15357   2.981   4.839   7.960 -1.9642  0.7787  0.0345
  140OSM   H11G15358   2.877   4.947   8.056  1.0342 -0.9197  0.6499
  140OSM   C12F15359   3.090   4.987   8.074 -0.0693  0.2743 -0.4085
  140OSM   H12F15360   3.069   5.093   8.100  3.5994  1.1997 -0.5754
  140OSM   H12G15361   3.178   4.973   8.008 -0.3951  1.6514 -1.1722
  140OSM   C13F15362   3.089   4.910   8.203  0.0439 -0.5523 -0.0369
  140OSM   H13F15363   3.101   4.803   8.173 -0.2474 -0.9064  1.0658
  140OSM   H13G15364   2.997   4.930   8.261  1.1500  0.0489  1.5890
  140OSM   C14F15365   3.200   4.957   8.292  0.7612  0.1670 -0.4782
  140OSM   H14F15366   3.180   5.064   8.314  0.1871 -0.1235  0.4797
  140OSM   H14G15367   3.296   4.933   8.242  0.8907 -1.3289  0.4337
  140OSM   C15F15368   3.206   4.868   8.425  0.0461  0.2764 -0.1154
  140OSM   H15F15369   3.233   4.768   8.384 -0.0207 -0.2986  1.2001
  140OSM   H15G15370   3.108   4.858   8.476 -1.6764 -2.2838 -3.4600
  140OSM   C16F15371   3.316   4.900   8.526  0.0309  0.1569 -0.8501
  140OSM   H16F15372   3.296   5.004   8.561 -2.0186 -0.7874  1.0819
  140OSM   H16G15373   3.418   4.880   8.488  0.6053 -1.5135  1.3082
  140OSM   C17F15374   3.284   4.808   8.647 -0.1697 -0.0950  0.2402
  140OSM   H17F15375   3.310   4.703   8.625 -0.5712 -0.5422  1.7887
  140OSM   H17G15376   3.182   4.818   8.689  0.0821 -1.0269  1.0919
  140OSM   C18F15377   3.376   4.852   8.759 -0.1403  0.1620  0.5173
  140OSM   H18F15378   3.378   4.963   8.763 -0.1312  0.2484 -1.0555
  140OSM   H18G15379   3.474   4.812   8.725 -0.5113 -0.5076  0.2377
  140OSM   H18H15380   3.349   4.800   8.853 -1.3873  2.4616  1.5248
  141OSM      N15381   1.844   6.492   6.175  1.1926  0.5301 -0.6151
  141OSM    C1515382   1.813   6.597   6.076 -0.3044  0.3883  0.2093
  141OSM   H15A15383   1.721   6.584   6.022  1.4359  0.5784 -3.1257
  141OSM   H15B15384   1.887   6.598   5.996 -0.4850  0.2771  0.0417
  141OSM   H15C15385   1.814   6.696   6.119 -0.1782 -0.9187  3.4410
  141OSM    C1415386   1.721   6.480   6.267 -0.6707  0.1749  0.5030
  141OSM   H14A15387   1.704   6.576   6.313  1.7693  1.1597 -0.5038
  141OSM   H14B15388   1.723   6.396   6.334 -0.3340 -0.4959 -0.3235
  141OSM   H14C15389   1.632   6.468   6.206  0.5575  1.7918 -1.7902
  141OSM    C1315390   1.851   6.365   6.088  0.0236 -0.0124  0.5070
  141OSM   H13A15391   1.844   6.275   6.147 -2.2093  0.2262  0.7084
  141OSM   H13B15392   1.930   6.365   6.015  1.0879  0.7954  1.6165
  141OSM   H13C15393   1.760   6.365   6.030  0.7241  1.5943 -0.6691
  141OSM    C1215394   1.969   6.513   6.253  0.0618  0.1838  0.2689
  141OSM   H12A15395   1.974   6.615   6.290  1.6737  0.3942 -0.4485
  141OSM   H12B15396   2.056   6.515   6.189 -0.9937 -0.3765 -1.2299
  141OSM    C1115397   2.000   6.409   6.367  0.1718 -0.1504 -0.1350
  141OSM   H11A15398   1.920   6.410   6.445 -0.0366  1.6675 -0.3166
  141OSM   H11B15399   2.090   6.439   6.426  0.9434 -2.0065 -0.3082
  141OSM      P15400   2.115   6.210   6.243 -0.2481  0.7227  0.0917
  141OSM    O1315401   2.059   6.130   6.136  0.0456  0.4182 -0.3300
  141OSM    O1415402   2.223   6.305   6.212  0.4803  0.4207  0.0432
  141OSM    O1115403   2.171   6.113   6.358  0.4038  0.1178  0.2349
  141OSM    O1215404   2.002   6.277   6.320  0.0274 -0.8057  0.1699
  141OSM    C1S15405   2.246   6.150   6.475 -0.4788  0.1800 -1.3196
  141OSM    H1S15406   2.335   6.216   6.460  0.1715 -0.6600 -1.2004
  141OSM    H1T15407   2.294   6.056   6.508 -0.7273  0.8507  1.1454
  141OSM     NF15408   2.241   6.250   6.710  0.1662  1.1157 -0.2015
  141OSM    HNF15409   2.255   6.173   6.772 -0.8107  1.0295 -0.0666
  141OSM    C2S15410   2.158   6.198   6.604  0.3443 -0.2811  0.4504
  141OSM    H2S15411   2.093   6.283   6.573 -1.1469 -0.4986  2.7899
  141OSM    C3S15412   2.070   6.078   6.646 -0.4528  0.0655 -0.7129
  141OSM    H3S15413   2.125   5.984   6.667 -1.1052  0.1294  1.4265
  141OSM     O315414   1.973   6.051   6.542 -0.6793 -0.2206 -0.4260
  141OSM    HO315415   2.004   6.108   6.472 -1.4615  0.9958  0.1923
  141OSM    C4S15416   2.000   6.123   6.771 -0.2465  0.2901 -0.0340
  141OSM    H4S15417   2.037   6.060   6.853  1.9469  0.5846 -0.7345
  141OSM    C5S15418   1.893   6.202   6.788 -0.3006  1.1564  0.4082
  141OSM    H5S15419   1.843   6.241   6.699 -0.7762  0.1276  0.2085
  141OSM    C6S15420   1.846   6.228   6.928  0.8774 -0.3102  0.0562
  141OSM    H6S15421   1.869   6.143   6.994  1.8291 -0.8817 -0.9709
  141OSM    H6T15422   1.737   6.248   6.935  0.6273 -1.2826 -0.7972
  141OSM    C7S15423   1.903   6.360   6.977 -0.9534 -0.2335  0.4639
  141OSM    H7S15424   1.864   6.434   6.905  0.9583  0.7284  0.3531
  141OSM    H7T15425   2.014   6.366   6.977 -0.8594 -0.2624 -2.3862
  141OSM    C8S15426   1.843   6.404   7.114 -0.3287  0.0504  0.0895
  141OSM    H8S15427   1.732   6.404   7.111 -0.3745  1.9616  0.5626
  141OSM    H8T15428   1.870   6.509   7.137 -1.4677  0.1778  0.9149
  141OSM    C9S15429   1.881   6.313   7.227  0.0630  0.2162 -0.2881
  141OSM    H9S15430   1.989   6.286   7.230  0.3952  0.9869 -3.1393
  141OSM    H9T15431   1.814   6.226   7.209  0.4684  0.4739 -3.7173
  141OSM   C10S15432   1.846   6.369   7.367 -0.2196 -0.0206  0.2625
  141OSM   H10S15433   1.741   6.404   7.356 -0.2411 -0.2996 -0.4830
  141OSM   H10T15434   1.900   6.464   7.387 -1.4003  0.4538  1.3353
  141OSM   C11S15435   1.870   6.264   7.476  0.0603  0.4939  0.0981
  141OSM   H11S15436   1.964   6.211   7.450 -0.7906 -0.0254 -2.2089
  141OSM   H11T15437   1.782   6.197   7.484  1.3530 -1.2912 -0.0832
  141OSM   C12S15438   1.884   6.334   7.616 -0.5818 -0.0983  0.3831
  141OSM   H12S15439   1.832   6.429   7.637  1.9403  1.4480  0.0062
  141OSM   H12T15440   1.989   6.366   7.622 -0.6759  0.6170 -1.1777
  141OSM   C13S15441   1.859   6.234   7.735 -0.6925  0.6537  1.6195
  141OSM   H13S15442   1.920   6.141   7.742  0.5264  1.3341  0.4704
  141OSM   H13T15443   1.755   6.200   7.716 -0.4123 -0.0546  1.3221
  141OSM   C14S15444   1.883   6.300   7.867  0.1628 -0.0003  0.2273
  141OSM   H14S15445   1.822   6.393   7.870 -0.1825 -0.2359  0.4024
  141OSM   H14T15446   1.991   6.322   7.883 -0.3344  1.7752  1.4592
  141OSM   C15S15447   1.837   6.200   7.969 -0.1971  0.0955  0.2645
  141OSM   H15S15448   1.879   6.098   7.962 -1.5328 -0.4274 -0.3721
  141OSM   H15T15449   1.728   6.182   7.962 -0.0760 -1.1285  1.1419
  141OSM   C16S15450   1.849   6.255   8.118  0.2297 -0.2419 -0.0194
  141OSM   H16S15451   1.773   6.193   8.171 -1.1182  0.8657 -0.5949
  141OSM   H16T15452   1.812   6.360   8.121  1.7628  0.3240 -0.0772
  141OSM   C17S15453   1.981   6.250   8.191  0.2965  0.9620 -0.4422
  141OSM   H17S15454   2.058   6.309   8.136  0.4762  0.6689 -0.5128
  141OSM   H17T15455   2.020   6.146   8.193  1.0704  1.1755 -2.4926
  141OSM   C18S15456   1.982   6.304   8.340 -0.5667  0.3459  0.1137
  141OSM   H18S15457   2.083   6.303   8.384 -0.0820  0.8544 -0.9325
  141OSM   H18T15458   1.925   6.239   8.410  3.8181 -1.1362  2.6906
  141OSM   H18U15459   1.946   6.409   8.347  1.0698  0.8443  1.4824
  141OSM    C1F15460   2.316   6.360   6.717  0.1129  0.0840 -0.3021
  141OSM     OF15461   2.302   6.454   6.639 -0.0100  0.1287  0.3032
  141OSM    C2F15462   2.429   6.368   6.819 -0.3367  0.2500 -0.3168
  141OSM    H2F15463   2.527   6.359   6.767  0.1018  1.3232  0.2818
  141OSM    H2G15464   2.417   6.283   6.889  1.3738  1.0466  1.0438
  141OSM    C3F15465   2.425   6.503   6.906 -0.2941 -0.0104  1.0524
  141OSM    H3F15466   2.422   6.589   6.836 -1.4490  0.2350  1.3862
  141OSM    H3G15467   2.522   6.516   6.959  0.3583  1.1559 -0.3751
  141OSM    C4F15468   2.313   6.509   7.012 -0.8089  0.1962 -0.8566
  141OSM    H4F15469   2.310   6.440   7.099 -2.7125  2.3391  0.8832
  141OSM    H4G15470   2.223   6.486   6.951 -2.8863 -2.0323  2.6767
  141OSM    C5F15471   2.301   6.651   7.057  0.6743  0.4423  0.0174
  141OSM    H5F15472   2.307   6.727   6.977 -2.1872 -2.0387 -2.8725
  141OSM    H5G15473   2.382   6.674   7.128  1.4859 -1.6127 -0.1639
  141OSM    C6F15474   2.166   6.674   7.131 -0.3064 -0.2225 -0.1738
  141OSM    H6F15475   2.087   6.644   7.059  1.4321 -2.8107 -1.1631
  141OSM    H6G15476   2.153   6.779   7.164 -1.0728 -0.4084  0.1398
  141OSM    C7F15477   2.138   6.586   7.253 -0.0681 -0.1197  0.1663
  141OSM    H7F15478   2.142   6.478   7.230  1.7892  0.5964 -3.6101
  141OSM    H7G15479   2.033   6.612   7.278 -0.9517 -1.8223 -1.5384
  141OSM    C8F15480   2.232   6.616   7.369  0.0546  0.6173  0.2895
  141OSM    H8F15481   2.246   6.725   7.385 -3.6347  0.9571  2.3052
  141OSM    H8G15482   2.336   6.580   7.349 -1.1114 -1.7819 -2.0965
  141OSM    C9F15483   2.172   6.547   7.492  0.3657 -0.3949 -0.2949
  141OSM    H9F15484   2.114   6.456   7.472 -0.0229  0.3433 -2.9579
  141OSM   C10F15485   2.178   6.589   7.622  0.6637  0.1612  0.2173
  141OSM   H10F15486   2.103   6.538   7.684 -1.0276  2.3202  0.0581
  141OSM   C11F15487   2.230   6.724   7.677 -1.2455  0.0182  0.4764
  141OSM   H11F15488   2.147   6.785   7.718 -0.2734  1.8408 -0.1788
  141OSM   H11G15489   2.274   6.785   7.595  0.3828 -2.0402 -0.2807
  141OSM   C12F15490   2.347   6.679   7.762 -0.0725  0.1003  0.2774
  141OSM   H12F15491   2.413   6.762   7.794  1.3180 -0.9600  0.2510
  141OSM   H12G15492   2.419   6.611   7.711  1.2707  2.0577 -0.5475
  141OSM   C13F15493   2.306   6.609   7.897 -0.1886 -0.6175 -0.0966
  141OSM   H13F15494   2.392   6.586   7.963  0.2207 -1.6419 -0.9553
  141OSM   H13G15495   2.260   6.513   7.866 -0.8734 -0.6541  1.0196
  141OSM   C14F15496   2.210   6.702   7.976 -0.3806 -0.7291 -0.3540
  141OSM   H14F15497   2.111   6.699   7.928  0.3650 -0.3537 -1.9820
  141OSM   H14G15498   2.259   6.802   7.981  0.1055 -0.9303 -0.9697
  141OSM   C15F15499   2.213   6.666   8.129  0.4083 -0.2361  0.7249
  141OSM   H15F15500   2.203   6.557   8.145  1.6787 -0.4717  0.1000
  141OSM   H15G15501   2.118   6.707   8.167  0.5408  1.2715 -0.4931
  141OSM   C16F15502   2.335   6.718   8.210 -0.1285 -0.5156  0.8273
  141OSM   H16F15503   2.359   6.825   8.190 -0.9689 -0.2716  1.0744
  141OSM   H16G15504   2.425   6.660   8.180  0.0934  0.5211 -0.6044
  141OSM   C17F15505   2.323   6.704   8.360  0.0457 -0.2096 -0.0616
  141OSM   H17F15506   2.249   6.782   8.389 -0.6491  0.4620 -3.2368
  141OSM   H17G15507   2.417   6.746   8.401 -0.4235 -2.0436  3.2130
  141OSM   C18F15508   2.282   6.566   8.410 -0.0084  0.1275 -0.3796
  141OSM   H18F15509   2.188   6.533   8.362 -0.7210 -1.4640  1.9635
  141OSM   H18G15510   2.281   6.565   8.521  1.5034 -2.9154 -0.2907
  141OSM   H18H15511   2.365   6.497   8.383  0.9667 -0.2466  3.0944
  142OSM      N15512   3.017   6.632   6.243 -0.2024  0.6184  0.7689
  142OSM    C1515513   3.061   6.763   6.198  0.0296  0.1371 -0.2490
  142OSM   H15A15514   3.168   6.769   6.210  0.0717  1.9483 -1.1661
  142OSM   H15B15515   3.012   6.846   6.246  0.2385  0.3566 -0.4148
  142OSM   H15C15516   3.038   6.763   6.092  0.7212  0.6540 -0.4049
  142OSM    C1415517   2.875   6.604   6.198  0.0834 -0.2535 -0.5217
  142OSM   H14A15518   2.856   6.506   6.240  2.4147 -0.3939  0.3979
  142OSM   H14B15519   2.880   6.615   6.091  0.2377  0.7681 -0.4190
  142OSM   H14C15520   2.807   6.675   6.241 -1.0211 -1.0523 -0.9160
  142OSM    C1315521   3.096   6.518   6.186 -0.0945  0.0311 -0.5353
  142OSM   H13A15522   3.083   6.491   6.083 -1.7130 -3.4180  0.4275
  142OSM   H13B15523   3.061   6.428   6.235 -1.5878  0.4886 -0.7074
  142OSM   H13C15524   3.201   6.531   6.208 -0.4401  2.3178  0.1004
  142OSM    C1215525   3.009   6.621   6.400 -0.5064  0.5054  0.2721
  142OSM   H12A15526   3.106   6.653   6.433  1.7471 -0.7569 -4.2873
  142OSM   H12B15527   3.009   6.515   6.421 -1.8058  0.3215 -0.5422
  142OSM    C1115528   2.895   6.687   6.473 -0.0934 -0.7273  0.1077
  142OSM   H11A15529   2.904   6.655   6.580 -0.6572 -0.0735  0.3565
  142OSM   H11B15530   2.800   6.640   6.443 -0.6258  1.7346 -2.4316
  142OSM      P15531   2.766   6.916   6.428 -0.4201  0.0269 -0.4427
  142OSM    O1315532   2.782   7.012   6.319 -0.1738 -0.0780 -0.4519
  142OSM    O1415533   2.645   6.832   6.425  0.1564  0.4446  0.2575
  142OSM    O1115534   2.758   6.999   6.563 -0.0525  0.3997  0.0671
  142OSM    O1215535   2.897   6.829   6.459 -0.5655 -0.2410  0.4630
  142OSM    C1S15536   2.871   7.039   6.639 -0.2078 -0.3995  0.1719
  142OSM    H1S15537   2.907   7.139   6.609 -0.1880 -0.7778 -1.1267
  142OSM    H1T15538   2.961   6.977   6.622  0.6231  1.4748 -3.3368
  142OSM     NF15539   2.947   7.108   6.858 -0.4543 -0.1845 -0.2638
  142OSM    HNF15540   2.999   7.043   6.914  2.7286  1.1175 -1.5034
  142OSM    C2S15541   2.840   7.048   6.787 -0.0859  0.2456  0.9508
  142OSM    H2S15542   2.753   7.113   6.809 -2.8039 -1.9609 -2.2099
  142OSM    C3S15543   2.809   6.900   6.843 -0.3695  0.4110  0.8179
  142OSM    H3S15544   2.907   6.858   6.812 -0.8544  0.9448 -1.6060
  142OSM     O315545   2.706   6.835   6.771 -0.2833  0.0427  0.5871
  142OSM    HO315546   2.702   6.885   6.689 -3.4543 -0.6434  0.1831
  142OSM    C4S15547   2.796   6.889   6.991  0.4857 -0.2870 -0.5606
  142OSM    H4S15548   2.892   6.873   7.041  0.8230 -0.4343 -1.2532
  142OSM    C5S15549   2.683   6.892   7.069  0.8449  0.1152  0.2542
  142OSM    H5S15550   2.588   6.918   7.020  1.0541  1.9984  0.7666
  142OSM    C6S15551   2.683   6.874   7.214  0.2178  0.1302 -0.3716
  142OSM    H6S15552   2.599   6.806   7.239 -0.9587  2.1554  1.5594
  142OSM    H6T15553   2.660   6.970   7.265 -1.6375  0.5179 -1.8358
  142OSM    C7S15554   2.803   6.802   7.277 -0.0907  0.5997  0.2663
  142OSM    H7S15555   2.888   6.873   7.267 -0.0033  0.2735 -1.5676
  142OSM    H7T15556   2.813   6.703   7.229 -2.5456  0.1346  0.5893
  142OSM    C8S15557   2.785   6.781   7.424 -0.8911  0.7003  0.4949
  142OSM    H8S15558   2.826   6.684   7.457  0.2468  0.9724 -0.0865
  142OSM    H8T15559   2.677   6.785   7.450 -1.1881 -1.0523 -0.2783
  142OSM    C9S15560   2.847   6.888   7.510  0.1011 -0.1024  0.2187
  142OSM    H9S15561   2.824   6.986   7.465  1.5277 -0.1118 -0.6036
  142OSM    H9T15562   2.958   6.878   7.508  0.0718 -0.6391  0.8656
  142OSM   C10S15563   2.796   6.885   7.656 -0.3261 -0.0311 -0.1949
  142OSM   H10S15564   2.686   6.870   7.661 -0.5610  1.7135  0.2262
  142OSM   H10T15565   2.821   6.976   7.713 -2.8142  1.4466 -1.3044
  142OSM   C11S15566   2.841   6.762   7.742 -0.7442  0.1668 -0.4573
  142OSM   H11S15567   2.837   6.664   7.691  0.9655 -1.5107  2.3118
  142OSM   H11T15568   2.779   6.750   7.834  1.7813 -2.3989  1.0883
  142OSM   C12S15569   2.987   6.773   7.788 -0.4603 -0.7615 -0.8609
  142OSM   H12S15570   3.000   6.877   7.825  0.8918 -0.8809 -0.9631
  142OSM   H12T15571   3.062   6.750   7.709  0.7361  1.4700 -0.4448
  142OSM   C13S15572   3.016   6.684   7.906  0.2963 -0.2148  0.0646
  142OSM   H13S15573   3.012   6.578   7.871  3.0273  0.7944 -4.1302
  142OSM   H13T15574   2.944   6.701   7.989  1.7969  0.5937  1.2392
  142OSM   C14S15575   3.155   6.709   7.951  0.0662 -0.5947 -0.4684
  142OSM   H14S15576   3.168   6.808   7.999 -1.3308 -1.3842  1.7113
  142OSM   H14T15577   3.238   6.694   7.879  0.1608  0.8757 -0.7020
  142OSM   C15S15578   3.185   6.618   8.072 -0.1055  0.4764  0.2264
  142OSM   H15S15579   3.188   6.516   8.028 -0.3335  0.7878 -0.5263
  142OSM   H15T15580   3.092   6.621   8.133 -0.3934 -4.4290  0.4172
  142OSM   C16S15581   3.302   6.653   8.162 -0.0796  0.3869  0.0850
  142OSM   H16S15582   3.293   6.758   8.196  2.6121  1.1541 -1.2963
  142OSM   H16T15583   3.401   6.645   8.112  1.2281  0.7146  2.4810
  142OSM   C17S15584   3.302   6.556   8.287 -0.0132  0.3134  0.0759
  142OSM   H17S15585   3.307   6.450   8.253 -0.2958  0.7105 -1.2511
  142OSM   H17T15586   3.203   6.564   8.337 -0.5898  1.8986 -1.2411
  142OSM   C18S15587   3.426   6.590   8.376  0.1317 -0.2554  0.0559
  142OSM   H18S15588   3.400   6.572   8.482 -1.1920 -2.0794 -0.5220
  142OSM   H18T15589   3.446   6.699   8.372 -1.3383  0.0098 -1.4245
  142OSM   H18U15590   3.513   6.525   8.352  0.8185  0.2480  1.1206
  142OSM    C1F15591   2.976   7.236   6.852 -0.8370  0.6238  0.0556
  142OSM     OF15592   2.926   7.307   6.767 -0.5469  0.6587 -0.4205
  142OSM    C2F15593   3.077   7.296   6.955  0.0962 -0.1400  0.2723
  142OSM    H2F15594   3.088   7.403   6.928 -1.0901 -0.2560 -0.8106
  142OSM    H2G15595   3.169   7.234   6.955  0.6965  0.7297  1.2653
  142OSM    C3F15596   3.026   7.268   7.102  0.2748 -0.1280 -0.2961
  142OSM    H3F15597   3.009   7.163   7.137 -2.3966  0.0986 -0.6883
  142OSM    H3G15598   2.922   7.305   7.105  1.0595  2.2850 -0.8507
  142OSM    C4F15599   3.100   7.328   7.222 -0.1402 -0.0980  0.3730
  142OSM    H4F15600   3.082   7.438   7.217  0.8232  0.1411  1.7693
  142OSM    H4G15601   3.205   7.294   7.212 -0.4998 -1.2609  0.4591
  142OSM    C5F15602   3.059   7.268   7.362 -0.4470  1.4446  1.5009
  142OSM    H5F15603   3.048   7.159   7.345  0.8453  1.3063  1.4388
  142OSM    H5G15604   2.958   7.305   7.389 -2.1176  0.8465 -3.0734
  142OSM    C6F15605   3.151   7.304   7.481 -0.0264  0.7569 -0.5239
  142OSM    H6F15606   3.156   7.414   7.478 -1.1239  0.8210 -0.4584
  142OSM    H6G15607   3.251   7.255   7.471 -0.2448  0.0825  0.4097
  142OSM    C7F15608   3.088   7.270   7.618  0.2279  0.3810 -0.7251
  142OSM    H7F15609   3.067   7.161   7.613  1.0708  0.2230 -0.9858
  142OSM    H7G15610   2.992   7.324   7.633  1.7569  3.1514 -0.2325
  142OSM    C8F15611   3.182   7.283   7.733 -0.0112  0.6139 -0.0421
  142OSM    H8F15612   3.271   7.338   7.695 -0.7327  0.9920 -1.2439
  142OSM    H8G15613   3.216   7.181   7.761 -0.9118  0.5603  0.8994
  142OSM    C9F15614   3.115   7.344   7.857 -0.4351  0.1346  0.4547
  142OSM    H9F15615   3.129   7.452   7.874  1.5448 -0.1803  1.0292
  142OSM   C10F15616   3.036   7.276   7.943  0.3760  0.9072 -0.7227
  142OSM   H10F15617   3.005   7.324   8.037  4.3427  0.3753  1.0624
  142OSM   C11F15618   2.997   7.128   7.929  0.2686  0.0087 -0.2016
  142OSM   H11F15619   3.096   7.084   7.905  1.1557  2.2662 -0.9921
  142OSM   H11G15620   2.927   7.113   7.844 -0.8587 -0.3002  0.7696
  142OSM   C12F15621   2.944   7.072   8.064 -0.2192  0.2726  0.2000
  142OSM   H12F15622   2.934   6.962   8.056  1.5870  0.0494  0.7328
  142OSM   H12G15623   2.849   7.125   8.086 -0.0684 -0.1951  2.2065
  142OSM   C13F15624   3.042   7.091   8.183  0.6297 -0.8434  0.2356
  142OSM   H13F15625   3.052   7.200   8.204 -0.7851 -0.5324 -0.6143
  142OSM   H13G15626   3.146   7.055   8.166  0.3484 -1.1489 -0.8808
  142OSM   C14F15627   2.993   7.018   8.308  0.0486 -0.4568  0.4621
  142OSM   H14F15628   2.958   6.914   8.290 -0.4841 -0.7881  3.0498
  142OSM   H14G15629   2.906   7.074   8.349  0.9890  1.5330 -0.1442
  142OSM   C15F15630   3.102   7.011   8.417 -0.0932  0.0566 -0.1623
  142OSM   H15F15631   3.141   7.115   8.421  2.2246 -0.7724  0.7720
  142OSM   H15G15632   3.192   6.953   8.387 -0.9043 -1.6684  0.5715
  142OSM   C16F15633   3.053   6.956   8.548 -0.2915 -0.2418 -0.1288
  142OSM   H16F15634   3.079   6.849   8.554  1.3275  0.1455  0.1197
  142OSM   H16G15635   2.946   6.969   8.577 -0.4800 -1.4062 -0.2702
  142OSM   C17F15636   3.128   7.019   8.670 -0.4241  0.3797 -0.4158
  142OSM   H17F15637   3.109   7.128   8.685 -1.0766  0.3328 -0.8842
  142OSM   H17G15638   3.232   7.029   8.633  0.3566 -0.3276  1.4664
  142OSM   C18F15639   3.140   6.938   8.806  0.3362 -0.0422  0.0953
  142OSM   H18F15640   3.223   6.981   8.865  0.1663  0.8984 -0.3353
  142OSM   H18G15641   3.155   6.832   8.778  3.2113  0.4661 -0.5555
  142OSM   H18H15642   3.040   6.952   8.854 -0.9380  0.1648 -2.4424
  143OSM      N15643   4.167   3.056   5.967 -0.1993  0.3432 -0.4583
  143OSM    C1515644   4.100   2.923   5.960 -0.9396  0.8748  0.4562
  143OSM   H15A15645   4.110   2.858   6.046 -2.0718  0.0368 -0.0226
  143OSM   H15B15646   4.154   2.864   5.887 -1.1465  0.2052  0.8325
  143OSM   H15C15647   3.994   2.929   5.942 -1.0484 -0.0224  0.7295
  143OSM    C1415648   4.312   3.044   5.981  0.0958 -0.1250 -0.3244
  143OSM   H14A15649   4.350   3.002   5.889 -2.5136  1.6723 -2.3984
  143OSM   H14B15650   4.348   2.985   6.064 -2.8372 -0.4372  0.8540
  143OSM   H14C15651   4.353   3.143   5.990 -0.1979 -0.0832  0.7586
  143OSM    C1315652   4.141   3.131   5.841 -0.2726 -0.5928  1.2431
  143OSM   H13A15653   4.191   3.227   5.840 -0.1419 -0.6105  3.2017
  143OSM   H13B15654   4.040   3.150   5.809  0.1977 -0.6784 -0.3707
  143OSM   H13C15655   4.188   3.075   5.762  0.4116  0.1048  1.1421
  143OSM    C1215656   4.109   3.144   6.086  0.4440  0.2433 -0.3689
  143OSM   H12A15657   4.182   3.224   6.089  1.4524 -0.6846  1.8864
  143OSM   H12B15658   4.114   3.084   6.175 -1.7813 -0.7698 -0.8678
  143OSM    C1115659   3.974   3.213   6.082  0.5097 -0.1226 -0.3518
  143OSM   H11A15660   3.980   3.300   6.013  0.3128 -0.4703 -0.8156
  143OSM   H11B15661   3.957   3.243   6.188  2.2283 -1.6582  0.4131
  143OSM      P15662   3.779   3.036   6.111  0.3072 -0.0016 -0.4110
  143OSM    O1315663   3.662   3.108   6.160 -0.0412 -0.8254 -0.0889
  143OSM    O1415664   3.757   2.924   6.019 -0.2008 -0.5350 -0.1948
  143OSM    O1115665   3.864   2.985   6.234  0.3640  0.6267  0.2364
  143OSM    O1215666   3.876   3.128   6.028 -0.2503 -0.1475 -0.0545
  143OSM    C1S15667   3.856   3.042   6.359  0.3026 -0.2143 -0.1764
  143OSM    H1S15668   3.753   3.050   6.402  0.3748 -0.6988  0.0952
  143OSM    H1T15669   3.900   3.144   6.363  2.0091 -0.9451  0.3998
  143OSM     NF15670   3.913   3.047   6.595  0.1644 -0.1872 -0.3477
  143OSM    HNF15671   3.971   3.123   6.623 -0.8187  0.5723 -0.2977
  143OSM    C2S15672   3.945   2.980   6.473  0.2956  0.6538  0.6487
  143OSM    H2S15673   3.916   2.874   6.492 -4.9583  1.7221  0.3138
  143OSM    C3S15674   4.097   2.991   6.429 -1.0575  1.0904  0.1644
  143OSM    H3S15675   4.108   3.099   6.404 -1.0072  1.0771  0.1274
  143OSM     O315676   4.131   2.932   6.310 -0.0115  0.1215  0.3610
  143OSM    HO315677   4.050   2.893   6.277 -0.6913  0.2684  1.7949
  143OSM    C4S15678   4.190   2.941   6.534 -0.1496  0.5105  0.6306
  143OSM    H4S15679   4.164   2.839   6.566 -1.6716  0.8152  0.4407
  143OSM    C5S15680   4.277   3.025   6.582 -0.2343 -0.6583  0.3465
  143OSM    H5S15681   4.277   3.125   6.536 -1.3388 -0.6893  0.2447
  143OSM    C6S15682   4.369   2.997   6.696  0.3184 -0.5194  0.0508
  143OSM    H6S15683   4.476   3.000   6.666  0.8336 -1.9712  1.5762
  143OSM    H6T15684   4.365   2.888   6.721 -1.0971 -0.9312 -1.7576
  143OSM    C7S15685   4.350   3.084   6.820 -0.5903 -0.5178  0.6051
  143OSM    H7S15686   4.369   3.192   6.803  0.5630 -1.2006 -3.5374
  143OSM    H7T15687   4.433   3.044   6.882 -0.2929  0.1614  0.6524
  143OSM    C8S15688   4.220   3.059   6.899 -0.1010 -0.9968 -0.2283
  143OSM    H8S15689   4.203   2.950   6.905  0.7780 -1.1302 -0.0093
  143OSM    H8T15690   4.139   3.108   6.841  1.4594 -0.0750 -1.7233
  143OSM    C9S15691   4.228   3.122   7.037  0.0356  0.4967 -0.4379
  143OSM    H9S15692   4.125   3.136   7.074  0.0711 -1.9131  0.7884
  143OSM    H9T15693   4.278   3.221   7.026  0.0113  0.6145  0.4728
  143OSM   C10S15694   4.301   3.025   7.130  0.4588 -0.2629 -0.5544
  143OSM   H10S15695   4.404   3.010   7.090 -0.3872 -1.5464 -2.4008
  143OSM   H10T15696   4.246   2.929   7.127 -0.4181  0.2393 -3.5034
  143OSM   C11S15697   4.323   3.084   7.269  0.0511 -0.8015  0.0890
  143OSM   H11S15698   4.222   3.110   7.308  0.6254  0.3609  0.8318
  143OSM   H11T15699   4.380   3.178   7.257 -0.2349 -0.9584 -3.3350
  143OSM   C12S15700   4.400   3.002   7.370 -0.4715 -0.4309 -0.2844
  143OSM   H12S15701   4.507   2.989   7.344 -0.2465 -2.6369  1.3907
  143OSM   H12T15702   4.356   2.900   7.377  0.9687 -1.0346  0.5526
  143OSM   C13S15703   4.381   3.060   7.510  0.0582 -0.5668  0.4966
  143OSM   H13S15704   4.275   3.068   7.543 -0.6580 -0.4074 -1.6875
  143OSM   H13T15705   4.426   3.162   7.515 -0.9188 -0.0874 -0.2155
  143OSM   C14S15706   4.442   2.982   7.631 -0.5348 -0.2228 -0.0842
  143OSM   H14S15707   4.551   2.981   7.611 -0.8975  0.8334 -2.3831
  143OSM   H14T15708   4.415   2.874   7.626  1.1253 -0.6397 -0.5749
  143OSM   C15S15709   4.415   3.039   7.770  0.8437 -0.0841 -0.3469
  143OSM   H15S15710   4.305   3.031   7.786  0.7337  0.3288 -0.8724
  143OSM   H15T15711   4.443   3.147   7.767  1.0051 -0.0525  1.3256
  143OSM   C16S15712   4.489   2.960   7.881  0.9109  0.0348  0.6887
  143OSM   H16S15713   4.455   2.856   7.899  1.2461 -0.3519 -0.8355
  143OSM   H16T15714   4.469   3.006   7.981 -0.8314  0.5984  0.1123
  143OSM   C17S15715   4.644   2.959   7.865 -0.4164 -0.7047 -0.3684
  143OSM   H17S15716   4.698   3.056   7.862  0.4288 -1.1914 -2.2184
  143OSM   H17T15717   4.675   2.917   7.767  1.8960 -0.1637  0.0817
  143OSM   C18S15718   4.716   2.887   7.983  0.0992  0.3058 -0.5695
  143OSM   H18S15719   4.672   2.927   8.077  2.1776  1.2466  0.0497
  143OSM   H18T15720   4.823   2.914   7.977  0.5962 -1.5329 -0.2322
  143OSM   H18U15721   4.702   2.777   7.976 -0.0872  0.4486 -4.0104
  143OSM    C1F15722   3.805   3.024   6.667  0.7492 -0.1110  0.0159
  143OSM     OF15723   3.727   2.936   6.637 -0.2255  0.1293  0.1070
  143OSM    C2F15724   3.789   3.120   6.782  0.1931  0.5125 -0.6668
  143OSM    H2F15725   3.794   3.226   6.748 -1.9936  0.5115 -1.1437
  143OSM    H2G15726   3.878   3.114   6.848  0.1421 -1.2216 -0.7114
  143OSM    C3F15727   3.651   3.105   6.859 -0.4661  0.2859 -0.4237
  143OSM    H3F15728   3.646   3.008   6.913 -1.1453  0.2188 -0.6029
  143OSM    H3G15729   3.569   3.105   6.784 -0.4465  2.6559 -0.5087
  143OSM    C4F15730   3.626   3.230   6.941  0.2860 -0.0886 -0.5557
  143OSM    H4F15731   3.535   3.198   6.997  1.6760 -0.9066  1.3335
  143OSM    H4G15732   3.605   3.321   6.881  1.3207  0.4052 -0.1883
  143OSM    C5F15733   3.727   3.252   7.048 -0.0145  0.0564  0.0022
  143OSM    H5F15734   3.831   3.253   7.009 -0.0572 -1.6280 -0.2352
  143OSM    H5G15735   3.720   3.160   7.110  0.3339 -0.7810 -1.1811
  143OSM    C6F15736   3.717   3.381   7.129  0.1246  1.0582 -0.2327
  143OSM    H6F15737   3.625   3.377   7.191 -0.6526  3.2177 -1.1280
  143OSM    H6G15738   3.692   3.464   7.059  1.1577  2.3082  0.8183
  143OSM    C7F15739   3.836   3.412   7.224  0.5002 -0.1884 -0.2735
  143OSM    H7F15740   3.827   3.519   7.252  1.2070 -0.2665  0.3091
  143OSM    H7G15741   3.936   3.388   7.182  2.1035  1.6227  2.1496
  143OSM    C8F15742   3.832   3.345   7.359 -0.5601  0.4880 -0.5903
  143OSM    H8F15743   3.730   3.345   7.403 -0.1151 -0.9071  0.4976
  143OSM    H8G15744   3.886   3.414   7.427 -2.4210  1.6685 -0.2091
  143OSM    C9F15745   3.886   3.204   7.363  0.0082 -0.1514  0.2221
  143OSM    H9F15746   3.867   3.144   7.272  0.4268  0.5517 -0.3453
  143OSM   C10F15747   3.962   3.157   7.459 -0.5455 -0.2688 -0.1085
  143OSM   H10F15748   3.978   3.048   7.457 -2.7338 -0.6434  0.3799
  143OSM   C11F15749   4.011   3.239   7.576  0.4638  0.4427  0.1001
  143OSM   H11F15750   3.985   3.347   7.576  2.1294  0.8763 -0.7301
  143OSM   H11G15751   4.121   3.246   7.565  0.3521 -0.5185 -2.2246
  143OSM   C12F15752   3.968   3.167   7.709  0.5784  0.7882 -0.2382
  143OSM   H12F15753   3.997   3.060   7.707  0.3158  0.7177 -0.2778
  143OSM   H12G15754   3.857   3.166   7.714  0.3430  3.9057 -2.0418
  143OSM   C13F15755   4.014   3.238   7.832  0.7853  0.0185  0.8215
  143OSM   H13F15756   3.961   3.335   7.841  1.4703  0.4045  0.7506
  143OSM   H13G15757   4.124   3.256   7.829  0.8472 -0.3401 -1.7560
  143OSM   C14F15758   3.986   3.165   7.964 -0.5848  0.2461 -0.1511
  143OSM   H14F15759   4.014   3.058   7.952 -1.5078  0.0702 -0.8582
  143OSM   H14G15760   3.877   3.165   7.983 -1.0177  0.4655 -2.4526
  143OSM   C15F15761   4.058   3.234   8.082 -0.5333  0.0510  0.2919
  143OSM   H15F15762   4.021   3.339   8.076 -2.3010 -0.6268 -2.5952
  143OSM   H15G15763   4.167   3.233   8.062 -0.8024 -2.8273 -1.5111
  143OSM   C16F15764   4.034   3.156   8.212  0.2271  0.5325 -0.3600
  143OSM   H16F15765   4.094   3.063   8.207  1.7842  1.4072  1.1443
  143OSM   H16G15766   3.928   3.124   8.217  0.6303 -0.7752  0.4759
  143OSM   C17F15767   4.087   3.223   8.344  0.4234  0.2775 -0.4248
  143OSM   H17F15768   4.059   3.157   8.429 -0.4963 -0.2007 -1.0745
  143OSM   H17G15769   4.033   3.319   8.360 -1.7247 -0.5434 -2.1883
  143OSM   C18F15770   4.240   3.239   8.345 -0.1997 -0.1332  0.0733
  143OSM   H18F15771   4.285   3.309   8.270 -0.5281  1.6654  1.4801
  143OSM   H18G15772   4.295   3.147   8.317  0.5000 -0.0412  1.0960
  143OSM   H18H15773   4.276   3.272   8.445 -2.3582  0.1117  0.8183
  144OSM      N15774   2.381   2.191   6.024 -0.4103 -0.2040  0.4472
  144OSM    C1515775   2.478   2.073   6.037  0.1896  0.6710  0.3437
  144OSM   H15A15776   2.431   1.981   6.070 -2.0996  0.7696 -2.2516
  144OSM   H15B15777   2.553   2.087   6.113  0.8708 -1.0229  0.0465
  144OSM   H15C15778   2.523   2.059   5.940 -5.0766 -0.0934 -2.3488
  144OSM    C1415779   2.462   2.299   5.952  0.1625  0.1598  0.7215
  144OSM   H14A15780   2.489   2.267   5.853 -0.2750  3.0450 -0.4277
  144OSM   H14B15781   2.549   2.326   6.010  0.1414 -1.5740  1.6504
  144OSM   H14C15782   2.409   2.392   5.941  0.6181  0.3156 -0.2512
  144OSM    C1315783   2.256   2.161   5.941  0.0975 -0.5025  0.2969
  144OSM   H13A15784   2.282   2.128   5.841  1.0632 -0.2458  0.4524
  144OSM   H13B15785   2.203   2.255   5.934 -0.1923 -0.7351 -0.9545
  144OSM   H13C15786   2.195   2.082   5.983 -0.4583  1.7628  4.2387
  144OSM    C1215787   2.330   2.223   6.156 -0.2383 -0.2418  0.4525
  144OSM   H12A15788   2.256   2.150   6.183  0.1420 -1.3797 -1.3832
  144OSM   H12B15789   2.280   2.319   6.151 -0.2228 -0.2759 -0.5392
  144OSM    C1115790   2.427   2.230   6.275 -0.6887 -0.3125  0.4625
  144OSM   H11A15791   2.467   2.130   6.300  0.0284 -0.6561 -1.8909
  144OSM   H11B15792   2.359   2.255   6.360 -0.7093  0.5483  0.2068
  144OSM      P15793   2.678   2.329   6.291  0.2426  0.3109 -0.0573
  144OSM    O1315794   2.731   2.197   6.246 -0.0939  0.0675 -0.1641
  144OSM    O1415795   2.733   2.445   6.234  0.7434 -0.3565 -0.0241
  144OSM    O1115796   2.691   2.341   6.445  0.0748  0.1027 -0.2588
  144OSM    O1215797   2.526   2.331   6.263  0.7750  0.3452  0.3582
  144OSM    C1S15798   2.728   2.460   6.510  0.3189 -0.5332 -0.8718
  144OSM    H1S15799   2.638   2.523   6.520  0.2167 -0.8316  0.2739
  144OSM    H1T15800   2.802   2.518   6.451  1.8849  0.1392  1.5659
  144OSM     NF15801   2.810   2.549   6.713  0.3350  0.4754 -0.5997
  144OSM    HNF15802   2.909   2.546   6.727  0.1127 -1.8620  1.2137
  144OSM    C2S15803   2.757   2.428   6.658  0.5812 -0.5414  0.6565
  144OSM    H2S15804   2.664   2.398   6.710  0.9465  0.0480  1.6796
  144OSM    C3S15805   2.862   2.305   6.675  0.2518 -0.6207 -0.2826
  144OSM    H3S15806   2.958   2.343   6.634 -0.3631  0.0955 -1.0983
  144OSM     O315807   2.829   2.190   6.603 -0.0634  0.0295  0.8269
  144OSM    HO315808   2.752   2.217   6.552 -2.1738 -1.7027  2.8725
  144OSM    C4S15809   2.884   2.268   6.821  0.1573  0.4207 -0.2018
  144OSM    H4S15810   2.985   2.298   6.855  0.5529 -2.2770  1.3140
  144OSM    C5S15811   2.793   2.203   6.897 -0.5517  0.2451 -0.2786
  144OSM    H5S15812   2.693   2.185   6.855 -1.2833  0.5785  1.2708
  144OSM    C6S15813   2.810   2.155   7.039 -0.4563 -0.5272  0.3555
  144OSM    H6S15814   2.796   2.045   7.045 -0.4972 -0.4431  2.3501
  144OSM    H6T15815   2.732   2.188   7.110 -0.4492 -1.0852  0.6242
  144OSM    C7S15816   2.942   2.193   7.103 -0.1401 -0.1006  0.2690
  144OSM    H7S15817   2.939   2.302   7.122 -2.5150  0.1478 -1.1178
  144OSM    H7T15818   3.023   2.164   7.032 -0.7720  0.6190 -0.7658
  144OSM    C8S15819   2.967   2.117   7.233 -0.3772 -0.4458  0.3355
  144OSM    H8S15820   3.070   2.114   7.273 -0.7708 -1.7972  1.2941
  144OSM    H8T15821   2.949   2.011   7.208  0.5911 -0.2844 -1.1899
  144OSM    C9S15822   2.886   2.170   7.348  1.1265  0.1693 -0.1931
  144OSM    H9S15823   2.778   2.153   7.328  0.9126  0.7034  0.4467
  144OSM    H9T15824   2.904   2.280   7.347 -0.9148  0.5862 -3.0011
  144OSM   C10S15825   2.924   2.119   7.485  0.2973  0.5222  0.0008
  144OSM   H10S15826   3.030   2.136   7.516  0.2394  1.3857 -0.2399
  144OSM   H10T15827   2.896   2.012   7.476 -1.6030  1.1432 -2.4950
  144OSM   C11S15828   2.843   2.175   7.603  0.3549  0.2147 -0.6597
  144OSM   H11S15829   2.734   2.163   7.585  0.3198  1.1362 -1.0968
  144OSM   H11T15830   2.865   2.284   7.598 -0.3264  0.3841 -0.1531
  144OSM   C12S15831   2.881   2.108   7.731  0.1171 -0.1299 -0.2819
  144OSM   H12S15832   2.992   2.098   7.739  0.0684 -0.2361  0.3019
  144OSM   H12T15833   2.844   2.005   7.747  1.3449 -0.3433  1.5334
  144OSM   C13S15834   2.857   2.197   7.849  0.3975 -0.7440 -0.1266
  144OSM   H13S15835   2.875   2.303   7.817  2.0382 -0.4326  1.6561
  144OSM   H13T15836   2.917   2.163   7.935 -1.4651  1.1628  2.0636
  144OSM   C14S15837   2.711   2.205   7.885 -0.1549 -0.5246  0.2492
  144OSM   H14S15838   2.684   2.108   7.932 -1.5263  0.6972  2.1183
  144OSM   H14T15839   2.647   2.222   7.796 -1.8903 -0.2626  1.4886
  144OSM   C15S15840   2.679   2.305   7.994 -0.6143  0.7412  0.0662
  144OSM   H15S15841   2.746   2.393   7.981  3.0767 -1.5750  1.5268
  144OSM   H15T15842   2.718   2.253   8.084 -1.2278 -0.3380 -0.2765
  144OSM   C16S15843   2.530   2.340   7.995 -0.8823 -0.2878 -1.1114
  144OSM   H16S15844   2.471   2.255   7.955 -0.2328 -1.0808 -0.4106
  144OSM   H16T15845   2.515   2.429   7.930  2.6005  1.3955  0.1404
  144OSM   C17S15846   2.482   2.365   8.138  0.1262  0.0147 -0.5565
  144OSM   H17S15847   2.552   2.433   8.190 -0.5010  0.2403  0.0063
  144OSM   H17T15848   2.499   2.272   8.196  5.1288  0.3321 -1.0433
  144OSM   C18S15849   2.339   2.418   8.143 -0.0180 -0.1469  0.7984
  144OSM   H18S15850   2.307   2.427   8.249 -0.2365  2.8079  0.5801
  144OSM   H18T15851   2.269   2.348   8.093  1.4625 -0.5227 -0.8742
  144OSM   H18U15852   2.331   2.515   8.090 -2.6758 -0.7202  0.0029
  144OSM    C1F15853   2.747   2.659   6.736  0.4966 -0.3215 -0.7075
  144OSM     OF15854   2.626   2.652   6.741  0.0017 -0.0558 -0.0886
  144OSM    C2F15855   2.824   2.787   6.760 -0.1233  0.3759 -0.0170
  144OSM    H2F15856   2.808   2.862   6.680  1.1821  0.2751 -0.3995
  144OSM    H2G15857   2.928   2.748   6.755  0.4888  1.8619  0.5601
  144OSM    C3F15858   2.795   2.840   6.910 -0.5941 -0.4849  0.5229
  144OSM    H3F15859   2.688   2.867   6.916 -0.4480  1.2632 -2.6758
  144OSM    H3G15860   2.861   2.928   6.926 -0.0341 -0.7607 -0.2308
  144OSM    C4F15861   2.825   2.733   7.012 -0.1220  0.6327  0.5810
  144OSM    H4F15862   2.936   2.728   7.009 -0.1576 -1.6313 -2.0813
  144OSM    H4G15863   2.772   2.638   6.989  1.3486 -0.7542  2.5322
  144OSM    C5F15864   2.764   2.761   7.153 -0.7016 -0.6283 -0.2119
  144OSM    H5F15865   2.661   2.800   7.137 -0.3861 -1.2072 -5.0488
  144OSM    H5G15866   2.825   2.841   7.200 -0.9462 -1.7134  2.0671
  144OSM    C6F15867   2.764   2.644   7.254 -0.2168 -0.4879  0.1542
  144OSM    H6F15868   2.851   2.576   7.250 -1.0313 -1.4974 -1.5604
  144OSM    H6G15869   2.666   2.594   7.236 -1.6985  1.8703  1.1447
  144OSM    C7F15870   2.735   2.706   7.395 -0.5428 -0.4752  0.3274
  144OSM    H7F15871   2.664   2.635   7.442 -0.8849 -0.6070 -0.3716
  144OSM    H7G15872   2.662   2.789   7.381 -0.7486 -0.5765  0.7853
  144OSM    C8F15873   2.856   2.758   7.475 -0.4416 -0.2022  0.6932
  144OSM    H8F15874   2.825   2.838   7.546  2.1857  2.7970 -1.2374
  144OSM    H8G15875   2.939   2.798   7.414 -2.2625  3.6391  0.4307
  144OSM    C9F15876   2.894   2.639   7.561 -0.4925  0.7480 -0.2560
  144OSM    H9F15877   2.898   2.541   7.512 -2.1637  0.3847  0.2674
  144OSM   C10F15878   2.914   2.639   7.692 -0.2154  0.5881  0.7895
  144OSM   H10F15879   2.937   2.543   7.740 -1.7846  0.0280  0.4880
  144OSM   C11F15880   2.903   2.761   7.787  0.9664 -0.6638  0.2156
  144OSM   H11F15881   2.798   2.792   7.809  1.5213  1.0951  0.4934
  144OSM   H11G15882   2.953   2.850   7.744  1.0325 -0.8777 -0.1545
  144OSM   C12F15883   2.968   2.733   7.921 -0.9563  0.4921 -0.7007
  144OSM   H12F15884   2.948   2.632   7.963 -0.0790  0.6999  0.2469
  144OSM   H12G15885   2.931   2.812   7.989  0.9996  0.3488  0.6275
  144OSM   C13F15886   3.118   2.760   7.918 -1.0998 -0.6119 -0.3141
  144OSM   H13F15887   3.133   2.861   7.875 -1.8995 -0.8964 -1.3218
  144OSM   H13G15888   3.164   2.683   7.853 -1.5878  0.7479 -2.3659
  144OSM   C14F15889   3.178   2.764   8.063  0.6606 -0.0786  0.1856
  144OSM   H14F15890   3.287   2.783   8.051  0.1465  2.1310 -1.6588
  144OSM   H14G15891   3.171   2.663   8.108 -3.1645 -1.0879 -2.1743
  144OSM   C15F15892   3.099   2.854   8.158  0.4183 -0.5546 -0.2743
  144OSM   H15F15893   3.007   2.809   8.200 -0.3839 -0.3558 -1.7631
  144OSM   H15G15894   3.058   2.941   8.102  0.6395 -0.8982 -0.9810
  144OSM   C16F15895   3.186   2.911   8.268 -0.0632 -0.0819  0.4060
  144OSM   H16F15896   3.276   2.955   8.218 -0.9511 -2.3538 -3.6772
  144OSM   H16G15897   3.232   2.824   8.319  1.1138 -0.0518 -0.5623
  144OSM   C17F15898   3.104   2.994   8.375  0.6595 -0.0389 -0.1511
  144OSM   H17F15899   3.026   2.926   8.416 -0.6440  1.8441  0.6045
  144OSM   H17G15900   3.051   3.077   8.324  1.7508  0.9645  0.3080
  144OSM   C18F15901   3.189   3.033   8.497  0.1465  0.1134  0.4131
  144OSM   H18F15902   3.258   2.957   8.539 -1.6786 -3.8214 -3.0743
  144OSM   H18G15903   3.123   3.071   8.578 -1.2943 -1.6691  0.1310
  144OSM   H18H15904   3.258   3.108   8.453 -1.0537  1.4297  0.7094
  145SAPE     N15905   0.669   3.334  10.683  0.4530 -0.2787 -0.0777
  145SAPE   HN115906   0.708   3.401  10.752  1.9451  0.4722 -1.5905
  145SAPE   HN215907   0.608   3.393  10.623 -1.1340 -1.7423  0.0049
  145SAPE   HN315908   0.604   3.263  10.723  0.2229 -0.6446 -1.0798
  145SAPE   C1215909   0.777   3.266  10.599  0.4826  0.0143  0.1458
  145SAPE  H12A15910   0.728   3.189  10.536 -1.2150 -0.8009  2.3646
  145SAPE  H12B15911   0.834   3.221  10.683  2.4431  2.3063  0.1702
  145SAPE   C1115912   0.852   3.378  10.525 -0.4112  0.0018 -0.3792
  145SAPE  H11A15913   0.771   3.419  10.459 -0.5380  1.7766  0.8049
  145SAPE  H11B15914   0.923   3.328  10.456 -0.5084 -1.7699  0.7484
  145SAPE     P15915   1.051   3.474  10.677 -0.3005  0.4928  0.3316
  145SAPE   O1315916   1.055   3.576  10.784 -0.0762 -0.1343  0.7947
  145SAPE   O1415917   1.073   3.335  10.718  0.6445  0.2035  0.1738
  145SAPE   O1215918   0.913   3.483  10.597  0.2896  0.4623 -0.0539
  145SAPE   O1115919   1.163   3.505  10.563 -0.4398 -0.4347 -0.1154
  145SAPE    C115920   1.189   3.633  10.504  0.6067  0.0093 -0.7831
  145SAPE    HA15921   1.158   3.715  10.573 -1.8392 -0.8102 -0.7999
  145SAPE    HB15922   1.298   3.648  10.492  0.8543 -0.0896  0.9853
  145SAPE    C215923   1.120   3.645  10.374 -0.1750 -0.3386 -0.1842
  145SAPE    HS15924   1.012   3.629  10.396  0.2874 -1.4450  1.4939
  145SAPE   O2115925   1.164   3.531  10.296  0.0686  0.6492  0.2702
  145SAPE   C2115926   1.079   3.478  10.216 -1.0296 -0.0397  0.4261
  145SAPE   O2215927   0.962   3.508  10.199  0.0249 -0.7389 -0.4352
  145SAPE   C2215928   1.151   3.376  10.126  0.0229 -0.7422 -0.3950
  145SAPE   H2R15929   1.212   3.440  10.058 -2.2038  0.6660 -1.1722
  145SAPE   H2S15930   1.223   3.324  10.193 -1.8992 -2.5977  0.3067
  145SAPE    C315931   1.151   3.784  10.303  0.4203  0.2220 -0.2552
  145SAPE    HX15932   1.260   3.787  10.283  0.8391 -3.8320  0.6538
  145SAPE    HY15933   1.114   3.864  10.370 -0.0927 -0.6395  0.5103
  145SAPE   O3115934   1.085   3.803  10.176  0.4784  0.0374 -0.5443
  145SAPE   C3115935   0.959   3.848  10.182  0.4069 -0.3866 -1.0662
  145SAPE   O3215936   0.889   3.869  10.282  0.0988  0.0913  0.6320
  145SAPE   C3215937   0.900   3.864  10.043  0.3487  0.4002 -0.2551
  145SAPE   H2X15938   0.901   3.766   9.990  0.0556 -0.3775  1.1481
  145SAPE   H2Y15939   0.975   3.920   9.983  0.8377 -1.2283 -1.2416
  145SAPE   C2315940   1.054   3.278  10.046  0.3337 -1.0565  0.8656
  145SAPE   H3R15941   0.995   3.336   9.972  1.8508 -1.3067 -0.5984
  145SAPE   H3S15942   0.987   3.232  10.122 -2.2884 -0.4257 -0.9182
  145SAPE   C2415943   1.137   3.170   9.965 -0.3867 -0.3652 -0.4900
  145SAPE   H4R15944   1.199   3.120  10.043  1.0518  1.5769 -0.3008
  145SAPE   H4S15945   1.203   3.227   9.896 -0.5514  0.5557  0.0962
  145SAPE   C2515946   1.066   3.065   9.890  0.3943  0.3639  0.1038
  145SAPE   H5R15947   1.045   2.964   9.930 -2.6224  0.4918 -0.9187
  145SAPE   C2615948   1.022   3.089   9.764  0.0940 -0.6252  0.1381
  145SAPE   H6R15949   0.982   2.997   9.717 -1.2225 -1.1519  2.1578
  145SAPE   C2715950   1.041   3.213   9.684  0.3369 -0.4093 -1.0952
  145SAPE   H7R15951   1.146   3.211   9.647 -0.3242 -1.8496 -3.1171
  145SAPE   H7S15952   1.026   3.301   9.750 -1.3429 -1.8455  0.5339
  145SAPE   C2815953   0.947   3.220   9.561  1.1586  0.7129 -0.2946
  145SAPE   H8R15954   0.846   3.259   9.580  1.0719 -0.3469  1.7427
  145SAPE   C2915955   0.979   3.185   9.427 -0.0245 -0.9656 -0.6756
  145SAPE   H9R15956   0.912   3.192   9.340 -1.3940 -0.9236  0.3502
  145SAPE  C21015957   1.112   3.129   9.383  0.9445  0.2724 -0.5110
  145SAPE  H10R15958   1.092   3.037   9.325 -1.0941 -0.1440  0.7476
  145SAPE  H10S15959   1.175   3.100   9.470 -2.5559  0.1588  2.2164
  145SAPE  C21115960   1.183   3.240   9.302 -0.7373 -0.1815  0.0389
  145SAPE  H11R15961   1.194   3.339   9.350 -2.2059  1.4306 -2.7013
  145SAPE  C21215962   1.216   3.226   9.166 -0.0669 -0.0167  0.0965
  145SAPE  H12R15963   1.249   3.314   9.110  0.6934  0.4204  1.1967
  145SAPE  C21315964   1.184   3.113   9.071 -0.1553  0.3065  0.1353
  145SAPE  H13R15965   1.110   3.046   9.119  1.5452 -0.6948  1.4791
  145SAPE  H13S15966   1.273   3.049   9.051  0.0361  0.5207  0.2994
  145SAPE  C21415967   1.123   3.154   8.934 -0.1234  0.6558 -0.0193
  145SAPE  H14R15968   1.016   3.129   8.925 -0.5846  2.2793  0.5707
  145SAPE  C21515969   1.180   3.228   8.837  0.3240  0.2637 -0.5685
  145SAPE  H15R15970   1.131   3.249   8.740 -0.9070 -3.6442 -0.9681
  145SAPE  C21615971   1.321   3.275   8.842 -0.2874 -0.1625  0.3213
  145SAPE  H16R15972   1.378   3.223   8.762 -0.8654 -0.0276 -0.1848
  145SAPE  H16S15973   1.374   3.239   8.933 -1.8645 -0.8135  1.0239
  145SAPE  C21715974   1.336   3.428   8.826 -0.2004 -0.6236 -0.2269
  145SAPE  H17R15975   1.441   3.466   8.830 -0.5394  0.2449  2.1429
  145SAPE  H17S15976   1.282   3.478   8.910  2.2129  1.7081  0.0961
  145SAPE  C21815977   1.280   3.483   8.691 -0.5397 -0.3219  0.2096
  145SAPE  H18R15978   1.171   3.498   8.701 -1.2552 -4.3046  0.0961
  145SAPE  H18S15979   1.289   3.402   8.615 -1.2796 -0.2445  0.0373
  145SAPE  C21915980   1.345   3.611   8.633 -0.0258 -0.1909  0.1476
  145SAPE  H19R15981   1.449   3.590   8.599 -0.8525 -2.3373 -1.3413
  145SAPE  H19S15982   1.355   3.693   8.707 -0.5352  0.6557 -0.7010
  145SAPE  C22015983   1.280   3.679   8.518 -0.1346 -0.2902 -0.5923
  145SAPE  H20R15984   1.349   3.761   8.489  0.0121 -0.1596  0.1031
  145SAPE  H20S15985   1.186   3.732   8.544 -0.0910 -1.1089  1.4325
  145SAPE  H20T15986   1.263   3.610   8.433 -2.1737 -1.9220  1.0013
  145SAPE   C3315987   0.763   3.919  10.054 -0.1827  0.0849  0.5831
  145SAPE   H3X15988   0.756   4.002  10.128  1.0653  0.5604  0.1893
  145SAPE   H3Y15989   0.692   3.835  10.072 -1.3470  0.9810  0.2636
  145SAPE   C3415990   0.719   3.991   9.924 -0.0212  0.2671 -0.5266
  145SAPE   H4X15991   0.765   4.092   9.916  0.8956 -0.0941  0.0230
  145SAPE   H4Y15992   0.609   4.000   9.928  0.0310  0.5046  0.8223
  145SAPE   C3515993   0.757   3.927   9.791  0.0775 -0.3956  0.4782
  145SAPE   H5X15994   0.721   3.823   9.781  1.5229 -1.0160  1.3950
  145SAPE   H5Y15995   0.868   3.932   9.788  0.4235 -4.6120  0.4354
  145SAPE   C3615996   0.691   4.003   9.678 -0.3945 -0.0385  0.3932
  145SAPE   H6X15997   0.736   4.104   9.671 -1.1272  0.1911 -2.6776
  145SAPE   H6Y15998   0.584   4.026   9.693 -0.2737  0.3505  0.6748
  145SAPE   C3715999   0.705   3.940   9.540  0.7425 -0.4050 -0.2512
  145SAPE   H7X16000   0.664   3.837   9.547  1.7259 -0.8002 -0.1536
  145SAPE   H7Y16001   0.808   3.918   9.503  0.3011  0.5737 -2.1508
  145SAPE   C3816002   0.643   4.027   9.431 -0.9870  0.4420 -0.6893
  145SAPE   H8X16003   0.706   4.118   9.427  0.2437 -0.2864  1.0745
  145SAPE   H8Y16004   0.544   4.059   9.470  0.0333  1.0363  1.5627
  145SAPE   C3916005   0.639   3.967   9.289 -0.4388 -0.0723  0.5545
  145SAPE   H9X16006   0.581   4.029   9.218  0.4631 -0.2806 -0.3944
  145SAPE   H9Y16007   0.581   3.873   9.296 -2.2451  0.9546 -0.0945
  145SAPE  C31016008   0.779   3.969   9.218  0.7056  0.8348  0.0307
  145SAPE  H10X16009   0.755   3.918   9.123 -0.2454 -1.2209  1.3126
  145SAPE  H10Y16010   0.851   3.914   9.282  1.3225  1.7626  0.1572
  145SAPE  C31116011   0.833   4.109   9.188  0.1110 -0.5162 -0.5359
  145SAPE  H11X16012   0.894   4.139   9.276 -3.5143 -2.7287  3.1307
  145SAPE  H11Y16013   0.750   4.182   9.179  0.2488 -0.4814 -1.6880
  145SAPE  C31216014   0.908   4.110   9.053 -0.0174 -1.1705 -0.3514
  145SAPE  H12X16015   0.850   4.068   8.968 -1.2722  1.7153 -1.0501
  145SAPE  H12Y16016   1.008   4.062   9.061  1.7199  1.6022 -3.1495
  145SAPE  C31316017   0.937   4.256   9.004 -0.1683 -0.2821  0.2700
  145SAPE  H13X16018   0.976   4.319   9.086  1.0071  1.0605 -1.2430
  145SAPE  H13Y16019   0.846   4.310   8.970  0.2864  0.1470 -0.2947
  145SAPE  C31416020   1.049   4.263   8.893 -0.5226  0.4587  0.1508
  145SAPE  H14X16021   1.135   4.198   8.921  0.2214  0.9492 -0.9215
  145SAPE  H14Y16022   1.081   4.370   8.895 -0.9105  0.5765  2.2540
  145SAPE  C31516023   0.991   4.228   8.749  0.2241 -0.0741 -0.1132
  145SAPE  H15X16024   0.968   4.120   8.743  0.0900  0.0245 -4.1370
  145SAPE  H15Y16025   1.074   4.251   8.679 -0.6294  1.1276 -0.7785
  145SAPE  C31616026   0.862   4.305   8.703  0.3352  0.3922 -0.2084
  145SAPE  H16X16027   0.886   4.412   8.687  0.8518  0.3941  0.5396
  145SAPE  H16Y16028   0.783   4.298   8.780  1.1422  1.1800  0.7224
  145SAPE  C31716029   0.809   4.261   8.570  0.4258 -0.8108 -0.0055
  145SAPE  H17X16030   0.821   4.151   8.558  1.2400 -0.5561 -1.8557
  145SAPE  H17Y16031   0.866   4.306   8.486 -0.9228  1.7329  0.3523
  145SAPE  C31816032   0.665   4.281   8.555  0.4626 -0.1159  0.4976
  145SAPE  H18X16033   0.632   4.238   8.458 -0.4735 -0.7569  1.0938
  145SAPE  H18Y16034   0.635   4.388   8.560 -2.0248 -0.7242 -0.1122
  145SAPE  H18Z16035   0.618   4.228   8.640  1.4764  0.6436  1.5549
  146SAPE     N16036   0.310   5.209  10.937  0.1779 -0.5846 -0.5061
  146SAPE   HN116037   0.221   5.171  10.976  1.6454 -1.8320  1.7888
  146SAPE   HN216038   0.347   5.259  11.020 -0.4063  1.9762 -1.6931
  146SAPE   HN316039   0.302   5.287  10.868  1.3427 -1.1523 -1.3036
  146SAPE   C1216040   0.416   5.106  10.906 -0.1632  0.2711 -0.3767
  146SAPE  H12A16041   0.399   5.065  10.804  0.7877 -2.3711  0.4323
  146SAPE  H12B16042   0.402   5.019  10.974  0.7967  0.3477 -0.0613
  146SAPE   C1116043   0.568   5.161  10.930  0.9198 -0.6405 -0.1823
  146SAPE  H11A16044   0.639   5.078  10.907  0.5262 -1.1135  0.2652
  146SAPE  H11B16045   0.565   5.173  11.041  0.3730 -0.8256 -0.1747
  146SAPE     P16046   0.729   5.323  10.807 -0.1506  0.2439  0.2570
  146SAPE   O1316047   0.741   5.470  10.788  0.1201 -0.2005  0.9740
  146SAPE   O1416048   0.838   5.256  10.882 -0.2842  0.2678  0.1966
  146SAPE   O1216049   0.583   5.289  10.864 -0.0109 -0.1211 -0.3373
  146SAPE   O1116050   0.727   5.253  10.669 -0.0726 -0.1563 -0.3291
  146SAPE    C116051   0.600   5.242  10.594 -0.5833 -0.0796  0.0897
  146SAPE    HA16052   0.551   5.149  10.628  1.3638 -0.8986  0.8177
  146SAPE    HB16053   0.538   5.334  10.603 -1.4609 -0.4512 -1.5621
  146SAPE    C216054   0.638   5.216  10.449  0.3602  0.6189  0.2451
  146SAPE    HS16055   0.541   5.204  10.398 -0.7866 -0.3974  2.4942
  146SAPE   O2116056   0.724   5.103  10.428 -0.3635 -0.1923  0.2389
  146SAPE   C2116057   0.668   4.989  10.457  0.3070  0.2255 -0.2828
  146SAPE   O2216058   0.549   4.974  10.472  0.4896  0.1814  0.6929
  146SAPE   C2216059   0.771   4.885  10.456  0.0315  0.1904  0.8716
  146SAPE   H2R16060   0.868   4.930  10.486 -0.1413  0.7726  0.5637
  146SAPE   H2S16061   0.748   4.797  10.521  2.7873 -1.3957 -0.1129
  146SAPE    C316062   0.700   5.340  10.384 -0.0463 -0.2700 -0.1363
  146SAPE    HX16063   0.798   5.356  10.434 -0.0951 -0.3161 -0.0264
  146SAPE    HY16064   0.632   5.427  10.392 -0.9394 -0.8287 -1.3332
  146SAPE   O3116065   0.722   5.314  10.245 -0.0843 -0.0446  0.6305
  146SAPE   C3116066   0.821   5.385  10.186  0.7665  0.4229  0.1837
  146SAPE   O3216067   0.903   5.449  10.248  0.2126 -0.0382  0.4526
  146SAPE   C3216068   0.831   5.365  10.030  0.1160 -0.1966 -0.4629
  146SAPE   H2X16069   0.896   5.453  10.014 -2.5472  1.5016 -2.9171
  146SAPE   H2Y16070   0.730   5.380   9.984 -0.9949 -0.2634  1.8025
  146SAPE   C2316071   0.787   4.830  10.308 -0.4778 -0.2892  0.2527
  146SAPE   H3R16072   0.685   4.819  10.268  0.0791 -0.7209 -1.1003
  146SAPE   H3S16073   0.824   4.726  10.316 -1.0739 -0.4351  1.2198
  146SAPE   C2416074   0.876   4.908  10.210 -0.6116  0.4970  0.3127
  146SAPE   H4R16075   0.842   5.014  10.207  0.8335  0.9826 -0.3411
  146SAPE   H4S16076   0.863   4.880  10.103 -0.5772 -2.2238  0.9620
  146SAPE   C2516077   1.017   4.902  10.237 -0.1988  0.3688  0.1876
  146SAPE   H5R16078   1.033   4.879  10.344 -1.5704 -0.3175  0.2690
  146SAPE   C2616079   1.129   4.922  10.161  0.0403 -0.0580  0.7581
  146SAPE   H6R16080   1.231   4.909  10.199  0.8267  0.4247 -1.0578
  146SAPE   C2716081   1.137   4.942  10.015 -0.3441 -0.5456  0.3484
  146SAPE   H7R16082   1.240   4.968   9.983 -0.6009  0.4186  0.2708
  146SAPE   H7S16083   1.082   5.034   9.983  0.3750 -0.4055 -0.5140
  146SAPE   C2816084   1.080   4.827   9.935 -0.2183 -0.4127  0.0480
  146SAPE   H8R16085   1.045   4.739   9.991  0.9506 -0.8845  0.0665
  146SAPE   C2916086   1.048   4.811   9.809 -0.1318 -0.4842 -0.3152
  146SAPE   H9R16087   1.002   4.718   9.770 -0.7007 -0.2177 -0.2834
  146SAPE  C21016088   1.068   4.918   9.699 -0.7814 -0.3999 -0.0889
  146SAPE  H10R16089   1.160   4.976   9.721 -0.0080 -1.6970  0.1655
  146SAPE  H10S16090   0.985   4.992   9.706 -0.3178  0.0144  1.1074
  146SAPE  C21116091   1.072   4.880   9.554  0.3959 -0.1426  0.1558
  146SAPE  H11R16092   1.013   4.788   9.536 -1.3611  0.3552  2.7193
  146SAPE  C21216093   1.138   4.943   9.452  0.2620  0.4986  0.3434
  146SAPE  H12R16094   1.138   4.894   9.353  1.8583  0.1006  0.5040
  146SAPE  C21316095   1.218   5.067   9.463  0.7253 -0.2570  0.1962
  146SAPE  H13R16096   1.322   5.033   9.487  1.6947  2.9244  0.9491
  146SAPE  H13S16097   1.195   5.128   9.552 -0.1629 -0.7970  0.3521
  146SAPE  C21416098   1.211   5.152   9.340 -0.1687 -0.7855 -0.2588
  146SAPE  H14R16099   1.108   5.166   9.302  0.1549 -0.9094 -1.2215
  146SAPE  C21516100   1.309   5.201   9.257  0.1841 -0.2665 -0.0546
  146SAPE  H15R16101   1.282   5.257   9.167 -0.9124  3.1223  2.1852
  146SAPE  C21616102   1.455   5.197   9.297  0.6685 -0.0974  0.5668
  146SAPE  H16R16103   1.496   5.104   9.341 -0.3370 -1.3126 -0.9712
  146SAPE  H16S16104   1.471   5.274   9.376 -0.9935 -0.7805  1.6153
  146SAPE  C21716105   1.545   5.213   9.173 -0.0904  0.3002 -0.0447
  146SAPE  H17R16106   1.651   5.226   9.204 -0.0940 -0.0493  0.1176
  146SAPE  H17S16107   1.520   5.307   9.120  2.2032  1.2526  0.4309
  146SAPE  C21816108   1.538   5.087   9.078  0.1175  0.1548 -1.1388
  146SAPE  H18R16109   1.432   5.068   9.049 -0.0702 -0.0827 -0.3080
  146SAPE  H18S16110   1.573   4.996   9.131 -1.9752  0.4167  0.8352
  146SAPE  C21916111   1.618   5.117   8.952  0.0162 -0.3696  0.5831
  146SAPE  H19R16112   1.717   5.165   8.970  0.0567 -0.2974  0.1643
  146SAPE  H19S16113   1.553   5.193   8.904  0.5390 -0.4140 -0.2158
  146SAPE  C22016114   1.638   4.991   8.860 -0.3012  0.5237  0.5190
  146SAPE  H20R16115   1.547   4.930   8.843 -0.4347  1.0231 -0.6185
  146SAPE  H20S16116   1.721   4.928   8.901 -0.0568  1.3466  1.3408
  146SAPE  H20T16117   1.670   5.036   8.764 -0.2175 -0.9336 -0.1515
  146SAPE   C3316118   0.912   5.237   9.981 -0.0749 -0.2820 -1.0951
  146SAPE   H3X16119   0.854   5.145  10.002 -0.1835  0.2898  1.4922
  146SAPE   H3Y16120   1.000   5.214  10.046 -0.8229 -2.1413 -0.6757
  146SAPE   C3416121   0.955   5.261   9.839 -0.4340 -0.7853 -0.2620
  146SAPE   H4X16122   0.984   5.167   9.786  1.4134 -0.9256  0.8788
  146SAPE   H4Y16123   1.044   5.327   9.837  0.2908 -1.7252 -0.1565
  146SAPE   C3516124   0.851   5.323   9.741 -0.3549 -0.2335 -0.2412
  146SAPE   H5X16125   0.827   5.428   9.769 -0.5441  0.0692 -1.4772
  146SAPE   H5Y16126   0.753   5.272   9.748 -1.0562  1.2010  0.9395
  146SAPE   C3616127   0.895   5.325   9.594 -0.7233  0.0098  0.2896
  146SAPE   H6X16128   0.923   5.220   9.568 -0.7165 -0.1505  0.9367
  146SAPE   H6Y16129   0.987   5.388   9.588 -0.1443 -0.6239  1.9502
  146SAPE   C3716130   0.790   5.360   9.489 -0.3606  0.7024  0.3859
  146SAPE   H7X16131   0.719   5.436   9.529  0.4971  3.0500 -2.2582
  146SAPE   H7Y16132   0.737   5.271   9.448  0.7555  0.7595 -1.2737
  146SAPE   C3816133   0.848   5.421   9.366 -0.2739 -0.3116  0.1207
  146SAPE   H8X16134   0.941   5.364   9.344 -1.1890 -2.4398  1.4444
  146SAPE   H8Y16135   0.866   5.531   9.373 -1.4469 -0.0187 -1.0401
  146SAPE   C3916136   0.750   5.418   9.247 -0.2840  0.3352 -0.1697
  146SAPE   H9X16137   0.672   5.497   9.256 -1.1250 -0.6688  2.0090
  146SAPE   H9Y16138   0.688   5.326   9.261 -2.7599  2.2696  2.9333
  146SAPE  C31016139   0.812   5.433   9.109 -0.3630 -0.7011  0.4972
  146SAPE  H10X16140   0.896   5.361   9.104 -0.9516 -1.4404  1.0007
  146SAPE  H10Y16141   0.846   5.539   9.105 -0.4222 -0.7112 -0.2314
  146SAPE  C31116142   0.712   5.401   8.996 -0.5045 -0.4799 -0.0600
  146SAPE  H11X16143   0.626   5.472   8.999  0.0605  0.4330 -2.6265
  146SAPE  H11Y16144   0.672   5.298   9.009 -0.0823 -0.5691  0.5956
  146SAPE  C31216145   0.783   5.413   8.859  1.3694  0.1208  0.2326
  146SAPE  H12X16146   0.890   5.387   8.876  1.4105 -0.2090 -0.4800
  146SAPE  H12Y16147   0.771   5.519   8.827 -0.6899  0.3453  1.5729
  146SAPE  C31316148   0.732   5.313   8.754  0.0261  0.4630  0.4771
  146SAPE  H13X16149   0.760   5.214   8.794 -0.3085  0.2076  0.0831
  146SAPE  H13Y16150   0.788   5.316   8.658 -0.0490 -0.8171  0.3829
  146SAPE  C31416151   0.579   5.324   8.723 -0.5821 -0.2526  0.5191
  146SAPE  H14X16152   0.555   5.419   8.672  0.1427 -0.8321 -0.9781
  146SAPE  H14Y16153   0.510   5.318   8.810 -0.5162  1.4173  0.7084
  146SAPE  C31516154   0.535   5.223   8.613 -0.1273 -0.2731 -0.0996
  146SAPE  H15X16155   0.524   5.122   8.657 -1.0753 -0.1089  0.0449
  146SAPE  H15Y16156   0.608   5.227   8.529 -0.8773  2.5133 -0.7182
  146SAPE  C31616157   0.396   5.249   8.551  0.3452  0.6506  0.2158
  146SAPE  H16X16158   0.317   5.258   8.629 -0.8222 -0.5483 -0.7639
  146SAPE  H16Y16159   0.373   5.161   8.488  2.9594 -0.3556  0.5198
  146SAPE  C31716160   0.394   5.367   8.450 -1.1437 -0.0951  0.2185
  146SAPE  H17X16161   0.466   5.340   8.370 -2.4042 -1.0735 -0.6483
  146SAPE  H17Y16162   0.420   5.460   8.505  1.6775 -1.2975  1.0959
  146SAPE  C31816163   0.257   5.374   8.372 -0.0497 -0.2523 -1.0888
  146SAPE  H18X16164   0.257   5.455   8.297 -0.8416  0.3737 -0.4335
  146SAPE  H18Y16165   0.181   5.377   8.454  0.9267  1.4359 -0.1989
  146SAPE  H18Z16166   0.251   5.284   8.307 -0.1834 -0.4983 -0.7390
  147SAPE     N16167   2.507   0.093  11.188 -0.1470  0.4384 -0.7649
  147SAPE   HN116168   2.443   0.033  11.133 -0.0339 -0.9451  0.5735
  147SAPE   HN216169   2.542   0.165  11.121 -0.3270 -0.2593 -1.6276
  147SAPE   HN316170   2.594   0.048  11.223 -0.2097  0.2899 -0.7997
  147SAPE   C1216171   2.411   0.142  11.292  0.9282 -1.0623 -0.1959
  147SAPE  H12A16172   2.469   0.168  11.383  0.9418 -1.3255 -0.1291
  147SAPE  H12B16173   2.339   0.059  11.307  0.3017 -0.5624 -0.3672
  147SAPE   C1116174   2.352   0.275  11.241  0.7361  0.4534  0.2291
  147SAPE  H11A16175   2.438   0.340  11.214  1.0014  0.2859  0.6598
  147SAPE  H11B16176   2.305   0.308  11.336  1.9334  0.3549  0.8731
  147SAPE     P16177   2.110   0.272  11.143 -0.1960 -0.0858 -0.1113
  147SAPE   O1316178   2.045   0.156  11.221  0.1297  0.6414  0.1132
  147SAPE   O1416179   2.091   0.410  11.194 -0.0228 -0.7101 -0.0766
  147SAPE   O1216180   2.268   0.250  11.129  0.1090  0.1431  0.1226
  147SAPE   O1116181   2.075   0.266  10.990 -0.2127  0.7756 -0.5185
  147SAPE    C116182   2.053   0.134  10.935  0.3131  0.4351  0.3678
  147SAPE    HA16183   2.144   0.077  10.964  1.3950  2.4014  1.0083
  147SAPE    HB16184   1.959   0.089  10.973 -2.1357  3.9482 -1.0133
  147SAPE    C216185   2.031   0.131  10.782 -0.3850 -0.6370  0.2465
  147SAPE    HS16186   2.018   0.022  10.766  0.5541 -1.1145  2.4541
  147SAPE   O2116187   2.141   0.190  10.710  0.4483 -0.2099 -0.3106
  147SAPE   C2116188   2.171   0.138  10.593 -0.0379  0.3121  0.6884
  147SAPE   O2216189   2.105   0.060  10.525 -0.1686 -0.1246  0.3276
  147SAPE   C2216190   2.311   0.198  10.559 -0.2591  0.3306 -0.2114
  147SAPE   H2R16191   2.318   0.307  10.577  1.0279  0.0075  1.3879
  147SAPE   H2S16192   2.389   0.157  10.626 -0.3064 -0.7476 -0.7989
  147SAPE    C316193   1.905   0.210  10.745 -0.1423 -0.4443 -0.2587
  147SAPE    HX16194   1.939   0.310  10.779  0.9722 -1.5684  2.1747
  147SAPE    HY16195   1.819   0.174  10.805  1.0914 -0.1325  1.7681
  147SAPE   O3116196   1.863   0.210  10.607 -0.0553 -0.5270  0.0838
  147SAPE   C3116197   1.815   0.080  10.568  0.5152 -1.0421 -0.6337
  147SAPE   O3216198   1.781  -0.004  10.652 -0.0098 -0.6045 -0.0099
  147SAPE   C3216199   1.798   0.084  10.418 -0.0182  0.5043  0.9623
  147SAPE   H2X16200   1.901   0.084  10.376  0.0666 -3.0894  0.8711
  147SAPE   H2Y16201   1.728   0.164  10.386 -1.6003 -1.2715 -0.2021
  147SAPE   C2316202   2.346   0.166  10.409 -0.3881 -0.6350 -0.4887
  147SAPE   H3R16203   2.415   0.246  10.376 -0.3961 -0.1466  0.6233
  147SAPE   H3S16204   2.262   0.182  10.338  1.5013 -0.6567 -2.8794
  147SAPE   C2416205   2.397   0.020  10.382  0.9294  0.0677  0.0515
  147SAPE   H4R16206   2.317  -0.052  10.409  2.4174 -2.1878 -1.2235
  147SAPE   H4S16207   2.487  -0.004  10.443  0.9774 -1.5673 -0.6194
  147SAPE   C2516208   2.432   0.025  10.237 -0.5280  0.5422 -0.0113
  147SAPE   H5R16209   2.514   0.094  10.210  1.3622 -1.5099  0.1557
  147SAPE   C2616210   2.384  -0.051  10.134 -0.5904  0.0116 -0.0207
  147SAPE   H6R16211   2.417  -0.046  10.029 -0.8212 -1.1813 -0.1647
  147SAPE   C2716212   2.277  -0.156  10.140 -0.1706  0.1303 -0.3557
  147SAPE   H7R16213   2.308  -0.225  10.222  0.5538  0.2769 -0.4991
  147SAPE   H7S16214   2.263  -0.219  10.050  0.7253  0.1092 -0.4922
  147SAPE   C2816215   2.142  -0.101  10.184 -0.3463 -0.4334  0.6904
  147SAPE   H8R16216   2.109  -0.130  10.285 -1.1395  0.3637  0.6698
  147SAPE   C2916217   2.065  -0.009  10.118  0.6492  0.0780 -0.0653
  147SAPE   H9R16218   1.966   0.014  10.159  0.8304  1.6026 -0.4457
  147SAPE  C21016219   2.105   0.058   9.989  1.1330  0.0297  0.0986
  147SAPE  H10R16220   2.130  -0.023   9.918 -3.4926 -0.4284 -1.3034
  147SAPE  H10S16221   2.196   0.120  10.002 -1.3831  3.8176  1.2948
  147SAPE  C21116222   2.010   0.169   9.944 -0.0703  0.4402  0.0655
  147SAPE  H11R16223   1.995   0.249  10.018 -0.7461 -0.1219  0.5569
  147SAPE  C21216224   1.954   0.170   9.821 -0.2051  0.9002 -0.2623
  147SAPE  H12R16225   1.893   0.255   9.789 -0.0957  0.7690 -0.8191
  147SAPE  C21316226   1.977   0.069   9.706 -0.2247 -0.1925  0.3778
  147SAPE  H13R16227   1.885   0.066   9.645 -0.9321 -0.2251  1.4126
  147SAPE  H13S16228   1.974  -0.034   9.748  0.1009 -0.3721 -0.0300
  147SAPE  C21416229   2.117   0.075   9.642 -0.1681  0.6920  0.4663
  147SAPE  H14R16230   2.193   0.116   9.710  0.5021  0.4099 -0.0993
  147SAPE  C21516231   2.136   0.048   9.513 -0.4973 -0.1234  0.0412
  147SAPE  H15R16232   2.239   0.058   9.475 -0.2853 -1.0047  0.3519
  147SAPE  C21616233   2.040   0.001   9.411 -0.1599  0.1364  0.8000
  147SAPE  H16R16234   1.946  -0.028   9.463 -0.1005 -1.9623 -0.1702
  147SAPE  H16S16235   2.081  -0.094   9.372  1.0370  1.0548 -0.2694
  147SAPE  C21716236   2.005   0.112   9.310 -0.4540  0.7107 -0.5760
  147SAPE  H17R16237   1.959   0.201   9.358  0.7450  1.4590 -0.7927
  147SAPE  H17S16238   1.916   0.071   9.257 -0.7904  0.0333  0.4716
  147SAPE  C21816239   2.119   0.150   9.219 -0.2928  0.1728  0.0601
  147SAPE  H18R16240   2.146   0.051   9.175  1.1232  0.7243 -0.3883
  147SAPE  H18S16241   2.200   0.193   9.282 -0.7339  1.2295 -0.0860
  147SAPE  C21916242   2.073   0.258   9.116 -0.2995  0.3812 -0.5835
  147SAPE  H19R16243   2.163   0.288   9.058  0.9147 -1.2659  0.3815
  147SAPE  H19S16244   2.046   0.350   9.172 -0.6858 -0.0851 -0.0034
  147SAPE  C22016245   1.955   0.230   9.028  0.2519  0.6944 -0.0174
  147SAPE  H20R16246   1.964   0.152   8.949 -2.3259 -2.3398  2.4602
  147SAPE  H20S16247   1.929   0.327   8.979  0.6845  0.3484 -0.9627
  147SAPE  H20T16248   1.875   0.191   9.094  0.4942 -0.4361 -0.3659
  147SAPE   C3316249   1.733  -0.056  10.374 -0.5250 -0.5668  0.4248
  147SAPE   H3X16250   1.782  -0.146  10.418 -0.4073 -0.4686  0.4959
  147SAPE   H3Y16251   1.750  -0.052  10.264  0.9080  1.5081  0.6547
  147SAPE   C3416252   1.581  -0.052  10.386 -0.1488  0.8936 -1.1896
  147SAPE   H4X16253   1.552  -0.035  10.492  0.1583 -2.0094 -0.5536
  147SAPE   H4Y16254   1.550  -0.158  10.371 -1.4548  0.6791  2.1098
  147SAPE   C3516255   1.502   0.036  10.285  0.4956 -0.4780 -0.2095
  147SAPE   H5X16256   1.516   0.139  10.323  0.5531 -0.3849 -0.4821
  147SAPE   H5Y16257   1.394   0.021  10.305  0.3677  1.6548  0.9318
  147SAPE   C3616258   1.532   0.029  10.136 -0.1739 -0.2490  1.1269
  147SAPE   H6X16259   1.640   0.047  10.120 -0.0789 -0.3773  1.6145
  147SAPE   H6Y16260   1.479   0.116  10.092  3.1809  1.9718  1.1544
  147SAPE   C3716261   1.483  -0.104  10.064 -0.5213  0.6621  0.2680
  147SAPE   H7X16262   1.375  -0.127  10.072 -0.8505  2.3927  1.4332
  147SAPE   H7Y16263   1.535  -0.180  10.126  2.9659  2.0440 -0.6754
  147SAPE   C3816264   1.540  -0.124   9.924  0.2529 -0.0427  0.4390
  147SAPE   H8X16265   1.535  -0.230   9.892 -2.5272  0.7795 -2.5247
  147SAPE   H8Y16266   1.646  -0.096   9.941  0.8409 -1.6648 -0.3522
  147SAPE   C3916267   1.477  -0.047   9.806 -0.2433 -0.3007  0.2168
  147SAPE   H9X16268   1.473   0.063   9.825  0.7529 -0.3136  0.5585
  147SAPE   H9Y16269   1.371  -0.080   9.799 -0.9477  1.9942 -1.4325
  147SAPE  C31016270   1.559  -0.063   9.669  1.0104 -0.4883 -0.0819
  147SAPE  H10X16271   1.552  -0.172   9.648  0.4569 -1.0567  2.7161
  147SAPE  H10Y16272   1.663  -0.029   9.688  0.1686  1.4300  1.4122
  147SAPE  C31116273   1.496   0.008   9.547 -0.0211 -0.9822 -0.5315
  147SAPE  H11X16274   1.478   0.114   9.577  0.8499 -1.3895  1.5714
  147SAPE  H11Y16275   1.398  -0.036   9.517 -0.6282  0.3653 -0.6180
  147SAPE  C31216276   1.589   0.009   9.426  0.1007 -0.4454 -0.1142
  147SAPE  H12X16277   1.601  -0.099   9.401  0.6194 -0.2106 -0.9212
  147SAPE  H12Y16278   1.690   0.046   9.455 -0.1742  2.3694 -2.3321
  147SAPE  C31316279   1.538   0.077   9.298 -0.9142 -0.5788 -0.2987
  147SAPE  H13X16280   1.565   0.185   9.301 -1.5488 -0.4341  1.7413
  147SAPE  H13Y16281   1.427   0.075   9.300 -0.9391  0.4137 -0.3019
  147SAPE  C31416282   1.580   0.012   9.163  0.6176  0.0366  0.0704
  147SAPE  H14X16283   1.549  -0.094   9.171  0.2921 -0.2250 -3.3304
  147SAPE  H14Y16284   1.689   0.015   9.142  0.3880  0.2581 -1.1653
  147SAPE  C31516285   1.510   0.078   9.051  0.4888 -0.2770 -1.1211
  147SAPE  H15X16286   1.543   0.184   9.061 -0.0829 -0.2883  1.6442
  147SAPE  H15Y16287   1.400   0.064   9.057  0.1374  2.3391 -0.0576
  147SAPE  C31616288   1.578   0.025   8.922  0.1623 -0.0810  0.3507
  147SAPE  H16X16289   1.561  -0.083   8.903  0.4555 -0.6834  3.1179
  147SAPE  H16Y16290   1.689   0.013   8.925  0.1966 -0.7097 -1.7277
  147SAPE  C31716291   1.540   0.114   8.808 -0.4177  0.6392  0.4492
  147SAPE  H17X16292   1.553   0.222   8.831  0.0993  0.3557  1.5533
  147SAPE  H17Y16293   1.434   0.093   8.781 -1.0058  3.2438  0.4765
  147SAPE  C31816294   1.616   0.078   8.682  0.6657  0.0649  0.4450
  147SAPE  H18X16295   1.599  -0.029   8.657 -3.5324  0.4480  0.9761
  147SAPE  H18Y16296   1.722   0.106   8.701  0.9602 -1.4898  1.2312
  147SAPE  H18Z16297   1.589   0.146   8.599  3.7794  1.5826  0.5144
  148SAPE     N16298   2.106   1.508  10.773 -0.1128 -0.1276 -0.0924
  148SAPE   HN116299   2.194   1.456  10.787  0.9886  1.2742 -1.4516
  148SAPE   HN216300   2.097   1.581  10.847 -1.6097 -0.2749 -0.1029
  148SAPE   HN316301   2.028   1.439  10.778  0.0779 -0.5169 -1.8493
  148SAPE   C1216302   2.116   1.557  10.634 -0.0073  0.1568  0.2805
  148SAPE  H12A16303   2.020   1.606  10.607 -0.1897 -0.9629 -1.2646
  148SAPE  H12B16304   2.124   1.472  10.563 -0.9057  1.6094 -1.6537
  148SAPE   C1116305   2.237   1.651  10.621 -0.4242  0.3540 -0.1755
  148SAPE  H11A16306   2.206   1.736  10.686 -0.4946 -0.9260  1.5533
  148SAPE  H11B16307   2.232   1.679  10.514  1.3935 -0.9720 -0.6493
  148SAPE     P16308   2.455   1.507  10.570 -0.1759 -0.1503 -0.4067
  148SAPE   O1316309   2.560   1.427  10.643 -0.0483  1.0965 -0.1844
  148SAPE   O1416310   2.375   1.439  10.466 -0.6892  0.4660 -0.3413
  148SAPE   O1216311   2.357   1.586  10.670  0.1703  0.3896 -0.0797
  148SAPE   O1116312   2.526   1.629  10.503  0.7267  0.1205 -0.6176
  148SAPE    C116313   2.643   1.686  10.568 -0.5190 -0.4300  0.3639
  148SAPE    HA16314   2.604   1.713  10.668 -1.0949 -3.2677  1.0040
  148SAPE    HB16315   2.720   1.608  10.587  0.4589  0.8169  1.7754
  148SAPE    C216316   2.696   1.806  10.480  0.5335  0.1905 -0.3093
  148SAPE    HS16317   2.755   1.868  10.551 -0.9111  0.8822  0.3211
  148SAPE   O2116318   2.581   1.886  10.430 -0.1301  0.5055  0.5061
  148SAPE   C2116319   2.528   1.963  10.513  0.2664  0.3665  0.0521
  148SAPE   O2216320   2.569   1.993  10.625  1.0050 -0.5011  0.2490
  148SAPE   C2216321   2.389   2.005  10.466 -0.3073 -0.2275 -0.1412
  148SAPE   H2R16322   2.321   1.986  10.552 -1.7177 -2.2958 -1.6287
  148SAPE   H2S16323   2.411   2.113  10.451 -0.4695 -0.0841  0.6241
  148SAPE    C316324   2.784   1.762  10.363 -0.4629 -0.0173  0.1710
  148SAPE    HX16325   2.727   1.703  10.288  3.4988 -0.0320 -3.1809
  148SAPE    HY16326   2.863   1.694  10.402 -1.3307 -0.8522  0.5171
  148SAPE   O3116327   2.844   1.869  10.290  0.5927 -0.1304  0.4549
  148SAPE   C3116328   2.926   1.819  10.191  0.9042 -0.6290  0.3980
  148SAPE   O3216329   2.941   1.706  10.157 -0.4501  0.2167  0.1722
  148SAPE   C3216330   2.997   1.941  10.132  0.1805  0.3706  1.0527
  148SAPE   H2X16331   3.083   1.971  10.196 -0.3614  0.8474  1.5688
  148SAPE   H2Y16332   2.926   2.026  10.133 -1.1471 -0.6999  1.1360
  148SAPE   C2316333   2.336   1.942  10.338  0.3792  0.2141 -0.6921
  148SAPE   H3R16334   2.286   1.848  10.368  1.4956 -0.6018 -1.3148
  148SAPE   H3S16335   2.412   1.914  10.262 -1.0634  1.1437 -2.5726
  148SAPE   C2416336   2.222   2.033  10.275 -0.1773  0.0734 -0.1088
  148SAPE   H4R16337   2.150   2.052  10.357  0.2636  0.1566  0.2649
  148SAPE   H4S16338   2.161   1.982  10.199  1.8037  1.0022 -2.4713
  148SAPE   C2516339   2.277   2.156  10.214 -0.0310 -0.2540 -0.5945
  148SAPE   H5R16340   2.326   2.221  10.288 -0.0685  0.7635 -1.4251
  148SAPE   C2616341   2.284   2.190  10.086 -0.1298  0.8123 -0.3056
  148SAPE   H6R16342   2.347   2.271  10.048  0.0709  0.9037  0.2123
  148SAPE   C2716343   2.228   2.115   9.959 -0.3700  0.2358  0.0064
  148SAPE   H7R16344   2.180   2.194   9.898  0.1599 -1.0863 -2.2422
  148SAPE   H7S16345   2.141   2.051   9.986 -0.6463  1.3682  1.9687
  148SAPE   C2816346   2.322   2.032   9.876 -0.6155  0.5439  0.5793
  148SAPE   H8R16347   2.349   1.943   9.935  2.5137  1.4048  0.6322
  148SAPE   C2916348   2.360   2.055   9.749 -0.0028 -0.1798  0.2016
  148SAPE   H9R16349   2.428   1.984   9.700 -1.0220 -0.9969 -0.0616
  148SAPE  C21016350   2.321   2.177   9.672 -0.2612 -0.0397  0.2724
  148SAPE  H10R16351   2.401   2.200   9.599 -1.1054  0.8180 -0.4170
  148SAPE  H10S16352   2.318   2.268   9.735  2.9424 -0.2850  0.9341
  148SAPE  C21116353   2.182   2.171   9.604 -0.1085 -0.5428  0.3861
  148SAPE  H11R16354   2.107   2.161   9.683  0.7426 -2.2370  1.0266
  148SAPE  C21216355   2.154   2.155   9.474 -0.3325  0.2594  0.2273
  148SAPE  H12R16356   2.048   2.134   9.455  0.1613 -1.8348 -0.5387
  148SAPE  C21316357   2.257   2.111   9.368  0.0321 -0.6095  0.1664
  148SAPE  H13R16358   2.254   2.000   9.359 -1.9130 -0.6708  1.0920
  148SAPE  H13S16359   2.358   2.138   9.406 -0.7884 -0.0462  2.0979
  148SAPE  C21416360   2.225   2.162   9.235 -0.0313  0.2373  0.3533
  148SAPE  H14R16361   2.238   2.271   9.230 -0.1182  0.2622  0.6358
  148SAPE  C21516362   2.168   2.103   9.122 -0.2829  1.0304  0.2610
  148SAPE  H15R16363   2.141   2.178   9.046 -1.1332  2.3425  1.8144
  148SAPE  C21616364   2.121   1.960   9.092 -0.1990  0.1402  0.5368
  148SAPE  H16R16365   2.011   1.961   9.080 -0.3134  0.2063  1.5039
  148SAPE  H16S16366   2.131   1.888   9.177 -0.2761 -0.6351 -0.1062
  148SAPE  C21716367   2.186   1.904   8.959 -0.3556  0.5800  0.1296
  148SAPE  H17R16368   2.158   1.971   8.875  0.6264  2.9951  1.5940
  148SAPE  H17S16369   2.152   1.801   8.940  2.2912 -0.3708  0.0853
  148SAPE  C21816370   2.336   1.896   8.963 -0.5506  0.0551  0.0210
  148SAPE  H18R16371   2.373   2.001   8.962  0.3398 -0.2412 -1.9009
  148SAPE  H18S16372   2.374   1.862   8.864 -0.6375 -0.9716  0.3245
  148SAPE  C21916373   2.394   1.820   9.081  0.7011 -0.3703  0.0393
  148SAPE  H19R16374   2.362   1.714   9.070 -0.3069 -0.1676  0.9074
  148SAPE  H19S16375   2.365   1.864   9.178 -2.3308 -1.8379 -0.0589
  148SAPE  C22016376   2.546   1.811   9.062 -0.1340 -0.8215  0.3429
  148SAPE  H20R16377   2.593   1.757   9.147  0.7759  0.3345  0.5890
  148SAPE  H20S16378   2.587   1.914   9.055 -2.9251  0.3414 -0.0194
  148SAPE  H20T16379   2.566   1.751   8.970 -3.4924 -0.4356 -0.7576
  148SAPE   C3316380   3.027   1.925   9.979  0.6116 -0.5753 -0.3166
  148SAPE   H3X16381   2.931   1.953   9.931  0.8030  1.3112  0.3162
  148SAPE   H3Y16382   3.048   1.818   9.957  1.3960 -0.1153 -1.9675
  148SAPE   C3416383   3.133   2.015   9.926 -0.5236  0.3549  0.8439
  148SAPE   H4X16384   3.227   1.993   9.981 -0.4073 -0.6171  0.2700
  148SAPE   H4Y16385   3.111   2.123   9.945  0.4788  0.5098  1.2109
  148SAPE   C3516386   3.150   2.002   9.775  0.0361  0.2606  0.1056
  148SAPE   H5X16387   3.057   2.028   9.719  0.4094  1.3436 -0.0478
  148SAPE   H5Y16388   3.177   1.895   9.769  1.4603  0.5670  0.6459
  148SAPE   C3616389   3.263   2.096   9.723  0.1131  0.7386  0.1661
  148SAPE   H6X16390   3.361   2.072   9.770  1.3130 -1.9151 -3.2160
  148SAPE   H6Y16391   3.232   2.199   9.750  0.4252  1.2905 -1.4273
  148SAPE   C3716392   3.296   2.088   9.567 -0.4194 -0.1865 -0.5756
  148SAPE   H7X16393   3.324   1.987   9.531 -1.7260 -0.5521 -0.5862
  148SAPE   H7Y16394   3.382   2.157   9.551  0.6525 -1.1502  0.7373
  148SAPE   C3816395   3.183   2.116   9.477  0.3495 -0.3869  0.0678
  148SAPE   H8X16396   3.155   2.219   9.508  2.6499  0.0774  0.8529
  148SAPE   H8Y16397   3.096   2.049   9.489  0.4470 -1.3738 -3.4304
  148SAPE   C3916398   3.228   2.121   9.329  0.4879  0.2549 -0.0931
  148SAPE   H9X16399   3.225   2.024   9.275 -0.3438  0.3389 -0.2063
  148SAPE   H9Y16400   3.321   2.179   9.315  1.2172 -1.1381 -1.4350
  148SAPE  C31016401   3.108   2.179   9.249  0.1502 -0.3031  0.4166
  148SAPE  H10X16402   3.055   2.265   9.295  2.2713  1.0876  0.3723
  148SAPE  H10Y16403   3.034   2.097   9.237  0.7360 -0.6642 -0.9491
  148SAPE  C31116404   3.151   2.216   9.106  0.6347 -0.2596 -0.6315
  148SAPE  H11X16405   3.235   2.288   9.097  0.2051  0.3504  0.0424
  148SAPE  H11Y16406   3.061   2.262   9.061  0.0570  1.1805  1.7817
  148SAPE  C31216407   3.189   2.088   9.025  0.2688 -0.2613  0.1495
  148SAPE  H12X16408   3.103   2.018   9.036 -0.8628  0.6209 -2.3760
  148SAPE  H12Y16409   3.285   2.047   9.063  0.5358  0.1141 -0.1168
  148SAPE  C31316410   3.212   2.117   8.875 -0.0106 -0.3611  0.5346
  148SAPE  H13X16411   3.289   2.194   8.853  0.1811 -0.8417 -0.5425
  148SAPE  H13Y16412   3.117   2.166   8.844 -0.3843 -0.8268  0.9427
  148SAPE  C31416413   3.251   1.995   8.797 -0.3229  0.3519 -0.4319
  148SAPE  H14X16414   3.160   1.931   8.793  0.3390 -0.9316  2.4103
  148SAPE  H14Y16415   3.330   1.936   8.848 -4.3204 -2.0265  3.7807
  148SAPE  C31516416   3.287   2.037   8.651  0.2188 -0.0372 -0.7615
  148SAPE  H15X16417   3.343   2.133   8.660 -0.5822  0.4715 -1.0034
  148SAPE  H15Y16418   3.185   2.066   8.617 -0.2382 -1.7111 -0.9139
  148SAPE  C31616419   3.347   1.929   8.569 -0.4288  0.6788  0.2892
  148SAPE  H16X16420   3.307   1.831   8.601 -2.7732  1.6475  0.4940
  148SAPE  H16Y16421   3.456   1.920   8.591 -0.4437 -1.3308 -0.2875
  148SAPE  C31716422   3.335   1.946   8.413 -0.3498 -0.5792 -0.1529
  148SAPE  H17X16423   3.232   1.934   8.375 -1.2414 -0.4349  2.0667
  148SAPE  H17Y16424   3.407   1.870   8.376  1.5868  1.8861 -1.8745
  148SAPE  C31816425   3.384   2.084   8.373  0.0124  0.2222  0.1239
  148SAPE  H18X16426   3.297   2.151   8.387  0.4374  0.8308 -0.0636
  148SAPE  H18Y16427   3.409   2.104   8.266 -0.8141  2.2141  0.2534
  148SAPE  H18Z16428   3.466   2.119   8.439 -0.1032  0.8264 -0.0434
  149SAPE     N16429   5.335   4.282  10.975  0.1369  0.9454  0.0916
  149SAPE   HN116430   5.249   4.224  10.966 -0.0567  1.0156  1.2591
  149SAPE   HN216431   5.413   4.223  11.009 -2.0140 -0.8234  2.3187
  149SAPE   HN316432   5.320   4.351  11.051 -0.8515  1.1119 -0.2316
  149SAPE   C1216433   5.361   4.361  10.848 -0.0129  0.1113 -0.3293
  149SAPE  H12A16434   5.385   4.284  10.772  0.6171  2.2546 -2.3957
  149SAPE  H12B16435   5.451   4.426  10.853  0.1473  0.2578 -3.3373
  149SAPE   C1116436   5.244   4.456  10.815 -0.3076  0.0501  0.2562
  149SAPE  H11A16437   5.160   4.387  10.790 -0.5261  1.0412 -2.0476
  149SAPE  H11B16438   5.271   4.516  10.726  0.7153 -2.0405 -0.9073
  149SAPE     P16439   5.063   4.607  10.939 -0.1664  0.2893 -0.2755
  149SAPE   O1316440   4.959   4.501  10.921 -0.5399 -0.4871 -0.0485
  149SAPE   O1416441   5.057   4.685  11.068  0.2611  0.0924  0.0270
  149SAPE   O1216442   5.203   4.530  10.930 -0.6480 -0.0829  0.0524
  149SAPE   O1116443   5.060   4.702  10.810  0.5618 -0.2400  0.3821
  149SAPE    C116444   5.164   4.790  10.779  0.4062 -0.1552  0.0224
  149SAPE    HA16445   5.181   4.853  10.868 -3.0296 -0.7858  1.2817
  149SAPE    HB16446   5.255   4.745  10.735  0.4764 -1.1053  1.1146
  149SAPE    C216447   5.112   4.893  10.676  0.1051  0.0183  0.1239
  149SAPE    HS16448   5.028   4.935  10.735 -0.0324 -1.8751  1.3657
  149SAPE   O2116449   5.077   4.824  10.554 -0.3507 -0.1861 -0.2241
  149SAPE   C2116450   4.981   4.884  10.490 -1.0191  0.4163  0.1212
  149SAPE   O2216451   4.916   4.978  10.532 -0.8825  0.4078  0.0869
  149SAPE   C2216452   4.970   4.824  10.348  0.2311  0.3711 -0.0568
  149SAPE   H2R16453   5.057   4.814  10.281  0.2809 -0.5841  0.1291
  149SAPE   H2S16454   4.926   4.723  10.362  1.5888 -0.5322 -1.9260
  149SAPE    C316455   5.219   5.009  10.650 -0.5388 -0.2472  0.8142
  149SAPE    HX16456   5.218   5.071  10.742  0.8394  2.5540 -0.9384
  149SAPE    HY16457   5.170   5.071  10.572 -0.2930  0.0616  0.9005
  149SAPE   O3116458   5.352   4.962  10.631  0.7032  0.1605 -0.3342
  149SAPE   C3116459   5.383   4.953  10.500  0.0382  0.1992  0.4376
  149SAPE   O3216460   5.311   4.969  10.403 -0.5345 -0.2280  0.6505
  149SAPE   C3216461   5.529   4.924  10.497 -0.6333 -0.1330 -0.5115
  149SAPE   H2X16462   5.534   4.814  10.509 -0.3963 -0.2287 -1.4069
  149SAPE   H2Y16463   5.584   4.978  10.576 -3.3915  1.4573  0.4430
  149SAPE   C2316464   4.873   4.903  10.259  0.0423  0.1973 -0.4606
  149SAPE   H3R16465   4.905   5.007  10.239 -0.7474  0.1896 -1.8967
  149SAPE   H3S16466   4.770   4.901  10.300 -0.1785 -0.9300 -1.0246
  149SAPE   C2416467   4.858   4.838  10.119  0.8132  0.8502  0.1528
  149SAPE   H4R16468   4.957   4.811  10.077 -0.5431 -1.0725 -2.0326
  149SAPE   H4S16469   4.812   4.916  10.055 -0.0574  0.5658  0.4243
  149SAPE   C2516470   4.759   4.724  10.136  0.3486  0.5921  0.0877
  149SAPE   H5R16471   4.764   4.675  10.235  0.1343 -0.9896 -0.6688
  149SAPE   C2616472   4.669   4.694  10.050  0.2903  0.9219  0.4185
  149SAPE   H6R16473   4.607   4.609  10.080 -1.4698  2.0251  0.0484
  149SAPE   C2716474   4.646   4.757   9.913  0.1673 -0.2612  0.6218
  149SAPE   H7R16475   4.712   4.699   9.845 -0.0763  1.1036 -0.8432
  149SAPE   H7S16476   4.686   4.860   9.906  0.2517 -0.2814  0.8248
  149SAPE   C2816477   4.498   4.753   9.873 -0.4228 -0.0473  0.3431
  149SAPE   H8R16478   4.408   4.776   9.932 -0.9195  0.2663 -0.5296
  149SAPE   C2916479   4.477   4.741   9.737 -0.8386 -0.4865 -0.2015
  149SAPE   H9R16480   4.376   4.742   9.695 -0.1505 -1.3130 -1.9378
  149SAPE  C21016481   4.581   4.720   9.624 -0.7245 -0.3913  0.5494
  149SAPE  H10R16482   4.527   4.663   9.546 -0.5076  3.2997 -2.5975
  149SAPE  H10S16483   4.669   4.663   9.660  0.0949  0.1069 -0.5852
  149SAPE  C21116484   4.645   4.843   9.562  0.3030 -0.2350  0.1955
  149SAPE  H11R16485   4.633   4.936   9.618 -2.8200 -0.9253  0.8541
  149SAPE  C21216486   4.707   4.858   9.446 -0.3390  0.0156 -0.3602
  149SAPE  H12R16487   4.748   4.954   9.411  0.7844  0.4082  1.8478
  149SAPE  C21316488   4.736   4.738   9.357  0.0762  0.1285  0.1511
  149SAPE  H13R16489   4.661   4.734   9.275 -1.0876 -1.0169  1.2260
  149SAPE  H13S16490   4.720   4.649   9.422 -0.8907  0.6542  0.6678
  149SAPE  C21416491   4.877   4.736   9.298 -0.7232 -0.4748 -0.5446
  149SAPE  H14R16492   4.962   4.714   9.364 -0.3866  1.1716 -0.3884
  149SAPE  C21516493   4.908   4.769   9.173 -0.5320  0.4814  1.2800
  149SAPE  H15R16494   5.013   4.757   9.142 -1.4896 -1.0599 -1.7387
  149SAPE  C21616495   4.823   4.814   9.060 -0.0773 -0.2549  0.7351
  149SAPE  H16R16496   4.720   4.805   9.102 -0.0376 -4.7936  0.3821
  149SAPE  H16S16497   4.829   4.746   8.972  1.9648 -1.2578  1.5931
  149SAPE  C21716498   4.872   4.963   9.026 -0.4182  0.1323  0.2911
  149SAPE  H17R16499   4.979   4.953   8.997 -0.2414  0.0154  0.9642
  149SAPE  H17S16500   4.867   5.026   9.118 -2.0139 -2.0124  1.7651
  149SAPE  C21816501   4.789   5.031   8.913  0.1347  0.2545  0.2424
  149SAPE  H18R16502   4.807   4.967   8.823  0.2485  0.8689 -0.1753
  149SAPE  H18S16503   4.828   5.130   8.881  1.4627 -0.8808 -1.9151
  149SAPE  C21916504   4.639   5.046   8.939 -0.3691  0.1044 -0.0351
  149SAPE  H19R16505   4.634   5.111   9.029  1.6721 -0.1538  0.3060
  149SAPE  H19S16506   4.603   4.948   8.977  2.0482 -0.4251  1.0785
  149SAPE  C22016507   4.562   5.095   8.818  0.1844 -0.3660  0.0614
  149SAPE  H20R16508   4.568   5.018   8.739 -1.2971  0.4308 -0.8813
  149SAPE  H20S16509   4.615   5.188   8.787  0.4529  0.0218  1.5573
  149SAPE  H20T16510   4.452   5.106   8.832  0.0962  1.0864 -1.4956
  149SAPE   C3316511   5.604   4.952  10.362  0.3180  0.6614  0.1322
  149SAPE   H3X16512   5.584   5.052  10.320  0.7408  0.2544 -1.0926
  149SAPE   H3Y16513   5.560   4.884  10.286 -0.7182  0.9581  0.4489
  149SAPE   C3416514   5.757   4.939  10.384 -0.3851  0.4776  0.6551
  149SAPE   H4X16515   5.783   4.867  10.464 -0.6312  2.2359  2.4035
  149SAPE   H4Y16516   5.791   5.043  10.406  2.3829 -1.0536  4.9384
  149SAPE   C3516517   5.838   4.908  10.253 -0.1015  0.7389 -0.4327
  149SAPE   H5X16518   5.823   4.980  10.171  0.0284  1.4726  0.1823
  149SAPE   H5Y16519   5.803   4.807  10.220  1.5110 -0.3308  0.9252
  149SAPE   C3616520   5.995   4.896  10.276  0.4543  0.4270  0.6908
  149SAPE   H6X16521   6.013   4.848  10.375 -0.0973 -1.4206 -0.0497
  149SAPE   H6Y16522   6.041   4.997  10.284  0.6851  0.4333 -0.5535
  149SAPE   C3716523   6.080   4.826  10.164  0.1244 -0.2129  0.4672
  149SAPE   H7X16524   6.078   4.715  10.157  0.3609 -0.1107 -1.8805
  149SAPE   H7Y16525   6.185   4.855  10.184  0.1698 -0.8083  1.1597
  149SAPE   C3816526   6.042   4.878  10.028  0.3286 -0.2714 -0.4399
  149SAPE   H8X16527   6.045   4.989  10.030  2.3549 -0.2816 -0.6832
  149SAPE   H8Y16528   5.938   4.849  10.002 -0.2261  1.0932  0.1553
  149SAPE   C3916529   6.136   4.819   9.922 -0.2829 -0.0339  0.6565
  149SAPE   H9X16530   6.142   4.708   9.913 -0.2819 -0.1549  1.9286
  149SAPE   H9Y16531   6.243   4.847   9.932 -0.2775  0.8328 -1.4333
  149SAPE  C31016532   6.092   4.862   9.779  0.2026 -0.7171 -0.4058
  149SAPE  H10X16533   6.093   4.973   9.771  1.1746 -0.7002 -0.1735
  149SAPE  H10Y16534   5.984   4.838   9.770  0.2571 -0.6506 -1.2929
  149SAPE  C31116535   6.168   4.796   9.663 -0.0981 -0.3371  0.0068
  149SAPE  H11X16536   6.147   4.687   9.666  1.3139 -0.6240  0.1310
  149SAPE  H11Y16537   6.278   4.793   9.674 -0.1749  2.2336  3.1478
  149SAPE  C31216538   6.121   4.852   9.524  0.2019  0.2588  0.0265
  149SAPE  H12X16539   6.172   4.950   9.509  1.9157 -0.6017 -0.0103
  149SAPE  H12Y16540   6.014   4.879   9.541  0.4314  1.0771  0.2198
  149SAPE  C31316541   6.167   4.755   9.409  0.3052 -0.0470  0.4193
  149SAPE  H13X16542   6.130   4.651   9.410  0.8956 -0.2621  0.2469
  149SAPE  H13Y16543   6.276   4.736   9.417 -0.2843 -3.3461  2.6033
  149SAPE  C31416544   6.126   4.821   9.279 -0.3411 -0.1906 -0.0280
  149SAPE  H14X16545   6.161   4.926   9.272  0.5706 -0.5642 -1.3226
  149SAPE  H14Y16546   6.016   4.838   9.276 -0.6417 -1.9481 -0.5008
  149SAPE  C31516547   6.180   4.732   9.160  1.0115 -0.0196  0.0202
  149SAPE  H15X16548   6.125   4.636   9.155 -1.2332  1.2245 -0.5493
  149SAPE  H15Y16549   6.280   4.692   9.188  1.4046  0.5002 -0.6114
  149SAPE  C31616550   6.173   4.800   9.022 -0.2638 -0.9627  0.4202
  149SAPE  H16X16551   6.210   4.736   8.939 -0.1521 -0.7775  0.3256
  149SAPE  H16Y16552   6.237   4.891   9.026  0.8435 -1.7061  0.2994
  149SAPE  C31716553   6.029   4.839   8.974  0.5293 -0.0339 -0.7433
  149SAPE  H17X16554   5.997   4.924   9.038  2.4334 -0.2924  0.6471
  149SAPE  H17Y16555   5.970   4.745   8.981  0.9540 -0.2673 -0.2013
  149SAPE  C31816556   6.026   4.889   8.829  0.6158  0.3534 -0.1519
  149SAPE  H18X16557   6.083   4.984   8.824 -0.5439  0.9909 -2.2821
  149SAPE  H18Y16558   5.924   4.897   8.787  0.4293  1.5556  0.5029
  149SAPE  H18Z16559   6.080   4.817   8.763 -0.3517 -0.7691  0.2354
  150SAPE     N16560   0.663   4.149  11.213 -1.0731  0.1425 -0.6500
  150SAPE   HN116561   0.694   4.244  11.241 -1.1960 -0.6803  2.6348
  150SAPE   HN216562   0.560   4.151  11.198 -1.3485 -2.2077  0.5276
  150SAPE   HN316563   0.690   4.090  11.294 -3.5876  0.2276  0.3226
  150SAPE   C1216564   0.725   4.122  11.079  0.1035 -0.3768 -1.2538
  150SAPE  H12A16565   0.777   4.025  11.096 -3.2700 -1.9625  1.2232
  150SAPE  H12B16566   0.795   4.207  11.062 -2.9257  2.4739 -0.4878
  150SAPE   C1116567   0.621   4.114  10.966 -0.0447  0.2822  0.2829
  150SAPE  H11A16568   0.592   4.008  10.952  2.0498 -0.4907  1.3416
  150SAPE  H11B16569   0.668   4.145  10.870 -1.2265 -0.0455 -0.4277
  150SAPE     P16570   0.361   4.164  10.955 -0.1890  0.6119 -0.0448
  150SAPE   O1316571   0.314   4.055  11.031 -0.0088 -0.4680 -0.5231
  150SAPE   O1416572   0.277   4.283  10.967 -0.5830 -0.1890  0.2127
  150SAPE   O1216573   0.508   4.198  10.992 -0.1731  0.2338  0.5955
  150SAPE   O1116574   0.373   4.135  10.800 -0.1135  0.6106 -0.3477
  150SAPE    C116575   0.451   4.220  10.712 -0.2590 -0.0172  0.1989
  150SAPE    HA16576   0.517   4.286  10.771  3.6510  0.6500 -4.2724
  150SAPE    HB16577   0.513   4.158  10.644 -1.5178 -2.8104  1.4480
  150SAPE    C216578   0.369   4.313  10.617  0.6818  0.1884  0.6819
  150SAPE    HS16579   0.296   4.369  10.678 -0.8425 -1.6633  0.6642
  150SAPE   O2116580   0.302   4.232  10.521  0.4252 -0.1806  0.4070
  150SAPE   C2116581   0.185   4.180  10.556 -0.2724  0.8908 -0.1562
  150SAPE   O2216582   0.119   4.219  10.652 -0.0175 -0.6102 -0.6514
  150SAPE   C2216583   0.145   4.069  10.461  1.0066  0.5437  0.8757
  150SAPE   H2R16584   0.150   4.104  10.356  1.3916 -0.0573  0.6912
  150SAPE   H2S16585   0.210   3.980  10.476 -0.4010 -0.2790  2.4645
  150SAPE    C316586   0.459   4.410  10.544  0.0881 -0.4833  1.3213
  150SAPE    HX16587   0.516   4.343  10.476  0.9404  1.5362 -0.0430
  150SAPE    HY16588   0.529   4.450  10.620  2.6303  0.7027 -1.4420
  150SAPE   O3116589   0.382   4.498  10.452 -0.1513  0.2444 -0.3216
  150SAPE   C3116590   0.341   4.611  10.508  0.5518  0.0285 -0.5832
  150SAPE   O3216591   0.346   4.638  10.628  0.0764 -0.4414  0.5688
  150SAPE   C3216592   0.300   4.716  10.404 -0.6565  0.9532 -0.8305
  150SAPE   H2X16593   0.363   4.807  10.411  0.2747  0.2330  0.6989
  150SAPE   H2Y16594   0.194   4.746  10.417 -1.0033 -0.2721 -0.7350
  150SAPE   C2316595  -0.002   4.027  10.478  0.6143  0.7666  0.4028
  150SAPE   H3R16596  -0.068   4.113  10.455  3.3535  3.0124  0.4154
  150SAPE   H3S16597  -0.030   4.014  10.584 -0.2693  0.8123  0.1797
  150SAPE   C2416598  -0.037   3.891  10.408 -0.4321 -0.7538  0.3005
  150SAPE   H4R16599  -0.138   3.848  10.427  1.1530 -4.6012  1.0855
  150SAPE   H4S16600   0.024   3.811  10.455  0.1801  0.8020  2.2825
  150SAPE   C2516601  -0.031   3.925  10.261  0.3237 -0.5034 -0.1968
  150SAPE   H5R16602  -0.061   4.027  10.230 -1.2266 -1.0217 -0.5013
  150SAPE   C2616603   0.025   3.842  10.173 -1.3858 -0.2692 -0.4270
  150SAPE   H6R16604   0.030   3.868  10.067  1.4745 -0.3885 -0.3820
  150SAPE   C2716605   0.090   3.704  10.205 -0.2857  0.0196  0.3083
  150SAPE   H7R16606   0.068   3.637  10.119 -0.1313  0.1968  0.1320
  150SAPE   H7S16607   0.036   3.664  10.293  1.1650  2.6230  2.5115
  150SAPE   C2816608   0.236   3.702  10.237  0.8071  0.4670 -0.1143
  150SAPE   H8R16609   0.248   3.707  10.346 -1.5939 -0.5699  0.2524
  150SAPE   C2916610   0.341   3.709  10.151 -0.2662  1.4170 -0.1812
  150SAPE   H9R16611   0.444   3.717  10.189 -0.6610  0.3221  1.2086
  150SAPE  C21016612   0.337   3.692  10.003 -0.3128 -0.6675  0.4113
  150SAPE  H10R16613   0.249   3.630   9.976 -0.1356 -0.0980 -1.7216
  150SAPE  H10S16614   0.418   3.632   9.955 -1.3001 -2.0470  0.3969
  150SAPE  C21116615   0.334   3.822   9.923 -0.0244  0.0441 -0.0453
  150SAPE  H11R16616   0.340   3.906   9.995  1.9776 -0.7155  0.7710
  150SAPE  C21216617   0.332   3.840   9.790 -0.1083  0.1019 -0.7939
  150SAPE  H12R16618   0.333   3.939   9.742  1.2619  0.0137 -0.9816
  150SAPE  C21316619   0.335   3.722   9.692  0.1395 -0.1115 -0.2184
  150SAPE  H13R16620   0.349   3.624   9.741 -0.8665 -0.5984 -0.8761
  150SAPE  H13S16621   0.422   3.726   9.622 -0.3444 -3.6734 -1.1968
  150SAPE  C21416622   0.214   3.716   9.605 -0.1080 -0.2920 -0.0924
  150SAPE  H14R16623   0.121   3.748   9.655  0.8760  0.0743  1.5966
  150SAPE  C21516624   0.213   3.675   9.477 -0.0623  0.4945 -0.3367
  150SAPE  H15R16625   0.119   3.685   9.421  0.5859  1.4091 -1.2957
  150SAPE  C21616626   0.331   3.615   9.399 -0.5003  0.2386  0.1777
  150SAPE  H16R16627   0.310   3.512   9.365  0.2310 -0.0721  0.6354
  150SAPE  H16S16628   0.427   3.622   9.456 -0.8066 -0.9789  0.8582
  150SAPE  C21716629   0.355   3.709   9.284 -0.0330  0.6367  0.7529
  150SAPE  H17R16630   0.456   3.693   9.241 -1.3751 -0.8763 -2.1038
  150SAPE  H17S16631   0.362   3.817   9.312  1.1086  0.6623  0.4267
  150SAPE  C21816632   0.257   3.698   9.163 -0.2975  0.3204 -0.6267
  150SAPE  H18R16633   0.159   3.736   9.199  0.2913 -0.6612  2.2949
  150SAPE  H18S16634   0.248   3.589   9.140  2.3300 -0.2917  0.8460
  150SAPE  C21916635   0.312   3.777   9.047  0.1681  0.2487  0.4683
  150SAPE  H19R16636   0.419   3.770   9.018 -0.3428  3.6594 -3.0575
  150SAPE  H19S16637   0.294   3.884   9.072  0.3153 -0.0607  1.9611
  150SAPE  C22016638   0.233   3.771   8.916 -0.6570 -0.1295 -0.3126
  150SAPE  H20R16639   0.123   3.762   8.929 -0.5945 -0.2571  0.1434
  150SAPE  H20S16640   0.268   3.682   8.859 -0.2130 -0.2046  0.0844
  150SAPE  H20T16641   0.245   3.867   8.861 -0.1551 -0.7528 -1.3319
  150SAPE   C3316642   0.300   4.679  10.254 -0.5367  0.3382  1.0165
  150SAPE   H3X16643   0.207   4.727  10.217 -0.5602 -1.4933 -1.5847
  150SAPE   H3Y16644   0.298   4.568  10.245  0.5955  0.4618 -1.3350
  150SAPE   C3416645   0.412   4.736  10.171 -0.2450 -0.3854  0.0233
  150SAPE   H4X16646   0.401   4.688  10.071  1.4280 -2.4365  0.7603
  150SAPE   H4Y16647   0.508   4.707  10.217 -0.6823 -1.6125  0.2228
  150SAPE   C3516648   0.403   4.890  10.154 -0.6900 -0.4301  0.0615
  150SAPE   H5X16649   0.444   4.937  10.246 -0.6325 -1.7214  0.7236
  150SAPE   H5Y16650   0.300   4.920  10.126 -0.2747  1.7240  0.6605
  150SAPE   C3616651   0.493   4.941  10.039  0.0509  0.4383 -0.0493
  150SAPE   H6X16652   0.595   4.899  10.053 -0.5448 -0.7431  0.9541
  150SAPE   H6Y16653   0.512   5.050  10.045  1.5343  0.1836  0.1461
  150SAPE   C3716654   0.452   4.908   9.895 -0.1858 -0.0142  0.2267
  150SAPE   H7X16655   0.343   4.928   9.887 -0.8987 -3.7441 -1.3581
  150SAPE   H7Y16656   0.446   4.799   9.875 -0.1176 -0.0136  0.2023
  150SAPE   C3816657   0.544   4.966   9.792  0.1004 -0.1124  0.2581
  150SAPE   H8X16658   0.646   4.933   9.821  0.7800  0.7200 -1.0908
  150SAPE   H8Y16659   0.540   5.077   9.791  2.8107  0.1466  2.9497
  150SAPE   C3916660   0.524   4.911   9.650  0.5202  0.3323  0.5482
  150SAPE   H9X16661   0.429   4.958   9.617 -0.7528 -1.0692  2.0251
  150SAPE   H9Y16662   0.513   4.800   9.647 -0.6819  0.4338  0.6998
  150SAPE  C31016663   0.630   4.961   9.552  0.4917 -0.0651  0.6419
  150SAPE  H10X16664   0.724   4.909   9.579 -0.3825 -1.9444  0.2697
  150SAPE  H10Y16665   0.647   5.071   9.554  0.2187  0.0149 -0.6902
  150SAPE  C31116666   0.592   4.917   9.409 -0.1094 -0.2595  0.2207
  150SAPE  H11X16667   0.516   4.982   9.360  1.0538  0.0826 -1.2081
  150SAPE  H11Y16668   0.563   4.810   9.405 -0.5016 -0.1124 -1.6733
  150SAPE  C31216669   0.716   4.937   9.326  0.7811  0.2360  0.7853
  150SAPE  H12X16670   0.777   4.846   9.340 -0.8572 -1.2642 -1.1385
  150SAPE  H12Y16671   0.766   5.026   9.371  1.2253  0.5487 -0.2828
  150SAPE  C31316672   0.694   4.980   9.178 -0.2140  0.1344 -0.2059
  150SAPE  H13X16673   0.633   5.072   9.188  1.2527  0.9545  1.5601
  150SAPE  H13Y16674   0.641   4.914   9.105 -0.8356  2.6603 -2.1966
  150SAPE  C31416675   0.824   5.046   9.105  1.0675 -0.5516 -1.0800
  150SAPE  H14X16676   0.840   5.129   9.177 -3.2362 -0.1808 -0.3343
  150SAPE  H14Y16677   0.801   5.088   9.005 -2.9730 -0.0180 -0.0700
  150SAPE  C31516678   0.939   4.947   9.084  0.7766 -0.8862 -0.4580
  150SAPE  H15X16679   0.970   4.928   9.189 -1.7447 -1.1467  0.3142
  150SAPE  H15Y16680   1.025   5.003   9.042  1.7388 -1.0140  1.2148
  150SAPE  C31616681   0.917   4.817   9.013  0.0967  0.3567  0.5676
  150SAPE  H16X16682   0.841   4.759   9.071  1.6957 -0.4343  1.9530
  150SAPE  H16Y16683   1.011   4.761   9.033 -0.6584 -1.3909 -0.4908
  150SAPE  C31716684   0.881   4.834   8.864  1.2644 -0.4145  0.1238
  150SAPE  H17X16685   0.959   4.889   8.806  1.4850 -1.9141 -1.1004
  150SAPE  H17Y16686   0.783   4.885   8.855  0.0815 -2.8269 -2.5746
  150SAPE  C31816687   0.875   4.703   8.781 -0.5752  0.4862 -0.3278
  150SAPE  H18X16688   0.785   4.647   8.813 -1.2113  0.6691 -1.7011
  150SAPE  H18Y16689   0.958   4.638   8.814  0.7788  2.8450  1.2372
  150SAPE  H18Z16690   0.872   4.708   8.670  0.1650 -0.3525 -0.3965
  151SAPE     N16691   4.577   1.157  10.824  0.1430 -0.3876 -0.7100
  151SAPE   HN116692   4.551   1.170  10.924  0.6541  0.1868 -0.6424
  151SAPE   HN216693   4.653   1.087  10.827  1.2642  0.8137  0.4699
  151SAPE   HN316694   4.608   1.245  10.778 -2.6653  0.3769 -1.2938
  151SAPE   C1216695   4.458   1.108  10.752  0.0981  0.0176  0.2864
  151SAPE  H12A16696   4.400   1.199  10.727  1.1526  0.0522 -2.3182
  151SAPE  H12B16697   4.389   1.044  10.811  0.8045 -0.0924  1.0062
  151SAPE   C1116698   4.494   1.029  10.626 -0.2817 -1.0644 -0.2650
  151SAPE  H11A16699   4.403   0.995  10.573 -0.8603  0.2651 -0.1636
  151SAPE  H11B16700   4.552   0.939  10.657  0.9871 -0.0524  0.4244
  151SAPE     P16701   4.704   1.100  10.483 -0.2787 -0.0443 -0.0823
  151SAPE   O1316702   4.776   1.222  10.519 -0.1376 -0.2463 -0.5594
  151SAPE   O1416703   4.766   0.973  10.526  0.0324  0.2575  0.1771
  151SAPE   O1216704   4.560   1.110  10.535 -0.2673 -0.4392 -0.4013
  151SAPE   O1116705   4.683   1.096  10.328 -0.3757  0.1659  0.1076
  151SAPE    C116706   4.564   1.132  10.261  0.2090 -0.4564 -0.3774
  151SAPE    HA16707   4.552   1.073  10.168  2.4966  1.0056 -1.6928
  151SAPE    HB16708   4.475   1.116  10.325  1.4988  0.0767  1.6347
  151SAPE    C216709   4.567   1.281  10.198  0.1613 -0.0280  0.6106
  151SAPE    HS16710   4.465   1.297  10.155 -0.4885  0.6515  2.3111
  151SAPE   O2116711   4.677   1.300  10.106  0.6318 -0.3159 -0.1552
  151SAPE   C2116712   4.651   1.260   9.979  0.4178 -0.6717  0.7229
  151SAPE   O2216713   4.544   1.218   9.942  0.2596  0.4104  0.0965
  151SAPE   C2216714   4.780   1.265   9.902  1.0455  0.4370  0.2815
  151SAPE   H2R16715   4.810   1.372   9.906 -1.8043  1.3021  0.4781
  151SAPE   H2S16716   4.855   1.197   9.949 -1.2286 -1.7418  1.0036
  151SAPE    C316717   4.566   1.390  10.311 -0.7359  0.1111  0.2291
  151SAPE    HX16718   4.668   1.415  10.347 -0.3277 -0.9270 -0.1681
  151SAPE    HY16719   4.524   1.341  10.402  1.0771  0.1581  1.1255
  151SAPE   O3116720   4.487   1.501  10.270  0.3448 -0.0291  0.2218
  151SAPE   C3116721   4.447   1.594  10.360 -0.2938  0.1792  0.0428
  151SAPE   O3216722   4.495   1.596  10.475  0.4829  0.1650  0.0625
  151SAPE   C3216723   4.316   1.663  10.318 -0.4122 -0.3798 -0.3715
  151SAPE   H2X16724   4.318   1.700  10.213 -2.5125  1.5669  0.2089
  151SAPE   H2Y16725   4.297   1.755  10.377 -0.2732  0.0812 -1.0223
  151SAPE   C2316726   4.744   1.215   9.760  0.1402 -0.1731  0.1477
  151SAPE   H3R16727   4.663   1.272   9.709  0.5783  1.9796  1.7337
  151SAPE   H3S16728   4.730   1.106   9.774  0.0714 -0.1031  0.6168
  151SAPE   C2416729   4.859   1.237   9.659 -0.6237 -0.3323  0.6083
  151SAPE   H4R16730   4.852   1.162   9.577  0.7004  0.3713 -0.1842
  151SAPE   H4S16731   4.945   1.192   9.712  0.1082 -1.3743 -1.3494
  151SAPE   C2516732   4.899   1.374   9.615  0.2501 -0.0445  0.5509
  151SAPE   H5R16733   4.895   1.451   9.694  0.7640  0.2904  0.2561
  151SAPE   C2616734   4.957   1.396   9.489 -0.0259  0.3941 -0.0725
  151SAPE   H6R16735   4.989   1.499   9.468  0.8323  0.4704  1.4348
  151SAPE   C2716736   4.977   1.288   9.384  0.0349 -0.0204 -0.0482
  151SAPE   H7R16737   4.889   1.221   9.373 -0.6023  0.7066  0.5321
  151SAPE   H7S16738   5.064   1.230   9.422  1.2261  1.6669 -0.1225
  151SAPE   C2816739   4.999   1.326   9.241 -0.2800 -0.3010 -0.3398
  151SAPE   H8R16740   4.915   1.393   9.216  1.0553  2.0087  1.0438
  151SAPE   C2916741   5.106   1.305   9.166 -0.3384 -1.4714  0.4951
  151SAPE   H9R16742   5.097   1.342   9.062 -3.0909  0.8004  1.4085
  151SAPE  C21016743   5.231   1.230   9.200 -0.2848 -0.6016  0.6353
  151SAPE  H10R16744   5.265   1.163   9.118  3.5484  1.6347  0.1285
  151SAPE  H10S16745   5.215   1.151   9.277  1.2138 -1.2211  0.3556
  151SAPE  C21116746   5.346   1.321   9.236 -0.1401  0.4656  0.5881
  151SAPE  H11R16747   5.370   1.327   9.344  2.1998  1.3525  0.0762
  151SAPE  C21216748   5.435   1.374   9.144  0.0539 -0.2399 -0.6649
  151SAPE  H12R16749   5.515   1.439   9.183  0.0735 -1.5729  1.7177
  151SAPE  C21316750   5.442   1.353   8.992 -0.1275  0.5798  0.3098
  151SAPE  H13R16751   5.415   1.250   8.962 -0.6347  1.0647 -0.9347
  151SAPE  H13S16752   5.551   1.352   8.971 -0.1123 -2.1199  0.1491
  151SAPE  C21416753   5.363   1.447   8.907  0.1060  0.2946  0.7359
  151SAPE  H14R16754   5.274   1.496   8.950 -0.4221  1.9169 -1.9409
  151SAPE  C21516755   5.404   1.487   8.786  0.5756 -0.2529  0.3760
  151SAPE  H15R16756   5.341   1.549   8.721 -0.3239  0.6034  1.9853
  151SAPE  C21616757   5.535   1.457   8.718 -0.4760  0.0617 -0.1413
  151SAPE  H16R16758   5.616   1.416   8.781 -0.2162 -2.3422 -1.9012
  151SAPE  H16S16759   5.582   1.543   8.665 -2.1669  1.5241  0.6320
  151SAPE  C21716760   5.529   1.346   8.611 -0.6092 -0.2646  0.3263
  151SAPE  H17R16761   5.479   1.259   8.659  4.8018 -3.1740  1.3907
  151SAPE  H17S16762   5.631   1.316   8.579 -0.1265  1.1937  0.4383
  151SAPE  C21816763   5.449   1.391   8.487 -0.0660 -0.5434  0.3486
  151SAPE  H18R16764   5.480   1.494   8.456 -1.1594 -0.3287 -0.0748
  151SAPE  H18S16765   5.343   1.400   8.519  0.0305  1.3983  0.2513
  151SAPE  C21916766   5.450   1.280   8.378 -0.9339  0.7403 -0.8470
  151SAPE  H19R16767   5.444   1.188   8.439 -0.2805  0.9740 -0.4107
  151SAPE  H19S16768   5.555   1.271   8.341 -0.2436 -0.2808  1.2063
  151SAPE  C22016769   5.335   1.270   8.284 -0.5644 -0.0315 -0.4594
  151SAPE  H20R16770   5.247   1.298   8.345  1.6402  0.4790  2.7531
  151SAPE  H20S16771   5.331   1.166   8.245  0.3441  0.6489 -2.4682
  151SAPE  H20T16772   5.343   1.341   8.199 -2.5426  1.7088  0.7204
  151SAPE   C3316773   4.193   1.575  10.346  0.9316  0.4880  0.1913
  151SAPE   H3X16774   4.098   1.630  10.361 -0.9689 -2.6080  0.3556
  151SAPE   H3Y16775   4.213   1.527  10.444  0.1783 -1.0731 -0.3924
  151SAPE   C3416776   4.168   1.464  10.234 -0.7033 -0.5871  0.3087
  151SAPE   H4X16777   4.107   1.386  10.284 -0.3131 -1.9530 -1.2637
  151SAPE   H4Y16778   4.269   1.419  10.224  0.1496  1.0279  1.2477
  151SAPE   C3516779   4.117   1.515  10.094  0.0128  0.2239  0.1312
  151SAPE   H5X16780   4.194   1.587  10.059  1.9449 -2.0982 -0.6149
  151SAPE   H5Y16781   4.024   1.573  10.113 -0.1275  0.6328 -1.6184
  151SAPE   C3616782   4.065   1.410   9.998  1.0932 -0.3530 -0.1013
  151SAPE   H6X16783   4.010   1.330  10.052  2.7848 -1.5162 -0.0356
  151SAPE   H6Y16784   4.143   1.342   9.958 -0.0312 -1.6099 -0.2646
  151SAPE   C3716785   4.001   1.477   9.883 -0.2871 -0.1715 -1.0266
  151SAPE   H7X16786   3.912   1.533   9.919 -0.3714 -1.0805  0.2531
  151SAPE   H7Y16787   3.973   1.397   9.810  3.5632 -1.5355 -1.2476
  151SAPE   C3816788   4.103   1.561   9.804  0.0331 -0.8636  0.2442
  151SAPE   H8X16789   4.205   1.520   9.820  0.0009 -0.8904  0.3875
  151SAPE   H8Y16790   4.092   1.668   9.831 -0.1176 -0.8902  0.2867
  151SAPE   C3916791   4.091   1.552   9.649 -0.2858  0.1325 -0.4772
  151SAPE   H9X16792   4.097   1.450   9.608  0.6551  0.4571 -1.1811
  151SAPE   H9Y16793   4.175   1.610   9.603  0.7352 -2.4827 -2.1009
  151SAPE  C31016794   3.965   1.610   9.595  1.1954  0.2810 -0.0473
  151SAPE  H10X16795   3.967   1.720   9.611 -3.0446  0.6282 -0.8290
  151SAPE  H10Y16796   3.875   1.562   9.638  1.3639 -0.0579 -0.0665
  151SAPE  C31116797   3.948   1.581   9.444 -0.4802  0.6912  0.5370
  151SAPE  H11X16798   3.847   1.623   9.423  1.3100  4.7215 -1.2104
  151SAPE  H11Y16799   3.955   1.472   9.425 -1.2888  1.3695 -5.4782
  151SAPE  C31216800   4.046   1.640   9.351 -0.9011 -0.1389  0.3525
  151SAPE  H12X16801   4.139   1.583   9.370 -1.1263  0.0961  2.4749
  151SAPE  H12Y16802   4.061   1.747   9.377  2.6148  0.0111 -1.6985
  151SAPE  C31316803   4.008   1.645   9.202  0.8003 -0.0621 -0.5375
  151SAPE  H13X16804   3.903   1.678   9.186  0.1444 -0.4130  2.4436
  151SAPE  H13Y16805   4.011   1.546   9.151  1.4199 -0.8305  0.9112
  151SAPE  C31416806   4.114   1.731   9.125 -0.0203  0.5739  0.1562
  151SAPE  H14X16807   4.211   1.676   9.125 -0.9382 -1.1333 -0.8077
  151SAPE  H14Y16808   4.128   1.831   9.172  0.0065  1.0491 -0.8357
  151SAPE  C31516809   4.082   1.758   8.971  0.5064 -0.2616 -0.9781
  151SAPE  H15X16810   4.085   1.868   8.957 -0.8049  0.0622  0.8343
  151SAPE  H15Y16811   3.979   1.727   8.944  0.8625 -1.2389 -1.2469
  151SAPE  C31616812   4.176   1.678   8.876  0.1778 -0.9495  0.7754
  151SAPE  H16X16813   4.138   1.574   8.880  0.1137 -1.0145 -0.8007
  151SAPE  H16Y16814   4.279   1.673   8.916  1.0040 -0.8781 -1.2327
  151SAPE  C31716815   4.180   1.735   8.737  0.1783  0.4290 -0.8780
  151SAPE  H17X16816   4.257   1.678   8.681  1.1745  0.7771  0.0821
  151SAPE  H17Y16817   4.218   1.839   8.745  0.0469  0.4461 -0.4611
  151SAPE  C31816818   4.042   1.716   8.668 -1.1167  0.2207  0.0043
  151SAPE  H18X16819   4.006   1.611   8.670 -1.6523  0.3821 -0.7040
  151SAPE  H18Y16820   4.051   1.753   8.563  2.1798  0.2933  0.2019
  151SAPE  H18Z16821   3.962   1.778   8.713 -0.2351  1.9823 -0.7467
  152SAPE     N16822   5.252   0.601  10.536 -0.5346 -0.2047 -0.6963
  152SAPE   HN116823   5.320   0.523  10.532 -0.3422 -0.0562 -0.3625
  152SAPE   HN216824   5.170   0.558  10.585 -0.0088 -0.1467  0.2507
  152SAPE   HN316825   5.215   0.612  10.439  1.4546 -1.7563 -1.6929
  152SAPE   C1216826   5.287   0.727  10.615  0.5725 -0.2656  0.4953
  152SAPE  H12A16827   5.321   0.701  10.717  0.8468  0.2780  0.5514
  152SAPE  H12B16828   5.192   0.785  10.616  0.7730  0.1475 -1.2658
  152SAPE   C1116829   5.401   0.807  10.546 -0.4743  0.5891 -0.1695
  152SAPE  H11A16830   5.412   0.909  10.589  0.8586  1.2273 -1.8783
  152SAPE  H11B16831   5.396   0.821  10.435 -1.1178 -0.7309 -0.3271
  152SAPE     P16832   5.666   0.751  10.501 -0.0997 -0.3215  0.4201
  152SAPE   O1316833   5.673   0.892  10.451 -0.3635  0.0722  0.1339
  152SAPE   O1416834   5.780   0.706  10.584  0.8893  0.1736 -0.3492
  152SAPE   O1216835   5.523   0.729  10.567  0.0883  0.2304  0.1736
  152SAPE   O1116836   5.654   0.661  10.374 -0.1947 -0.2466 -0.2333
  152SAPE    C116837   5.543   0.641  10.293 -0.4506 -0.3936 -0.9094
  152SAPE    HA16838   5.460   0.585  10.341 -0.3873  1.9412  2.2045
  152SAPE    HB16839   5.492   0.734  10.261 -2.7352 -1.4790 -0.6509
  152SAPE    C216840   5.572   0.546  10.174  0.3185  0.1430 -1.0174
  152SAPE    HS16841   5.650   0.472  10.202 -0.0763  0.9008  2.5123
  152SAPE   O2116842   5.608   0.628  10.066  0.6816 -0.5209  0.0456
  152SAPE   C2116843   5.710   0.582   9.999  0.3032  0.7659  0.2662
  152SAPE   O2216844   5.788   0.497  10.043 -0.9770 -0.8220  0.0562
  152SAPE   C2216845   5.700   0.637   9.865  0.4052  0.5513 -0.2634
  152SAPE   H2R16846   5.602   0.686   9.848 -0.4947 -0.7136  0.9825
  152SAPE   H2S16847   5.776   0.718   9.859  0.7277  0.4512  1.6248
  152SAPE    C316848   5.448   0.455  10.138  0.5546 -0.1411  0.3954
  152SAPE    HX16849   5.359   0.520  10.149 -0.6059 -2.0174  3.4748
  152SAPE    HY16850   5.432   0.383  10.221  2.2269  0.0043  0.8910
  152SAPE   O3116851   5.451   0.392  10.011  0.1404 -0.8325 -0.6682
  152SAPE   C3116852   5.536   0.294  10.015  0.5630 -0.0638 -0.8119
  152SAPE   O3216853   5.604   0.263  10.109  0.3118 -0.1688 -0.1497
  152SAPE   C3216854   5.522   0.207   9.882  0.4045  0.4963 -0.3274
  152SAPE   H2X16855   5.492   0.277   9.801  1.5168 -0.2399 -1.4037
  152SAPE   H2Y16856   5.438   0.138   9.906 -0.6002  1.5922 -0.5904
  152SAPE   C2316857   5.730   0.533   9.750 -0.8216 -0.1450 -0.0836
  152SAPE   H3R16858   5.656   0.450   9.762 -3.1120  1.4824 -1.9648
  152SAPE   H3S16859   5.835   0.506   9.773 -0.9622  0.6132  1.6062
  152SAPE   C2416860   5.725   0.589   9.608 -0.3588  0.5095 -0.6143
  152SAPE   H4R16861   5.782   0.684   9.601 -0.6599  0.6904 -0.6715
  152SAPE   H4S16862   5.616   0.608   9.597 -0.2958  0.3447 -1.5711
  152SAPE   C2516863   5.759   0.481   9.511 -0.3402 -0.2395  0.4162
  152SAPE   H5R16864   5.847   0.423   9.545 -0.1405 -0.4155 -0.3689
  152SAPE   C2616865   5.699   0.441   9.396 -0.0555 -0.0425 -1.1006
  152SAPE   H6R16866   5.732   0.348   9.347  1.4581 -0.7447  1.0713
  152SAPE   C2716867   5.575   0.508   9.332 -0.6213  0.6949  0.8949
  152SAPE   H7R16868   5.600   0.554   9.234 -2.4032  0.1427  0.1298
  152SAPE   H7S16869   5.552   0.600   9.390  1.9809  0.6091  2.1779
  152SAPE   C2816870   5.444   0.431   9.324  0.6151  0.0190 -0.0774
  152SAPE   H8R16871   5.381   0.430   9.414 -0.8162 -0.1335 -1.0626
  152SAPE   C2916872   5.401   0.365   9.212 -0.0518  0.2557  0.3014
  152SAPE   H9R16873   5.311   0.301   9.209 -0.3024  0.5192  1.5581
  152SAPE  C21016874   5.474   0.349   9.085  0.4379  0.2179 -0.3472
  152SAPE  H10R16875   5.439   0.262   9.025 -1.1502  2.9097 -3.6473
  152SAPE  H10S16876   5.578   0.316   9.106  0.5000  0.9925  0.6160
  152SAPE  C21116877   5.474   0.474   8.997  0.6635  1.1315  0.6313
  152SAPE  H11R16878   5.465   0.573   9.042  0.1899  2.2420 -1.7420
  152SAPE  C21216879   5.485   0.456   8.863 -0.4168 -0.2921 -0.1311
  152SAPE  H12R16880   5.484   0.544   8.798  1.3885  0.9140  1.3783
  152SAPE  C21316881   5.504   0.326   8.792 -0.7069  0.3732 -0.4845
  152SAPE  H13R16882   5.485   0.340   8.683  1.5774 -1.3984 -1.1976
  152SAPE  H13S16883   5.425   0.255   8.824  0.3951 -0.5390  0.2819
  152SAPE  C21416884   5.633   0.242   8.807  0.3775 -0.3848  0.1339
  152SAPE  H14R16885   5.669   0.235   8.911  0.3891 -1.6209  0.0635
  152SAPE  C21516886   5.710   0.180   8.721  0.5255  0.1185  0.1673
  152SAPE  H15R16887   5.797   0.123   8.755 -0.0728 -1.7199 -1.1968
  152SAPE  C21616888   5.687   0.165   8.573  0.7715 -0.4827  0.4927
  152SAPE  H16R16889   5.592   0.211   8.538  1.3695  0.4820  0.0838
  152SAPE  H16S16890   5.675   0.057   8.552 -0.3967 -0.8599  2.7953
  152SAPE  C21716891   5.806   0.226   8.485  0.3126 -0.2553 -0.6674
  152SAPE  H17R16892   5.820   0.335   8.502 -0.2641 -0.1164 -1.0709
  152SAPE  H17S16893   5.773   0.212   8.380  0.5042  0.8584 -0.8839
  152SAPE  C21816894   5.938   0.159   8.510 -0.6349  0.1962  0.0534
  152SAPE  H18R16895   5.922   0.049   8.509  0.7331 -0.0310 -2.0507
  152SAPE  H18S16896   5.973   0.186   8.612 -0.0127  1.1807 -0.4062
  152SAPE  C21916897   6.052   0.193   8.420 -0.8082  0.8084  0.0855
  152SAPE  H19R16898   6.011   0.171   8.319 -0.4437 -0.9690  0.2839
  152SAPE  H19S16899   6.137   0.127   8.448 -0.9402  1.2731  1.7042
  152SAPE  C22016900   6.103   0.339   8.432  0.0380 -0.6160 -0.2465
  152SAPE  H20R16901   6.196   0.346   8.492 -1.3052  0.7374  1.8027
  152SAPE  H20S16902   6.034   0.411   8.480  0.0861 -1.0916  0.5633
  152SAPE  H20T16903   6.120   0.382   8.331 -1.4861  0.1004 -0.2147
  152SAPE   C3316904   5.649   0.135   9.842 -0.2977  0.0118  0.3421
  152SAPE   H3X16905   5.634   0.028   9.866 -2.1425 -0.2903 -1.8447
  152SAPE   H3Y16906   5.741   0.154   9.900 -0.1548 -1.8099  0.7675
  152SAPE   C3416907   5.675   0.138   9.691  0.1336 -0.3149  0.3190
  152SAPE   H4X16908   5.769   0.088   9.659  1.5766  2.6256 -0.4643
  152SAPE   H4Y16909   5.689   0.246   9.668 -1.4757 -0.1370  0.0598
  152SAPE   C3516910   5.560   0.078   9.602 -0.1065 -0.7200 -0.2614
  152SAPE   H5X16911   5.460   0.125   9.615  0.0757  0.6865 -3.2743
  152SAPE   H5Y16912   5.552  -0.031   9.626 -0.3096 -0.1089  2.9144
  152SAPE   C3616913   5.589   0.076   9.451  0.1802  0.5395  0.3982
  152SAPE   H6X16914   5.679   0.018   9.423  1.7335  2.6153  0.7952
  152SAPE   H6Y16915   5.603   0.179   9.410  0.1552 -0.7175 -3.0885
  152SAPE   C3716916   5.475   0.015   9.372 -0.6095  0.6988  0.5187
  152SAPE   H7X16917   5.401   0.098   9.373 -1.4462 -0.0500  1.5204
  152SAPE   H7Y16918   5.430  -0.077   9.413 -2.1055  0.4733 -1.4748
  152SAPE   C3816919   5.532  -0.031   9.237 -0.2126  0.1674 -1.0309
  152SAPE   H8X16920   5.608  -0.110   9.254 -1.7723 -1.1064  0.4353
  152SAPE   H8Y16921   5.576   0.061   9.192  2.7338 -1.1583 -1.0582
  152SAPE   C3916922   5.427  -0.100   9.152  0.7528 -0.1672 -0.3390
  152SAPE   H9X16923   5.327  -0.076   9.192  1.4464  0.5479  1.0200
  152SAPE   H9Y16924   5.428  -0.211   9.151 -2.6681 -0.3090 -1.3675
  152SAPE  C31016925   5.438  -0.051   9.008  0.2494 -0.2730  0.6539
  152SAPE  H10X16926   5.541  -0.068   8.969  0.5893  2.1281  0.3811
  152SAPE  H10Y16927   5.411   0.056   9.005 -2.8011 -0.9737 -0.9293
  152SAPE  C31116928   5.347  -0.138   8.915  0.5757 -0.0758 -0.2737
  152SAPE  H11X16929   5.240  -0.145   8.946  0.3997 -2.0478 -1.1728
  152SAPE  H11Y16930   5.386  -0.241   8.904 -1.0654 -0.7931  0.2404
  152SAPE  C31216931   5.351  -0.072   8.773 -0.5483  0.0291  0.5443
  152SAPE  H12X16932   5.458  -0.075   8.742 -0.4413  0.0142  0.9132
  152SAPE  H12Y16933   5.306   0.029   8.768  0.1879  0.3096 -1.0961
  152SAPE  C31316934   5.271  -0.155   8.678  0.4211  0.2040 -0.0089
  152SAPE  H13X16935   5.170  -0.183   8.717 -0.5948  1.4246 -1.6139
  152SAPE  H13Y16936   5.317  -0.255   8.690 -0.2090  0.0382  1.2661
  152SAPE  C31416937   5.276  -0.108   8.526 -0.2310 -0.0305  0.3097
  152SAPE  H14X16938   5.375  -0.064   8.504 -0.1248 -0.5071 -0.1843
  152SAPE  H14Y16939   5.217  -0.015   8.510  0.9997  0.7348  0.0388
  152SAPE  C31516940   5.254  -0.224   8.426 -0.2438  0.3849  0.4404
  152SAPE  H15X16941   5.328  -0.304   8.442 -0.6622 -0.2380 -0.6021
  152SAPE  H15Y16942   5.258  -0.174   8.326 -1.9242  0.3728  0.3274
  152SAPE  C31616943   5.109  -0.284   8.425 -0.0447 -0.6555  0.2530
  152SAPE  H16X16944   5.048  -0.198   8.391 -0.1664  0.1050  2.2490
  152SAPE  H16Y16945   5.079  -0.307   8.530 -1.0227 -1.8071 -0.2471
  152SAPE  C31716946   5.092  -0.406   8.324 -0.3287  0.3619  0.5463
  152SAPE  H17X16947   4.985  -0.438   8.318  0.5760 -3.0761  0.4294
  152SAPE  H17Y16948   5.162  -0.490   8.343  1.3302  1.5125 -0.2954
  152SAPE  C31816949   5.125  -0.364   8.186  0.1829 -0.1113 -0.2392
  152SAPE  H18X16950   5.226  -0.316   8.182  0.4573 -0.5920  0.6623
  152SAPE  H18Y16951   5.053  -0.290   8.144  1.3552  0.1716 -1.8528
  152SAPE  H18Z16952   5.121  -0.458   8.127 -1.0784 -0.0115 -0.3258
  153SAPE     N16953   0.210   2.738  10.618 -0.0897  0.2260 -0.4009
  153SAPE   HN116954   0.115   2.741  10.660 -0.5722  0.8150 -1.5036
  153SAPE   HN216955   0.258   2.646  10.615 -1.8086 -0.8351  1.5346
  153SAPE   HN316956   0.269   2.802  10.675 -1.5692 -1.0053  2.7525
  153SAPE   C1216957   0.193   2.802  10.486  0.0340  0.2587 -0.8713
  153SAPE  H12A16958   0.110   2.738  10.447  0.1730  0.8729 -2.2362
  153SAPE  H12B16959   0.282   2.783  10.423  1.3421 -1.7946  1.4109
  153SAPE   C1116960   0.160   2.952  10.507 -0.9599  0.5651  0.7373
  153SAPE  H11A16961   0.121   2.982  10.407  2.8063 -0.3705 -1.2225
  153SAPE  H11B16962   0.258   3.001  10.521 -1.5834  1.8181  0.8267
  153SAPE     P16963   0.011   3.116  10.641 -0.4297  0.0746  0.0599
  153SAPE   O1316964  -0.091   3.120  10.743 -0.0834  0.6081 -0.3977
  153SAPE   O1416965   0.129   3.210  10.657  0.1335  0.1262 -0.2438
  153SAPE   O1216966   0.062   2.969  10.617 -0.1992  0.1768  0.1637
  153SAPE   O1116967  -0.057   3.160  10.509 -0.3528  0.4059  0.0677
  153SAPE    C116968  -0.201   3.154  10.489  0.1300 -0.1177 -0.8859
  153SAPE    HA16969  -0.259   3.195  10.575  2.0361 -4.3887  2.8288
  153SAPE    HB16970  -0.231   3.216  10.401  1.0173  2.2962  0.4114
  153SAPE    C216971  -0.263   3.014  10.442  0.2217  0.5279 -0.4824
  153SAPE    HS16972  -0.250   2.947  10.530 -2.6576  1.3618  0.7246
  153SAPE   O2116973  -0.201   2.983  10.314  0.5651 -0.3738 -0.0154
  153SAPE   C2116974  -0.237   2.863  10.265 -0.6195 -0.6242  0.0050
  153SAPE   O2216975  -0.292   2.777  10.327  0.4683  0.2198 -0.7899
  153SAPE   C2216976  -0.193   2.863  10.114 -0.4206  0.2960 -0.0956
  153SAPE   H2R16977  -0.248   2.949  10.069 -1.0059 -0.2686 -0.4640
  153SAPE   H2S16978  -0.082   2.870  10.103 -0.5088  1.8414 -0.2999
  153SAPE    C316979  -0.421   3.026  10.437 -0.1388  0.1260 -0.3306
  153SAPE    HX16980  -0.447   3.060  10.540  0.5542 -1.6286  0.4705
  153SAPE    HY16981  -0.468   2.926  10.428  1.0988 -0.7001  1.5940
  153SAPE   O3116982  -0.466   3.125  10.347  0.3391  0.4995  0.2388
  153SAPE   C3116983  -0.515   3.075  10.235 -1.2470  0.7024 -0.1645
  153SAPE   O3216984  -0.516   2.958  10.205  0.3515  0.6270 -0.3913
  153SAPE   C3216985  -0.566   3.201  10.154  0.2802  0.2717  0.6406
  153SAPE   H2X16986  -0.481   3.268  10.128  0.1422  1.3024  2.6226
  153SAPE   H2Y16987  -0.631   3.262  10.221  0.7721 -0.2295  1.5971
  153SAPE   C2316988  -0.247   2.741  10.038 -0.1161  0.1998  0.6414
  153SAPE   H3R16989  -0.338   2.698  10.085  0.5576 -3.4787 -1.0698
  153SAPE   H3S16990  -0.172   2.660  10.053  0.0423  0.4014  0.9608
  153SAPE   C2416991  -0.262   2.761   9.887  0.7042 -0.4706  0.8214
  153SAPE   H4R16992  -0.168   2.808   9.850  0.9063 -1.8928 -0.5392
  153SAPE   H4S16993  -0.335   2.844   9.874 -1.0125 -1.9977  0.3805
  153SAPE   C2516994  -0.298   2.647   9.806  0.5677 -0.2576 -0.1508
  153SAPE   H5R16995  -0.244   2.553   9.824 -0.3549 -1.0224 -1.2408
  153SAPE   C2616996  -0.387   2.640   9.705 -0.0414 -0.0458 -0.1594
  153SAPE   H6R16997  -0.380   2.542   9.655  1.5671  0.2678 -0.6373
  153SAPE   C2716998  -0.479   2.752   9.660 -0.2099 -0.5961 -0.4434
  153SAPE   H7R16999  -0.466   2.848   9.714  0.1306 -0.5806 -0.5527
  153SAPE   H7S17000  -0.587   2.737   9.684 -0.3703 -2.5026 -2.0239
  153SAPE   C2817001  -0.454   2.769   9.514  0.2071  0.4959 -0.0733
  153SAPE   H8R17002  -0.365   2.829   9.490  1.2386  0.1494  2.6050
  153SAPE   C2917003  -0.522   2.705   9.412 -0.7132 -0.7373  0.0573
  153SAPE   H9R17004  -0.496   2.720   9.306 -3.4603  1.3615 -0.4169
  153SAPE  C21017005  -0.636   2.610   9.437  0.4875  0.1223  0.2712
  153SAPE  H10R17006  -0.722   2.648   9.379  1.0349  0.0350 -0.6249
  153SAPE  H10S17007  -0.670   2.602   9.543  1.5403  0.6996  0.6700
  153SAPE  C21117008  -0.605   2.470   9.378  0.1446  0.8829 -0.3532
  153SAPE  H11R17009  -0.553   2.399   9.444 -0.1494 -0.2582 -1.2991
  153SAPE  C21217010  -0.645   2.420   9.256 -1.0354 -0.1364 -0.2668
  153SAPE  H12R17011  -0.613   2.323   9.216  0.0351  0.3969 -0.7364
  153SAPE  C21317012  -0.728   2.493   9.160  0.4527  0.3100  0.0536
  153SAPE  H13R17013  -0.820   2.541   9.200 -0.3780 -1.0038 -0.2024
  153SAPE  H13S17014  -0.779   2.417   9.097  2.0054  0.2462 -1.1802
  153SAPE  C21417015  -0.656   2.597   9.075  0.6889 -0.4055 -0.4695
  153SAPE  H14R17016  -0.548   2.609   9.090  0.8708 -0.9619 -1.2908
  153SAPE  C21517017  -0.711   2.682   8.989  0.2749 -0.8918 -0.0698
  153SAPE  H15R17018  -0.656   2.754   8.926 -1.4187  0.4049 -0.1453
  153SAPE  C21617019  -0.859   2.697   8.950  0.9117 -0.2267  0.4002
  153SAPE  H16R17020  -0.899   2.790   8.996  0.7391 -0.4301  0.6646
  153SAPE  H16S17021  -0.923   2.614   8.985  0.6747  0.3482  1.3584
  153SAPE  C21717022  -0.865   2.709   8.801 -0.2362 -0.3673 -0.4564
  153SAPE  H17R17023  -0.791   2.779   8.756 -0.1240 -0.8599 -1.0636
  153SAPE  H17S17024  -0.964   2.753   8.780  0.5773  1.7235 -0.1367
  153SAPE  C21817025  -0.858   2.576   8.734  0.1347 -0.1644 -0.4578
  153SAPE  H18R17026  -0.920   2.502   8.789  0.0114 -0.4648 -0.9907
  153SAPE  H18S17027  -0.755   2.535   8.745  0.9982  2.0338  0.1176
  153SAPE  C21917028  -0.886   2.566   8.588 -0.4787  0.0390  0.3118
  153SAPE  H19R17029  -0.795   2.589   8.528  0.6133 -1.9766  1.1016
  153SAPE  H19S17030  -0.970   2.633   8.559 -1.0907 -0.8496 -0.0133
  153SAPE  C22017031  -0.923   2.429   8.545  0.8429  0.3713  0.6255
  153SAPE  H20R17032  -0.959   2.428   8.440  1.4146  0.2440  0.4321
  153SAPE  H20S17033  -1.009   2.383   8.599  0.0436  2.3735  1.1795
  153SAPE  H20T17034  -0.835   2.363   8.559 -0.5963 -1.3885  1.7745
  153SAPE   C3317035  -0.659   3.162  10.031  0.7046 -0.0884  0.4262
  153SAPE   H3X17036  -0.740   3.238  10.023  0.2275 -0.7350 -1.3401
  153SAPE   H3Y17037  -0.715   3.069  10.053  0.3928 -0.5235 -1.9096
  153SAPE   C3417038  -0.584   3.167   9.898 -0.2881  0.8276  0.1576
  153SAPE   H4X17039  -0.519   3.078   9.881  0.1676  1.0774  0.5659
  153SAPE   H4Y17040  -0.515   3.251   9.920  0.1519  0.4866  0.1081
  153SAPE   C3517041  -0.668   3.208   9.783  0.1742  0.4445  0.1903
  153SAPE   H5X17042  -0.704   3.310   9.807 -0.7566  0.0451  0.5804
  153SAPE   H5Y17043  -0.757   3.142   9.773  2.9068 -3.4786 -0.9080
  153SAPE   C3617044  -0.600   3.189   9.642  0.1247  0.3404 -0.3307
  153SAPE   H6X17045  -0.540   3.095   9.633 -0.6868 -0.3486  1.1357
  153SAPE   H6Y17046  -0.537   3.279   9.631  1.4780 -0.3580  1.2510
  153SAPE   C3717047  -0.699   3.180   9.528  0.4932 -0.5442  0.6984
  153SAPE   H7X17048  -0.771   3.264   9.532 -0.3640 -1.2730  0.8369
  153SAPE   H7Y17049  -0.762   3.089   9.539 -1.9761  0.9795 -0.1316
  153SAPE   C3817050  -0.622   3.180   9.396 -0.1923 -0.0191  0.4417
  153SAPE   H8X17051  -0.561   3.089   9.381  0.4574  0.5954 -0.7869
  153SAPE   H8Y17052  -0.554   3.267   9.390  0.2065 -0.3608 -0.1686
  153SAPE   C3917053  -0.708   3.197   9.274 -0.1347  0.0485  0.5842
  153SAPE   H9X17054  -0.789   3.271   9.291  0.3886  0.5829  0.7725
  153SAPE   H9Y17055  -0.779   3.111   9.276 -0.2401  0.1375  0.6449
  153SAPE  C31017056  -0.636   3.198   9.138  0.0558  0.2476  0.0443
  153SAPE  H10X17057  -0.573   3.107   9.127  1.0447  0.9505 -0.2872
  153SAPE  H10Y17058  -0.557   3.275   9.124  1.0907 -1.1227 -2.1701
  153SAPE  C31117059  -0.726   3.208   9.019  0.5594  0.0194 -0.4764
  153SAPE  H11X17060  -0.768   3.311   9.018  0.4753  0.0405 -3.4494
  153SAPE  H11Y17061  -0.801   3.127   9.020  0.6603 -0.1133 -1.9742
  153SAPE  C31217062  -0.652   3.197   8.887 -0.1244  0.1244 -0.4575
  153SAPE  H12X17063  -0.593   3.290   8.872 -2.3495  1.5255 -0.9022
  153SAPE  H12Y17064  -0.724   3.194   8.803  0.3044 -2.5976 -0.8478
  153SAPE  C31317065  -0.553   3.078   8.870  0.5644 -1.0860  0.7109
  153SAPE  H13X17066  -0.598   2.987   8.915  0.9374 -1.6826 -0.1047
  153SAPE  H13Y17067  -0.463   3.107   8.928  0.0850  0.6228  0.6711
  153SAPE  C31417068  -0.530   3.061   8.710 -0.0781  1.3525  0.0524
  153SAPE  H14X17069  -0.615   3.015   8.656  1.4662 -0.6299 -0.8201
  153SAPE  H14Y17070  -0.447   2.988   8.699 -0.3178  1.0560  0.1990
  153SAPE  C31517071  -0.486   3.194   8.640 -0.1931  0.1234  0.2725
  153SAPE  H15X17072  -0.422   3.267   8.694 -2.2745  2.2783  0.0299
  153SAPE  H15Y17073  -0.573   3.254   8.605  0.8196  1.8207  0.5186
  153SAPE  C31617074  -0.416   3.173   8.501 -0.1710  0.0145  0.6813
  153SAPE  H16X17075  -0.454   3.080   8.452 -1.0816  0.1600  1.1052
  153SAPE  H16Y17076  -0.307   3.160   8.520  0.0894 -1.8732 -1.5836
  153SAPE  C31717077  -0.427   3.284   8.389 -0.5225  0.0439  1.1330
  153SAPE  H17X17078  -0.534   3.288   8.359 -0.3755  3.1561  0.7150
  153SAPE  H17Y17079  -0.363   3.261   8.301 -1.8985 -0.3621  0.2083
  153SAPE  C31817080  -0.377   3.418   8.426  0.1746 -0.3417  0.6052
  153SAPE  H18X17081  -0.268   3.406   8.446 -0.1067 -1.3539  1.6328
  153SAPE  H18Y17082  -0.430   3.450   8.518 -1.8410 -0.3742 -0.4976
  153SAPE  H18Z17083  -0.387   3.492   8.344  2.0678  1.2744  1.7321
  154SAPE     N17084   6.191   2.292  10.723 -0.2813  0.3962 -0.4908
  154SAPE   HN117085   6.120   2.363  10.753  0.2705  0.8154 -0.1549
  154SAPE   HN217086   6.282   2.341  10.729  0.1489 -0.5169  0.7295
  154SAPE   HN317087   6.179   2.261  10.624  1.5439  0.4371 -0.7629
  154SAPE   C1217088   6.202   2.179  10.822  0.0054  0.6975 -0.1150
  154SAPE  H12A17089   6.103   2.135  10.847 -0.0383  1.0787  0.4063
  154SAPE  H12B17090   6.259   2.204  10.914 -1.1813  0.6329  0.6550
  154SAPE   C1117091   6.279   2.062  10.753  0.2060 -0.5676 -0.1241
  154SAPE  H11A17092   6.291   1.980  10.827  0.3880  1.1440  1.8121
  154SAPE  H11B17093   6.385   2.090  10.737  0.0401 -0.0468 -0.3431
  154SAPE     P17094   6.208   1.893  10.560  0.0565 -0.1480 -0.2334
  154SAPE   O1317095   6.292   1.799  10.629  0.2680 -0.0624 -0.3985
  154SAPE   O1417096   6.069   1.850  10.530  0.0414 -0.1035  0.0900
  154SAPE   O1217097   6.193   2.033  10.639 -0.1288  0.6740 -0.2138
  154SAPE   O1117098   6.278   1.930  10.419 -0.3901  0.2914 -0.2546
  154SAPE    C117099   6.400   2.002  10.417 -0.6771  1.0003 -0.0313
  154SAPE    HA17100   6.380   2.108  10.445 -3.0539  0.1220  2.0008
  154SAPE    HB17101   6.480   1.966  10.485 -0.5341  1.1527 -0.1195
  154SAPE    C217102   6.454   1.998  10.277 -0.6766 -0.1772 -0.4222
  154SAPE    HS17103   6.549   2.056  10.280 -0.8900  0.1312  2.2035
  154SAPE   O2117104   6.368   2.064  10.179  0.6146  0.0950  0.1666
  154SAPE   C2117105   6.410   2.087  10.057 -0.1001  0.5512 -0.7131
  154SAPE   O2217106   6.526   2.074  10.019 -0.4949 -0.6708 -0.1143
  154SAPE   C2217107   6.290   2.133   9.974  0.1998 -0.0474 -0.1652
  154SAPE   H2R17108   6.216   2.050   9.984  0.0303  0.1671  0.3869
  154SAPE   H2S17109   6.254   2.230  10.013  1.4977  0.1302  0.6440
  154SAPE    C317110   6.493   1.854  10.237 -0.4610 -0.6385 -0.6826
  154SAPE    HX17111   6.406   1.790  10.212 -0.1993 -0.2579 -2.7628
  154SAPE    HY17112   6.541   1.814  10.328  1.2940  2.3703 -0.1479
  154SAPE   O3117113   6.573   1.837  10.116  0.1210 -0.4059 -0.5796
  154SAPE   C3117114   6.703   1.870  10.134 -0.3207  0.2440  0.4003
  154SAPE   O3217115   6.753   1.910  10.239 -0.0606 -0.2043 -0.7849
  154SAPE   C3217116   6.775   1.843   9.998  0.3455 -0.5488  0.6234
  154SAPE   H2X17117   6.864   1.908   9.992 -0.9337  1.3241  0.9041
  154SAPE   H2Y17118   6.697   1.862   9.921  1.0536 -0.7940 -0.1661
  154SAPE   C2317119   6.337   2.175   9.833 -0.5114  0.5129 -0.6769
  154SAPE   H3R17120   6.374   2.086   9.778  1.6661  1.6204 -1.1429
  154SAPE   H3S17121   6.423   2.246   9.836 -0.3738  0.4033 -1.7115
  154SAPE   C2417122   6.233   2.253   9.746  0.1060  0.5548 -0.2324
  154SAPE   H4R17123   6.282   2.293   9.655 -0.4433  2.0104  0.0776
  154SAPE   H4S17124   6.197   2.325   9.822  1.6234  1.8431 -0.6923
  154SAPE   C2517125   6.126   2.155   9.693 -0.3257  0.6549  0.2889
  154SAPE   H5R17126   6.050   2.119   9.765  0.5760  0.2073  1.0473
  154SAPE   C2617127   6.135   2.083   9.583 -0.2684  0.0477  0.5121
  154SAPE   H6R17128   6.050   2.018   9.558  0.2362 -1.5632  2.6796
  154SAPE   C2717129   6.246   2.081   9.484  0.3805  0.4641  0.1436
  154SAPE   H7R17130   6.330   2.129   9.539  1.2429 -1.8319  0.9331
  154SAPE   H7S17131   6.231   2.153   9.401 -0.9907 -1.9536 -1.8368
  154SAPE   C2817132   6.287   1.943   9.434 -0.3924 -0.6877  0.6786
  154SAPE   H8R17133   6.357   1.886   9.497  0.2053 -0.1903  0.4722
  154SAPE   C2917134   6.236   1.875   9.326  0.0697 -0.4662  0.1273
  154SAPE   H9R17135   6.276   1.776   9.300 -0.4652 -0.8781  0.8276
  154SAPE  C21017136   6.126   1.920   9.237  0.4149 -0.0810  0.2832
  154SAPE  H10R17137   6.088   2.022   9.259 -0.5587 -0.8279  2.2515
  154SAPE  H10S17138   6.039   1.854   9.256 -0.1537 -0.0815 -2.1040
  154SAPE  C21117139   6.171   1.899   9.096 -0.3549  0.1630 -0.5039
  154SAPE  H11R17140   6.230   1.807   9.080 -1.9427 -0.8735 -0.6873
  154SAPE  C21217141   6.134   1.967   8.986 -0.0564 -0.4841 -0.0062
  154SAPE  H12R17142   6.190   1.948   8.893  1.1789 -1.7839  0.9428
  154SAPE  C21317143   6.030   2.079   8.971 -0.3766 -0.7956  0.2762
  154SAPE  H13R17144   6.056   2.150   9.053 -0.5081 -1.4611  0.9042
  154SAPE  H13S17145   5.933   2.036   9.001 -0.5055 -0.9395 -0.3334
  154SAPE  C21417146   6.021   2.141   8.833  0.5271  0.6572 -0.7261
  154SAPE  H14R17147   5.931   2.110   8.778  0.3457 -0.3373  0.0962
  154SAPE  C21517148   6.100   2.223   8.765  0.0961 -0.2096  0.1737
  154SAPE  H15R17149   6.070   2.259   8.665 -0.4780  2.0948  1.1090
  154SAPE  C21617150   6.229   2.284   8.815 -0.5585  0.2636 -0.5207
  154SAPE  H16R17151   6.315   2.218   8.841  0.0874  0.1292 -2.7445
  154SAPE  H16S17152   6.205   2.348   8.902 -0.9345  0.6761 -0.9253
  154SAPE  C21717153   6.281   2.367   8.694 -0.4283 -0.4166  0.3362
  154SAPE  H17R17154   6.194   2.423   8.654 -0.0944 -0.1394 -0.0109
  154SAPE  H17S17155   6.311   2.292   8.617  0.1010 -0.7439  0.8481
  154SAPE  C21817156   6.395   2.457   8.735  0.7257 -0.3694  0.1645
  154SAPE  H18R17157   6.473   2.439   8.658  0.7400 -1.9646  0.5314
  154SAPE  H18S17158   6.438   2.411   8.827 -1.0982 -0.3478  1.0704
  154SAPE  C21917159   6.355   2.606   8.741 -0.0722  0.5290  0.5743
  154SAPE  H19R17160   6.263   2.608   8.803 -2.7532 -2.2725 -2.8557
  154SAPE  H19S17161   6.314   2.637   8.643  3.0625 -1.3323 -1.5241
  154SAPE  C22017162   6.470   2.703   8.783  0.0252  0.0820  0.1544
  154SAPE  H20R17163   6.426   2.804   8.798 -0.5153 -0.0336 -0.5842
  154SAPE  H20S17164   6.546   2.707   8.703 -0.8453 -0.3096 -0.7159
  154SAPE  H20T17165   6.510   2.670   8.881  1.0262 -0.6645 -0.4964
  154SAPE   C3317166   6.818   1.690   9.972  0.0368 -0.4434 -0.5288
  154SAPE   H3X17167   6.844   1.666   9.867 -1.1243  0.1788 -0.9811
  154SAPE   H3Y17168   6.722   1.635   9.985 -0.5654  0.5068 -0.8271
  154SAPE   C3417169   6.921   1.626  10.068 -0.0558 -0.1106 -0.3002
  154SAPE   H4X17170   6.907   1.681  10.163 -2.3609 -0.9684 -0.0747
  154SAPE   H4Y17171   7.022   1.661  10.038 -0.3554 -0.1542 -1.3935
  154SAPE   C3517172   6.909   1.480  10.088 -0.4466 -0.4766  0.1329
  154SAPE   H5X17173   6.837   1.463  10.172  0.5668 -1.2963  0.8600
  154SAPE   H5Y17174   7.009   1.452  10.126  0.3207  0.5737 -1.0768
  154SAPE   C3617175   6.901   1.399   9.953 -0.4503 -0.5992  0.6570
  154SAPE   H6X17176   6.990   1.411   9.887 -1.8060  1.1188 -0.9849
  154SAPE   H6Y17177   6.813   1.440   9.899 -0.8915  0.3029  2.0008
  154SAPE   C3717178   6.890   1.246   9.987  0.6026 -0.4487  0.6615
  154SAPE   H7X17179   6.805   1.231  10.056 -1.0153  1.3991 -0.8046
  154SAPE   H7Y17180   6.987   1.206  10.024  2.1707 -0.4297 -2.9876
  154SAPE   C3817181   6.865   1.165   9.862 -0.1524  0.8548  0.1172
  154SAPE   H8X17182   6.760   1.177   9.827 -0.2420  0.9324  0.4094
  154SAPE   H8Y17183   6.870   1.057   9.887  1.9640  1.3739  2.2544
  154SAPE   C3917184   6.960   1.204   9.749 -0.8966  0.4720  0.0272
  154SAPE   H9X17185   7.064   1.201   9.788 -0.8997 -2.4098  0.0520
  154SAPE   H9Y17186   6.933   1.299   9.699  1.3934  2.4970  2.3409
  154SAPE  C31017187   6.960   1.086   9.651 -0.0475  0.4859  0.1172
  154SAPE  H10X17188   6.870   1.102   9.588  0.8604  1.3188 -0.9994
  154SAPE  H10Y17189   6.961   0.985   9.698 -2.1067  1.3413  2.1538
  154SAPE  C31117190   7.079   1.089   9.562 -0.2553 -0.2214  0.1783
  154SAPE  H11X17191   7.060   1.019   9.478  0.2441 -1.5802  1.1573
  154SAPE  H11Y17192   7.169   1.061   9.621 -0.0251  1.5919  0.7321
  154SAPE  C31217193   7.107   1.226   9.507  0.1550  0.0981 -0.2593
  154SAPE  H12X17194   7.134   1.301   9.584 -0.1872  1.9471 -1.8805
  154SAPE  H12Y17195   7.007   1.251   9.467 -0.2778 -2.1211 -0.7150
  154SAPE  C31317196   7.204   1.210   9.389  0.6646  0.0073  0.3968
  154SAPE  H13X17197   7.280   1.131   9.409  0.3547 -1.2494 -2.8606
  154SAPE  H13Y17198   7.265   1.302   9.382  0.1719  0.6672  3.2448
  154SAPE  C31417199   7.136   1.179   9.249 -0.4915  0.0267  0.5343
  154SAPE  H14X17200   7.052   1.249   9.228 -0.1973 -0.1927 -1.5692
  154SAPE  H14Y17201   7.090   1.079   9.261  0.4684 -0.5148 -0.1546
  154SAPE  C31517202   7.234   1.185   9.132 -0.3481 -0.2439  1.3002
  154SAPE  H15X17203   7.321   1.119   9.153 -0.2381 -0.1351  1.1846
  154SAPE  H15Y17204   7.270   1.290   9.122  0.4888 -0.6576 -0.3857
  154SAPE  C31617205   7.188   1.139   8.991 -0.4411  0.7375 -0.2334
  154SAPE  H16X17206   7.275   1.096   8.938  0.0948  0.6034  0.7349
  154SAPE  H16Y17207   7.144   1.226   8.938 -1.5291 -0.1489 -0.8221
  154SAPE  C31717208   7.079   1.026   8.998  0.2891 -0.3545 -0.6693
  154SAPE  H17X17209   7.043   1.002   8.896  1.3206 -0.5348 -0.9975
  154SAPE  H17Y17210   6.994   1.066   9.058  2.3558  0.0719  2.1891
  154SAPE  C31817211   7.117   0.889   9.042 -0.7371  0.0708 -0.3463
  154SAPE  H18X17212   7.031   0.821   9.063  0.1949 -1.6382 -1.8025
  154SAPE  H18Y17213   7.178   0.886   9.135 -2.8063  2.5466  1.2398
  154SAPE  H18Z17214   7.178   0.829   8.972  0.6111 -2.3032  2.6025
  155SAPE     N17215   0.846   2.693  10.810 -0.0273 -0.2558 -0.7538
  155SAPE   HN117216   0.896   2.622  10.868 -1.0485 -0.4366 -0.0790
  155SAPE   HN217217   0.756   2.652  10.780 -0.9092 -0.9789  2.4739
  155SAPE   HN317218   0.907   2.713  10.729 -1.2501 -0.1152 -1.6577
  155SAPE   C1217219   0.821   2.828  10.879  0.3748  0.0286  0.3960
  155SAPE  H12A17220   0.924   2.864  10.904  0.3630 -0.0321  0.5376
  155SAPE  H12B17221   0.758   2.807  10.968  2.1190 -1.9450  1.2617
  155SAPE   C1117222   0.761   2.938  10.783 -0.1530  0.3716 -0.6281
  155SAPE  H11A17223   0.810   2.933  10.684 -1.6684 -0.6510 -1.3631
  155SAPE  H11B17224   0.788   3.033  10.835  2.6306 -0.2800 -0.7301
  155SAPE     P17225   0.524   2.990  10.683 -0.3939 -0.3478 -0.4978
  155SAPE   O1317226   0.405   2.906  10.693 -0.0096  0.2594  0.1151
  155SAPE   O1417227   0.519   3.128  10.741 -0.2992  0.2893  0.0117
  155SAPE   O1217228   0.622   2.911  10.767 -0.3825 -0.1870  0.5947
  155SAPE   O1117229   0.574   2.990  10.528  0.1060 -0.3646 -0.5913
  155SAPE    C117230   0.615   2.866  10.468  0.4228  0.0089 -0.4263
  155SAPE    HA17231   0.634   2.785  10.542  1.5206  0.0806 -0.6134
  155SAPE    HB17232   0.531   2.827  10.408 -0.0894  1.8585 -0.9885
  155SAPE    C217233   0.734   2.882  10.368 -0.3168  0.5639 -0.5337
  155SAPE    HS17234   0.819   2.916  10.431  0.9289 -2.2929 -0.5022
  155SAPE   O2117235   0.699   2.955  10.249 -0.0257 -0.1146  0.5061
  155SAPE   C2117236   0.747   3.073  10.243 -0.4622 -0.0682 -0.3015
  155SAPE   O2217237   0.845   3.122  10.297 -0.2559  0.7210  0.2579
  155SAPE   C2217238   0.684   3.149  10.138  0.1490 -0.6159  0.6872
  155SAPE   H2R17239   0.742   3.151  10.043 -0.7813  0.1682  0.1187
  155SAPE   H2S17240   0.585   3.104  10.112  0.2401 -0.8566  0.7523
  155SAPE    C317241   0.773   2.740  10.327  0.2964 -0.0880 -0.5585
  155SAPE    HX17242   0.675   2.703  10.291  0.3164  1.1296 -1.9749
  155SAPE    HY17243   0.800   2.679  10.415 -1.2364  1.5967  1.1712
  155SAPE   O3117244   0.884   2.756  10.233 -0.0905 -0.0558 -0.5983
  155SAPE   C3117245   0.929   2.643  10.176  0.2992  0.2094  0.4051
  155SAPE   O3217246   0.894   2.531  10.207  0.6950 -0.0184  0.7164
  155SAPE   C3217247   1.037   2.675  10.072  0.6981  0.2985  0.1708
  155SAPE   H2X17248   1.113   2.744  10.113  1.1953  0.4617 -0.9698
  155SAPE   H2Y17249   0.983   2.716   9.984  1.3426 -1.4750 -1.1213
  155SAPE   C2317250   0.658   3.298  10.177 -0.5816  0.3691  0.9783
  155SAPE   H3R17251   0.749   3.348  10.217  0.4323  1.6615 -2.5886
  155SAPE   H3S17252   0.588   3.294  10.263 -0.9472  1.9355  0.7860
  155SAPE   C2417253   0.584   3.381  10.072  1.0515  0.6709 -0.0312
  155SAPE   H4R17254   0.534   3.466  10.123 -0.8054 -0.9750  1.0827
  155SAPE   H4S17255   0.490   3.329  10.044 -0.6925  1.4102  3.7501
  155SAPE   C2517256   0.681   3.416   9.966  0.2037  0.4304  0.7441
  155SAPE   H5R17257   0.782   3.446   9.999  0.9796 -0.0807 -1.0530
  155SAPE   C2617258   0.666   3.397   9.829 -0.1930  0.2797 -0.3043
  155SAPE   H6R17259   0.756   3.408   9.766  1.3103  2.3988  2.0159
  155SAPE   C2717260   0.544   3.348   9.757 -0.5842 -0.4672 -0.6952
  155SAPE   H7R17261   0.501   3.431   9.696  1.5430 -0.8494 -2.8380
  155SAPE   H7S17262   0.465   3.329   9.833  0.1490 -2.1634 -0.3138
  155SAPE   C2817263   0.564   3.216   9.684 -0.3808 -0.0546 -0.5268
  155SAPE   H8R17264   0.617   3.141   9.744 -0.2920  0.5438  0.1535
  155SAPE   C2917265   0.556   3.184   9.557  0.3393 -0.5246  0.1407
  155SAPE   H9R17266   0.589   3.081   9.538  0.4940 -0.7708  1.6363
  155SAPE  C21017267   0.509   3.259   9.433 -0.0638  0.3156  0.5177
  155SAPE  H10R17268   0.405   3.291   9.457 -0.7959 -1.5299  0.0110
  155SAPE  H10S17269   0.489   3.199   9.341  1.6712  1.7871 -0.8918
  155SAPE  C21117270   0.596   3.377   9.388 -0.3231 -0.0992 -0.6719
  155SAPE  H11R17271   0.619   3.451   9.466  0.8638 -2.3125  1.2002
  155SAPE  C21217272   0.654   3.397   9.266  0.6939 -0.2024 -0.6801
  155SAPE  H12R17273   0.715   3.488   9.257  0.4712  0.3509  2.4439
  155SAPE  C21317274   0.652   3.299   9.154  1.7321 -0.2864 -0.3408
  155SAPE  H13R17275   0.582   3.337   9.077  1.6835 -0.5079 -0.4080
  155SAPE  H13S17276   0.611   3.198   9.178  1.8965 -0.8273 -2.2117
  155SAPE  C21417277   0.793   3.284   9.098 -0.4857 -0.1473  0.6383
  155SAPE  H14R17278   0.856   3.199   9.128  1.8889  0.5390 -2.0229
  155SAPE  C21517279   0.846   3.369   9.003 -0.6111  0.3265 -0.0493
  155SAPE  H15R17280   0.951   3.357   8.971 -0.6611 -0.6230  0.1179
  155SAPE  C21617281   0.781   3.488   8.959  0.5213 -0.4174 -0.2484
  155SAPE  H16R17282   0.677   3.501   8.995  0.5894  0.4748 -0.3536
  155SAPE  H16S17283   0.773   3.485   8.849  0.4414 -1.7783 -0.2206
  155SAPE  C21717284   0.842   3.627   8.990 -0.4228 -0.7361  0.1444
  155SAPE  H17R17285   0.833   3.637   9.100  0.4429  2.8660 -0.0085
  155SAPE  H17S17286   0.769   3.705   8.959 -1.0136 -1.8696 -1.5008
  155SAPE  C21817287   0.975   3.655   8.923  0.0646 -0.1527  0.3783
  155SAPE  H18R17288   0.965   3.652   8.812  0.6397  1.4220  0.2648
  155SAPE  H18S17289   1.050   3.576   8.943  0.7379  0.5747  0.7710
  155SAPE  C21917290   1.021   3.797   8.960 -0.4057  0.9350 -0.0597
  155SAPE  H19R17291   1.070   3.785   9.059 -0.2882 -1.3132 -0.3318
  155SAPE  H19S17292   0.934   3.865   8.968 -0.1782  1.4211 -1.4784
  155SAPE  C22017293   1.114   3.858   8.856  0.4906 -0.2637 -0.6667
  155SAPE  H20R17294   1.188   3.788   8.811  0.7388 -0.7093  0.3990
  155SAPE  H20S17295   1.178   3.939   8.895  0.5571 -0.3182 -0.6639
  155SAPE  H20T17296   1.061   3.895   8.766 -1.6943 -0.6538  0.3723
  155SAPE   C3317297   1.109   2.539  10.033 -0.8650  0.6768  0.2945
  155SAPE   H3X17298   1.040   2.451  10.035 -0.1634  0.1243  0.3306
  155SAPE   H3Y17299   1.184   2.522  10.113  0.9035 -1.9509 -1.7255
  155SAPE   C3417300   1.177   2.558   9.900  0.6901  0.5449  0.3113
  155SAPE   H4X17301   1.268   2.494   9.909  0.3837  0.3553  2.7732
  155SAPE   H4Y17302   1.196   2.667   9.888 -0.0308  0.6379 -0.0064
  155SAPE   C3517303   1.093   2.502   9.780  0.1079  0.1400  0.2733
  155SAPE   H5X17304   1.001   2.562   9.765  1.4113  2.0830 -0.3048
  155SAPE   H5Y17305   1.066   2.398   9.808 -0.3832  0.6019  1.5701
  155SAPE   C3617306   1.170   2.497   9.649 -0.0882 -0.1315  0.2990
  155SAPE   H6X17307   1.265   2.442   9.665 -0.3470 -1.0360 -1.0729
  155SAPE   H6Y17308   1.205   2.597   9.616  0.1121  0.6852  2.7576
  155SAPE   C3717309   1.100   2.428   9.532  0.1576 -0.1273  0.7171
  155SAPE   H7X17310   1.007   2.472   9.490  0.7923  0.9910  0.4372
  155SAPE   H7Y17311   1.097   2.319   9.552  4.5704 -0.4510  0.6278
  155SAPE   C3817312   1.198   2.423   9.420 -0.5424 -0.3160 -0.4580
  155SAPE   H8X17313   1.280   2.354   9.449 -0.3702 -1.2232 -2.8450
  155SAPE   H8Y17314   1.234   2.514   9.368 -0.9821 -0.5259 -1.1382
  155SAPE   C3917315   1.136   2.354   9.297 -0.3732 -0.4621  0.6700
  155SAPE   H9X17316   1.038   2.403   9.281  0.7807  1.5277 -0.8046
  155SAPE   H9Y17317   1.119   2.246   9.320  1.5574 -0.9625 -0.0570
  155SAPE  C31017318   1.237   2.361   9.179  0.6033  0.0611 -1.0015
  155SAPE  H10X17319   1.324   2.301   9.214 -1.5458 -1.5778  2.0516
  155SAPE  H10Y17320   1.255   2.469   9.161 -2.3109  0.5113 -1.7967
  155SAPE  C31117321   1.188   2.303   9.049  0.0412 -0.6607  0.3989
  155SAPE  H11X17322   1.121   2.376   8.998  2.0063  1.6130  0.8909
  155SAPE  H11Y17323   1.146   2.201   9.051  2.3167 -1.6555  2.4041
  155SAPE  C31217324   1.301   2.286   8.951  0.2467  0.6097  1.0284
  155SAPE  H12X17325   1.257   2.245   8.858 -0.4434  0.6448  1.3298
  155SAPE  H12Y17326   1.374   2.206   8.977 -1.1735 -1.3508 -0.6872
  155SAPE  C31317327   1.380   2.417   8.915  0.5964  0.2759  0.2504
  155SAPE  H13X17328   1.438   2.438   9.007 -2.7696  0.0365  2.6133
  155SAPE  H13Y17329   1.307   2.501   8.907  0.1541 -0.1061  0.2108
  155SAPE  C31417330   1.454   2.410   8.787  0.1396  0.1747  0.6493
  155SAPE  H14X17331   1.375   2.374   8.717  1.4262 -0.4337 -0.5409
  155SAPE  H14Y17332   1.528   2.328   8.773  1.1574  0.8983  1.6657
  155SAPE  C31517333   1.526   2.535   8.753  0.2851  0.6167 -0.4844
  155SAPE  H15X17334   1.594   2.551   8.839 -0.7844 -0.1823  0.5313
  155SAPE  H15Y17335   1.466   2.628   8.741 -1.7754 -0.4235  1.2721
  155SAPE  C31617336   1.625   2.532   8.638 -0.2488 -0.1053  0.4762
  155SAPE  H16X17337   1.551   2.529   8.555 -1.3985  3.1959  1.2232
  155SAPE  H16Y17338   1.692   2.445   8.623  0.8904  0.4905  1.8533
  155SAPE  C31717339   1.702   2.668   8.620 -0.6148  0.0360  0.0618
  155SAPE  H17X17340   1.791   2.653   8.685 -0.9723 -1.5694  0.2388
  155SAPE  H17Y17341   1.637   2.743   8.670 -0.5526 -1.0252  1.8534
  155SAPE  C31817342   1.739   2.710   8.474  0.1230  0.1620 -0.1083
  155SAPE  H18X17343   1.812   2.636   8.434  1.3865  0.5227  1.4266
  155SAPE  H18Y17344   1.780   2.813   8.467 -1.0304  0.6280 -0.1725
  155SAPE  H18Z17345   1.647   2.723   8.413 -1.4609  0.2148  2.1795
  156SAPE     N17346   5.835   1.966  10.638 -0.1353 -0.1840  0.0200
  156SAPE   HN117347   5.919   1.932  10.588 -1.2845 -0.8971 -1.5221
  156SAPE   HN217348   5.845   2.069  10.649  1.1039 -0.3562  0.5695
  156SAPE   HN317349   5.835   1.934  10.737  1.9075  1.5914  0.6643
  156SAPE   C1217350   5.701   1.914  10.591 -0.5148 -0.3000 -0.2244
  156SAPE  H12A17351   5.704   1.936  10.482  0.6207 -1.8095 -0.5442
  156SAPE  H12B17352   5.631   1.974  10.653  2.0201  1.3190  1.2361
  156SAPE   C1117353   5.680   1.767  10.624 -0.5163  0.4524 -0.2017
  156SAPE  H11A17354   5.707   1.747  10.730 -0.7721 -0.6346 -0.3226
  156SAPE  H11B17355   5.746   1.704  10.561 -1.3077 -0.5016 -0.1182
  156SAPE     P17356   5.511   1.571  10.599 -0.3508  0.7910 -0.0821
  156SAPE   O1317357   5.617   1.493  10.664 -0.3169  0.2456  0.0434
  156SAPE   O1417358   5.377   1.548  10.643 -0.0879 -0.3769  0.2204
  156SAPE   O1217359   5.545   1.728  10.605  0.9451 -0.6228  0.1734
  156SAPE   O1117360   5.519   1.538  10.444 -0.0134 -0.3216 -0.0739
  156SAPE    C117361   5.426   1.605  10.356 -0.5272  0.4663 -0.1447
  156SAPE    HA17362   5.322   1.573  10.376 -1.1044  1.0193 -2.0314
  156SAPE    HB17363   5.434   1.715  10.369 -0.5561  0.4720 -0.1753
  156SAPE    C217364   5.452   1.582  10.206  0.1600  0.4211 -0.2656
  156SAPE    HS17365   5.394   1.653  10.144 -1.2607 -1.3766 -1.0770
  156SAPE   O2117366   5.422   1.450  10.169  0.3278 -0.0302 -0.2573
  156SAPE   C2117367   5.299   1.429  10.134  0.1578  0.5129 -0.0033
  156SAPE   O2217368   5.209   1.510  10.137 -0.3635  0.4029  0.3636
  156SAPE   C2217369   5.281   1.288  10.093  0.2335  0.0965 -0.2669
  156SAPE   H2R17370   5.373   1.233  10.064  0.9580  0.1342  1.8277
  156SAPE   H2S17371   5.230   1.238  10.178 -1.0554  0.7819 -0.6149
  156SAPE    C317372   5.604   1.608  10.170  0.1455  0.7047  0.6008
  156SAPE    HX17373   5.660   1.524  10.216 -0.8495 -0.4534 -0.2652
  156SAPE    HY17374   5.626   1.710  10.210  1.5162  0.5464  0.3155
  156SAPE   O3117375   5.628   1.599  10.023  0.5170 -1.1056 -0.0758
  156SAPE   C3117376   5.738   1.668   9.992  0.1915  0.1886 -0.8388
  156SAPE   O3217377   5.805   1.728  10.079  0.1196  0.3961 -0.4262
  156SAPE   C3217378   5.768   1.656   9.842 -0.3304  0.4670  0.0798
  156SAPE   H2X17379   5.696   1.713   9.781  0.9175 -0.5131 -2.4334
  156SAPE   H2Y17380   5.764   1.549   9.811 -0.4725  0.9437 -1.6379
  156SAPE   C2317381   5.179   1.272   9.971  0.0287 -0.3300  0.5544
  156SAPE   H3R17382   5.096   1.346   9.970  1.8647  1.9030 -1.6105
  156SAPE   H3S17383   5.135   1.172   9.991 -0.5626  0.1201  1.5923
  156SAPE   C2417384   5.249   1.263   9.833  0.2016  0.0776  0.3091
  156SAPE   H4R17385   5.174   1.272   9.752 -1.2389  4.5493  1.8190
  156SAPE   H4S17386   5.296   1.162   9.837  1.9614  0.8364 -0.3144
  156SAPE   C2517387   5.338   1.380   9.818 -0.3687  0.0078  0.0807
  156SAPE   H5R17388   5.307   1.480   9.851 -2.3312  0.1423 -1.8845
  156SAPE   C2617389   5.463   1.362   9.775  0.4214 -0.5092 -0.3170
  156SAPE   H6R17390   5.533   1.445   9.792  0.2835 -0.6891  1.3188
  156SAPE   C2717391   5.531   1.228   9.740  0.0459  0.5090  0.8024
  156SAPE   H7R17392   5.601   1.260   9.661 -2.1064  2.8343 -0.3046
  156SAPE   H7S17393   5.452   1.172   9.685  1.2088  1.4528 -1.9836
  156SAPE   C2817394   5.577   1.138   9.845  0.1915  0.0192 -0.5825
  156SAPE   H8R17395   5.528   1.140   9.943 -2.2629  1.1890 -1.7374
  156SAPE   C2917396   5.672   1.046   9.834  0.0589  0.5572 -0.0185
  156SAPE   H9R17397   5.688   0.982   9.922 -2.4062  1.9220  1.5726
  156SAPE  C21017398   5.758   1.006   9.713 -0.4271 -0.2626 -0.2835
  156SAPE  H10R17399   5.845   0.945   9.746  0.4997  1.7496  1.2154
  156SAPE  H10S17400   5.801   1.100   9.674  2.3462 -0.8363  1.1650
  156SAPE  C21117401   5.668   0.935   9.607 -0.7634 -0.0691  0.0274
  156SAPE  H11R17402   5.602   0.858   9.650 -0.3939  0.2156  1.1424
  156SAPE  C21217403   5.665   0.955   9.473  0.4679 -0.4229 -0.3223
  156SAPE  H12R17404   5.585   0.910   9.412  0.2732 -1.2608  0.5299
  156SAPE  C21317405   5.738   1.064   9.397 -0.9503 -0.0056  0.1723
  156SAPE  H13R17406   5.843   1.038   9.373 -0.5926  1.5232  0.0051
  156SAPE  H13S17407   5.752   1.157   9.456  0.8194  0.3024 -0.6772
  156SAPE  C21417408   5.653   1.099   9.271 -0.2536 -0.2625  0.2917
  156SAPE  H14R17409   5.555   1.146   9.289 -0.8371 -1.5636  0.6322
  156SAPE  C21517410   5.674   1.053   9.146  0.4314 -0.0240  0.0731
  156SAPE  H15R17411   5.623   1.104   9.063  2.7941  0.4983 -1.1458
  156SAPE  C21617412   5.778   0.969   9.095  0.1658 -0.0568 -0.1947
  156SAPE  H16R17413   5.822   0.915   9.182 -1.2973 -1.8698 -0.5097
  156SAPE  H16S17414   5.861   1.028   9.050 -0.0183 -0.6996 -1.4187
  156SAPE  C21717415   5.748   0.850   9.000  0.4395  0.3671  0.6347
  156SAPE  H17R17416   5.655   0.800   9.034  1.3083 -1.0368  1.0156
  156SAPE  H17S17417   5.829   0.775   9.008  1.0825  1.0792  0.9618
  156SAPE  C21817418   5.739   0.885   8.853  0.0895 -0.4402 -0.0641
  156SAPE  H18R17419   5.772   0.991   8.842 -0.2395 -0.0603  2.2165
  156SAPE  H18S17420   5.634   0.873   8.820 -0.7684 -0.0418  2.3684
  156SAPE  C21917421   5.820   0.793   8.765 -0.0493 -0.1723  0.3728
  156SAPE  H19R17422   5.922   0.774   8.804  0.0014  1.5552  1.1941
  156SAPE  H19S17423   5.833   0.848   8.669 -0.7916 -2.0438 -0.8628
  156SAPE  C22017424   5.757   0.664   8.735 -0.2985 -0.0733  0.3203
  156SAPE  H20R17425   5.648   0.666   8.711 -0.5721 -2.0626  1.2392
  156SAPE  H20S17426   5.771   0.600   8.824  0.1770  0.6748  0.7958
  156SAPE  H20T17427   5.814   0.625   8.648 -2.5470 -2.2160 -0.2918
  156SAPE   C3317428   5.893   1.731   9.807  0.2026 -0.6884 -0.2498
  156SAPE   H3X17429   5.985   1.679   9.842 -0.7156 -1.6610  0.7607
  156SAPE   H3Y17430   5.886   1.824   9.868 -3.3442 -1.2279  0.3776
  156SAPE   C3417431   5.904   1.761   9.659 -0.1577  0.2264  0.2392
  156SAPE   H4X17432   6.002   1.807   9.638  0.5008 -1.1317  0.2432
  156SAPE   H4Y17433   5.836   1.839   9.619 -0.0002  0.2464  0.0117
  156SAPE   C3517434   5.895   1.635   9.571 -0.4300 -0.8130  0.2400
  156SAPE   H5X17435   5.906   1.547   9.639 -0.7033 -0.5040  0.6885
  156SAPE   H5Y17436   5.977   1.626   9.496 -0.9629 -0.1198 -0.4449
  156SAPE   C3617437   5.761   1.620   9.490 -0.6164 -0.1666  0.2488
  156SAPE   H6X17438   5.771   1.698   9.412  0.0466 -1.5794 -1.1284
  156SAPE   H6Y17439   5.673   1.652   9.550  0.1521  3.8298 -0.4939
  156SAPE   C3717440   5.745   1.480   9.438 -0.3306 -0.5278  0.0605
  156SAPE   H7X17441   5.652   1.469   9.379  0.0151 -0.3209 -0.5375
  156SAPE   H7Y17442   5.747   1.401   9.516  2.7848  0.3132  1.0156
  156SAPE   C3817443   5.849   1.448   9.334  0.0033  0.1682  0.1227
  156SAPE   H8X17444   5.877   1.340   9.333  0.2391  0.1700  2.4271
  156SAPE   H8Y17445   5.943   1.499   9.366 -1.1048  1.5643  1.2460
  156SAPE   C3917446   5.820   1.494   9.185  0.6010  0.4737  0.1553
  156SAPE   H9X17447   5.802   1.603   9.174  2.2176  0.7422 -0.1041
  156SAPE   H9Y17448   5.732   1.437   9.148  0.5622 -0.0534  1.0277
  156SAPE  C31017449   5.929   1.456   9.080  0.5444  0.2688  0.0199
  156SAPE  H10X17450   5.950   1.347   9.089 -1.6690 -0.2059  0.1047
  156SAPE  H10Y17451   6.019   1.509   9.117  0.8473 -1.1709  1.4739
  156SAPE  C31117452   5.903   1.492   8.934 -1.2315  0.0579 -0.0985
  156SAPE  H11X17453   5.806   1.465   8.888 -0.6982 -1.8651 -0.1787
  156SAPE  H11Y17454   5.981   1.453   8.865 -0.8050  1.3695 -0.3925
  156SAPE  C31217455   5.927   1.644   8.917  0.4480 -0.1922  0.1237
  156SAPE  H12X17456   6.013   1.673   8.980  0.3024  3.2060 -0.9837
  156SAPE  H12Y17457   5.841   1.705   8.954  0.4750 -1.0150  1.6211
  156SAPE  C31317458   5.963   1.692   8.772  0.5424  0.1775  0.6434
  156SAPE  H13X17459   6.064   1.650   8.754 -0.1862 -0.9381 -1.1094
  156SAPE  H13Y17460   5.972   1.803   8.776  1.3710  0.0956  4.1579
  156SAPE  C31417461   5.864   1.656   8.662 -0.7124  0.1852  0.7677
  156SAPE  H14X17462   5.767   1.701   8.691  0.0948  0.7443  2.7832
  156SAPE  H14Y17463   5.856   1.545   8.667 -0.3129  0.0430 -1.0273
  156SAPE  C31517464   5.913   1.710   8.526 -0.1799  0.0366 -0.4377
  156SAPE  H15X17465   6.005   1.659   8.490 -0.9242 -1.7968  0.1341
  156SAPE  H15Y17466   5.939   1.818   8.533  0.5382 -0.0183 -1.9551
  156SAPE  C31617467   5.807   1.695   8.417 -1.1968  0.2820  0.5461
  156SAPE  H16X17468   5.786   1.587   8.399 -0.4898  0.4019 -1.1888
  156SAPE  H16Y17469   5.856   1.733   8.326  1.7605 -1.1556  1.4088
  156SAPE  C31717470   5.673   1.759   8.430  0.7959  0.2811  0.4904
  156SAPE  H17X17471   5.686   1.869   8.424  1.9382  0.0784 -3.1678
  156SAPE  H17Y17472   5.615   1.734   8.522  0.7191 -0.9190  0.1312
  156SAPE  C31817473   5.581   1.735   8.309 -0.1863  0.5505  0.0515
  156SAPE  H18X17474   5.622   1.773   8.213 -1.8450 -0.7543 -1.2247
  156SAPE  H18Y17475   5.490   1.793   8.332  1.0787  1.5489  3.0273
  156SAPE  H18Z17476   5.562   1.625   8.303 -2.1310  0.8563 -0.0687
  157SAPE     N17477   3.931   0.490  10.840  0.0733  0.1576 -0.3176
  157SAPE   HN117478   4.011   0.424  10.835  0.1275  0.2167 -0.2256
  157SAPE   HN217479   3.953   0.557  10.917  0.9081 -1.1546  0.6175
  157SAPE   HN317480   3.843   0.439  10.861 -0.0613  0.0942 -1.0117
  157SAPE   C1217481   3.930   0.563  10.709 -0.0353  0.3036  0.0965
  157SAPE  H12A17482   3.828   0.604  10.695  0.3707  1.0695 -0.6753
  157SAPE  H12B17483   3.953   0.487  10.631 -0.3491 -0.6087  0.8742
  157SAPE   C1117484   4.038   0.668  10.697 -0.1239 -0.5619  0.0977
  157SAPE  H11A17485   4.029   0.714  10.597 -1.3075 -0.7053  0.1203
  157SAPE  H11B17486   4.141   0.626  10.706  0.9889  2.2272  1.9403
  157SAPE     P17487   4.136   0.880  10.808 -0.4785  0.4866 -0.1747
  157SAPE   O1317488   4.095   0.966  10.921 -0.4432 -0.0591 -0.6360
  157SAPE   O1417489   4.261   0.802  10.812  0.0659 -0.5030 -0.4744
  157SAPE   O1217490   4.023   0.763  10.798 -0.7077  0.1446 -0.0751
  157SAPE   O1117491   4.128   0.967  10.683 -0.5569 -0.2440 -0.0931
  157SAPE    C117492   4.009   1.030  10.638 -0.1915 -0.0282  0.1106
  157SAPE    HA17493   3.916   0.988  10.680 -1.2919  2.4730  0.3647
  157SAPE    HB17494   4.006   1.134  10.678  0.2529 -0.2096  0.6180
  157SAPE    C217495   4.010   1.051  10.482  0.5492  0.1959 -0.6955
  157SAPE    HS17496   3.942   1.134  10.453  0.6906  0.0998 -1.3099
  157SAPE   O2117497   3.971   0.931  10.411  0.0038  0.4108  0.2931
  157SAPE   C2117498   3.848   0.895  10.420  1.1239 -0.0905 -0.1465
  157SAPE   O2217499   3.757   0.959  10.470 -0.4579 -0.2160  0.4961
  157SAPE   C2217500   3.826   0.770  10.333  0.0280  0.3960 -0.0376
  157SAPE   H2R17501   3.923   0.732  10.296 -0.5536 -1.1789 -0.0159
  157SAPE   H2S17502   3.797   0.692  10.407 -0.8906  0.8226  0.0714
  157SAPE    C317503   4.149   1.087  10.435 -0.5718  0.2517  0.8686
  157SAPE    HX17504   4.220   1.006  10.463  0.1684  0.3317 -0.6745
  157SAPE    HY17505   4.197   1.178  10.478 -1.4826  2.3229 -2.2083
  157SAPE   O3117506   4.146   1.114  10.292 -0.0649  0.1413  0.1645
  157SAPE   C3117507   4.220   1.041  10.213 -0.2221  1.2126 -0.6009
  157SAPE   O3217508   4.295   0.949  10.239  0.3508 -0.2712 -0.1863
  157SAPE   C3217509   4.194   1.094  10.070  0.3356  0.3254 -0.7987
  157SAPE   H2X17510   4.257   1.184  10.056  0.5858  0.0267 -1.6976
  157SAPE   H2Y17511   4.086   1.117  10.061  0.3582  0.4145 -0.8374
  157SAPE   C2317512   3.717   0.776  10.224  0.4536  0.4309  0.1999
  157SAPE   H3R17513   3.624   0.811  10.274  0.3623  2.0074 -0.9936
  157SAPE   H3S17514   3.697   0.672  10.191 -2.7372  0.9457  0.1795
  157SAPE   C2417515   3.744   0.878  10.112 -0.3753 -0.3409  0.2139
  157SAPE   H4R17516   3.756   0.978  10.158 -1.6812 -0.7442  1.4898
  157SAPE   H4S17517   3.653   0.871  10.048 -0.3262  1.1854 -0.0688
  157SAPE   C2517518   3.869   0.843  10.035  0.2357 -0.5154 -0.1496
  157SAPE   H5R17519   3.960   0.864  10.092  0.9928 -2.0991 -0.7089
  157SAPE   C2617520   3.890   0.781   9.916  0.5976  0.1343 -0.2003
  157SAPE   H6R17521   3.995   0.765   9.887  1.1464 -0.0227  1.7029
  157SAPE   C2717522   3.782   0.727   9.827  0.5364  0.9918 -0.1726
  157SAPE   H7R17523   3.706   0.806   9.808 -2.1118 -1.0567  1.2797
  157SAPE   H7S17524   3.736   0.642   9.882 -0.8362  1.2169 -0.9347
  157SAPE   C2817525   3.835   0.691   9.691  0.1157 -0.6452  0.4016
  157SAPE   H8R17526   3.898   0.769   9.646 -1.0823  1.5727  2.3333
  157SAPE   C2917527   3.786   0.593   9.617  0.4837  0.4911 -0.1621
  157SAPE   H9R17528   3.846   0.551   9.535 -0.4555 -1.0037 -0.1156
  157SAPE  C21017529   3.683   0.489   9.650 -0.2056 -0.6305 -0.0324
  157SAPE  H10R17530   3.631   0.450   9.560 -0.3488 -2.6403  0.8668
  157SAPE  H10S17531   3.603   0.537   9.711  2.6562  2.4189  1.6552
  157SAPE  C21117532   3.743   0.383   9.726  0.2457  0.4605  0.3019
  157SAPE  H11R17533   3.837   0.410   9.776  1.0820 -0.9226 -0.4545
  157SAPE  C21217534   3.706   0.254   9.742 -0.8554 -0.2983 -0.7207
  157SAPE  H12R17535   3.777   0.188   9.794 -0.5844 -0.3290 -1.1282
  157SAPE  C21317536   3.587   0.185   9.688  0.3288 -0.7108  0.5276
  157SAPE  H13R17537   3.524   0.257   9.632  1.7712 -0.0090 -0.2647
  157SAPE  H13S17538   3.520   0.144   9.766 -1.5912  1.7306  0.2774
  157SAPE  C21417539   3.617   0.073   9.592 -0.2600  0.1498 -0.2204
  157SAPE  H14R17540   3.694  -0.002   9.613  2.0178  2.2981 -0.4081
  157SAPE  C21517541   3.541   0.048   9.488  0.4376  0.2535 -0.1311
  157SAPE  H15R17542   3.575  -0.034   9.423 -1.5982 -0.3129 -0.5553
  157SAPE  C21617543   3.423   0.113   9.427 -0.1913 -1.0280 -0.2271
  157SAPE  H16R17544   3.378   0.198   9.482  1.5543 -0.5789  0.5610
  157SAPE  H16S17545   3.343   0.036   9.424  0.9941 -2.3460  0.7390
  157SAPE  C21717546   3.443   0.160   9.277  0.1914 -0.5537 -0.2803
  157SAPE  H17R17547   3.342   0.185   9.238 -0.0333  2.2021  1.7031
  157SAPE  H17S17548   3.477   0.067   9.228  2.1543 -0.0651  0.0705
  157SAPE  C21817549   3.539   0.271   9.244 -1.3282  0.6567  0.5033
  157SAPE  H18R17550   3.516   0.356   9.311 -2.3135  0.3817  0.5368
  157SAPE  H18S17551   3.512   0.305   9.141 -1.8860  2.7968  1.3134
  157SAPE  C21917552   3.688   0.242   9.247 -0.1377 -0.0476  0.2377
  157SAPE  H19R17553   3.702   0.162   9.172  0.0946  1.2373 -1.1317
  157SAPE  H19S17554   3.719   0.200   9.345 -0.3151  2.2409  1.3470
  157SAPE  C22017555   3.781   0.355   9.217  0.2849 -0.7436 -0.3284
  157SAPE  H20R17556   3.770   0.420   9.307 -1.4714 -1.2255 -0.1466
  157SAPE  H20S17557   3.747   0.415   9.130  1.4312  2.3651  1.1984
  157SAPE  H20T17558   3.883   0.317   9.197  1.6519  2.2546  0.3579
  157SAPE   C3317559   4.225   0.987   9.966 -0.8045 -0.2565  0.4002
  157SAPE   H3X17560   4.164   0.896   9.985  1.6815 -1.5400  2.8997
  157SAPE   H3Y17561   4.329   0.950   9.975 -1.1673 -0.9581  2.0648
  157SAPE   C3417562   4.203   1.030   9.820 -0.6904  0.0026 -0.1309
  157SAPE   H4X17563   4.101   1.074   9.820  0.3710  2.6656 -1.0575
  157SAPE   H4Y17564   4.190   0.938   9.759  1.0987 -0.8842  0.7396
  157SAPE   C3517565   4.310   1.137   9.772 -0.4302 -0.0588  0.4018
  157SAPE   H5X17566   4.414   1.097   9.766  0.1119  1.2609  0.6995
  157SAPE   H5Y17567   4.313   1.210   9.856 -0.3714 -0.8624  1.1051
  157SAPE   C3617568   4.281   1.189   9.637  0.1100 -0.6051 -0.0774
  157SAPE   H6X17569   4.174   1.216   9.636  0.5372  1.6977  2.6658
  157SAPE   H6Y17570   4.299   1.100   9.573 -0.0727  1.5397 -3.3596
  157SAPE   C3717571   4.355   1.318   9.609  0.1416 -0.2687  1.0505
  157SAPE   H7X17572   4.462   1.314   9.640  0.4212 -2.0565 -0.0556
  157SAPE   H7Y17573   4.311   1.396   9.676 -0.9502 -1.7857  2.1543
  157SAPE   C3817574   4.360   1.339   9.463  0.2334  0.1770  1.1111
  157SAPE   H8X17575   4.257   1.336   9.421  1.3202  0.0001 -1.7143
  157SAPE   H8Y17576   4.419   1.257   9.417 -0.2921  0.6581 -0.4580
  157SAPE   C3917577   4.425   1.476   9.430  0.3341 -0.1525  0.2023
  157SAPE   H9X17578   4.385   1.549   9.503 -0.0903 -0.4315  0.2587
  157SAPE   H9Y17579   4.403   1.510   9.327  0.8826 -0.1505  0.0842
  157SAPE  C31017580   4.582   1.464   9.430  0.0988 -0.4141 -0.4659
  157SAPE  H10X17581   4.609   1.363   9.468  1.7706  0.0740 -0.3166
  157SAPE  H10Y17582   4.617   1.541   9.502  0.5119 -0.4800 -0.5939
  157SAPE  C31117583   4.636   1.496   9.288  0.4531 -0.0089  0.0774
  157SAPE  H11X17584   4.745   1.521   9.287  0.2946  0.6735 -0.3280
  157SAPE  H11Y17585   4.589   1.595   9.270 -0.7955  0.1134  3.3018
  157SAPE  C31217586   4.604   1.403   9.172 -0.3406  0.5038 -0.4387
  157SAPE  H12X17587   4.494   1.388   9.177 -0.5665  2.1281  0.0938
  157SAPE  H12Y17588   4.666   1.312   9.185 -2.1551 -0.6270  0.8113
  157SAPE  C31317589   4.621   1.476   9.042  0.5738  0.3935 -0.0077
  157SAPE  H13X17590   4.714   1.536   9.035 -0.0821  1.2490 -2.6245
  157SAPE  H13Y17591   4.538   1.546   9.015  1.0727  0.9343 -0.1626
  157SAPE  C31417592   4.627   1.380   8.921 -0.2053  0.3607 -0.1177
  157SAPE  H14X17593   4.532   1.328   8.898 -0.4318 -0.0186  1.5135
  157SAPE  H14Y17594   4.703   1.299   8.929 -1.0761 -0.5353 -0.7732
  157SAPE  C31517595   4.653   1.463   8.797 -0.1937 -0.0244 -0.7604
  157SAPE  H15X17596   4.754   1.503   8.820  0.0268 -1.7501  1.7592
  157SAPE  H15Y17597   4.577   1.544   8.791  0.9764  1.0906 -0.9563
  157SAPE  C31617598   4.652   1.391   8.666  0.4817  0.1833 -0.9234
  157SAPE  H16X17599   4.551   1.343   8.666  0.6767 -0.2549 -0.1636
  157SAPE  H16Y17600   4.731   1.312   8.671  0.0451 -0.1928  1.5052
  157SAPE  C31717601   4.671   1.489   8.549 -0.4890  0.5203 -0.1572
  157SAPE  H17X17602   4.774   1.529   8.539 -0.9441  1.3407 -1.8153
  157SAPE  H17Y17603   4.600   1.572   8.564 -1.6725 -0.4563 -0.1674
  157SAPE  C31817604   4.640   1.431   8.415 -0.2242  0.7223  0.4187
  157SAPE  H18X17605   4.531   1.426   8.392 -0.6882 -3.7647  2.6775
  157SAPE  H18Y17606   4.678   1.330   8.390 -1.9919  0.4152 -1.3295
  157SAPE  H18Z17607   4.681   1.503   8.340 -1.5609 -0.4393 -1.5104
  158SAPE     N17608   4.826   2.168  10.620  0.0861 -0.3150  0.5617
  158SAPE   HN117609   4.781   2.252  10.662 -1.5450 -0.6672 -0.3903
  158SAPE   HN217610   4.821   2.084  10.681  0.1044  0.1676  1.2405
  158SAPE   HN317611   4.927   2.188  10.609 -0.5289  2.0746 -1.9040
  158SAPE   C1217612   4.769   2.149  10.486  0.5740 -0.2226 -0.0170
  158SAPE  H12A17613   4.826   2.066  10.438  0.0485 -0.8166  0.3788
  158SAPE  H12B17614   4.778   2.247  10.435 -1.4677 -0.8354 -1.7196
  158SAPE   C1117615   4.618   2.122  10.492  0.8214  0.3762 -0.2265
  158SAPE  H11A17616   4.590   2.023  10.534  2.2609 -0.3121 -0.8125
  158SAPE  H11B17617   4.575   2.122  10.389 -0.8118  2.3361  0.3957
  158SAPE     P17618   4.437   2.203  10.661 -0.1416  0.3506  0.1509
  158SAPE   O1317619   4.479   2.111  10.777 -0.1159 -0.2307  0.4386
  158SAPE   O1417620   4.374   2.334  10.698  0.1897  0.6136  0.1815
  158SAPE   O1217621   4.560   2.226  10.562  0.4262 -0.4938 -0.3971
  158SAPE   O1117622   4.326   2.123  10.581  0.4422 -0.8088 -0.3929
  158SAPE    C117623   4.283   2.179  10.456  0.2270 -0.6236 -0.1739
  158SAPE    HA17624   4.310   2.284  10.431  1.0862 -1.0324 -1.0509
  158SAPE    HB17625   4.305   2.117  10.366  0.4384 -0.4379 -0.2503
  158SAPE    C217626   4.124   2.185  10.445 -0.3800 -0.0384 -0.7514
  158SAPE    HS17627   4.084   2.234  10.536  2.1407 -0.2168  0.5458
  158SAPE   O2117628   4.080   2.047  10.431  0.5341 -0.2868  0.3211
  158SAPE   C2117629   3.953   2.024  10.455 -0.0445 -0.8540  0.5427
  158SAPE   O2217630   3.869   2.100  10.502 -0.3732  0.0452 -0.2662
  158SAPE   C2217631   3.918   1.885  10.392  0.1334 -0.1661  0.6189
  158SAPE   H2R17632   3.983   1.848  10.310 -1.5192 -3.1992  0.5177
  158SAPE   H2S17633   3.924   1.812  10.476  0.5093 -1.3069 -0.3598
  158SAPE    C317634   4.080   2.268  10.321 -0.3062 -0.5556 -0.1826
  158SAPE    HX17635   4.121   2.370  10.341 -0.6276 -0.3700 -0.4608
  158SAPE    HY17636   3.970   2.283  10.316 -0.5436 -2.5352 -1.9658
  158SAPE   O3117637   4.159   2.212  10.213 -0.0936  0.0015  0.1905
  158SAPE   C3117638   4.083   2.146  10.122  0.4118  0.3838 -0.7199
  158SAPE   O3217639   3.963   2.127  10.126 -0.4844  0.2697  0.2679
  158SAPE   C3217640   4.176   2.098  10.007  0.6202 -0.2371 -0.1296
  158SAPE   H2X17641   4.267   2.053  10.052  1.1211  1.5993  0.7724
  158SAPE   H2Y17642   4.207   2.196   9.965  0.9670  0.2144  1.1276
  158SAPE   C2317643   3.773   1.883  10.326  0.0379 -1.0784  0.2396
  158SAPE   H3R17644   3.775   1.937  10.228 -1.0918 -0.5739  0.4818
  158SAPE   H3S17645   3.708   1.941  10.395  3.2398  3.2096  0.1248
  158SAPE   C2417646   3.719   1.741  10.318  0.3019 -0.3726 -0.5285
  158SAPE   H4R17647   3.740   1.696  10.417 -0.8541  1.0362  0.3990
  158SAPE   H4S17648   3.782   1.697  10.237 -0.5296  1.2344 -2.1025
  158SAPE   C2517649   3.575   1.726  10.273 -0.1150 -0.4439 -0.1180
  158SAPE   H5R17650   3.506   1.720  10.358 -0.7094 -0.8175 -0.6140
  158SAPE   C2617651   3.532   1.739  10.143  0.6996  0.4432  0.1331
  158SAPE   H6R17652   3.422   1.730  10.140  0.5564  1.8298  0.3263
  158SAPE   C2717653   3.612   1.762  10.017  0.0961  0.4091  1.7368
  158SAPE   H7R17654   3.620   1.671   9.954  1.6554  1.5370  0.1993
  158SAPE   H7S17655   3.717   1.797  10.032  0.9554 -0.1625 -1.9770
  158SAPE   C2817656   3.541   1.854   9.917  0.8014  0.2696  0.1827
  158SAPE   H8R17657   3.434   1.864   9.941  1.1554 -0.5797  2.2960
  158SAPE   C2917658   3.589   1.903   9.800 -0.4389 -0.2995  0.6447
  158SAPE   H9R17659   3.521   1.947   9.726  1.0790 -2.8229 -2.4820
  158SAPE  C21017660   3.731   1.887   9.751  0.1961 -0.6920 -0.3379
  158SAPE  H10R17661   3.743   1.789   9.700  0.4766 -0.1725 -1.2932
  158SAPE  H10S17662   3.814   1.892   9.825  1.1971 -1.6359 -1.3682
  158SAPE  C21117663   3.768   1.979   9.639  0.3886  0.5825 -0.3083
  158SAPE  H11R17664   3.821   2.071   9.668 -0.3365  0.6513  0.9206
  158SAPE  C21217665   3.748   1.963   9.507 -0.1884  0.0939  0.5486
  158SAPE  H12R17666   3.795   2.036   9.439  0.9868 -0.9482  0.2133
  158SAPE  C21317667   3.686   1.843   9.435  0.1573 -0.1072 -0.3493
  158SAPE  H13R17668   3.654   1.765   9.508  1.3387 -1.7743 -1.5348
  158SAPE  H13S17669   3.754   1.803   9.356 -0.0977  1.4581 -1.3965
  158SAPE  C21417670   3.574   1.893   9.347 -0.5691  0.4080  0.2000
  158SAPE  H14R17671   3.481   1.905   9.404 -0.1690  2.2580  0.5478
  158SAPE  C21517672   3.578   1.930   9.220  0.4195  0.1653  0.6433
  158SAPE  H15R17673   3.485   1.970   9.177  0.9673  1.2203  0.4126
  158SAPE  C21617674   3.695   1.922   9.121  0.6944 -0.2162  0.1786
  158SAPE  H16R17675   3.704   1.817   9.088 -0.5002 -0.4484  0.5644
  158SAPE  H16S17676   3.784   1.936   9.186 -0.2817  1.2965  1.2627
  158SAPE  C21717677   3.699   2.031   9.006 -0.0182 -0.0458  0.7138
  158SAPE  H17R17678   3.766   2.114   9.036 -1.2039  1.6759 -1.1694
  158SAPE  H17S17679   3.601   2.071   8.972 -0.6637 -1.2734  1.0889
  158SAPE  C21817680   3.763   1.974   8.869  0.2086  0.2405 -0.3655
  158SAPE  H18R17681   3.830   1.891   8.900 -1.0596 -0.1793  1.4364
  158SAPE  H18S17682   3.826   2.061   8.843 -1.0256  1.1254 -0.4840
  158SAPE  C21917683   3.676   1.934   8.752  0.0327  0.4544 -0.1261
  158SAPE  H19R17684   3.582   1.992   8.764  0.9633  1.6969  1.8396
  158SAPE  H19S17685   3.639   1.831   8.769  0.9677  0.3988  1.8725
  158SAPE  C22017686   3.736   1.949   8.608 -0.0988  0.2301  0.2520
  158SAPE  H20R17687   3.841   1.914   8.606  0.1472  0.8805 -2.6933
  158SAPE  H20S17688   3.740   2.059   8.591 -0.1069  0.3301  0.8711
  158SAPE  H20T17689   3.667   1.908   8.531  0.7091 -2.3218  0.7940
  158SAPE   C3317690   4.103   2.005   9.902  0.0934  0.1394 -0.3112
  158SAPE   H3X17691   4.014   2.055   9.857  0.4460  1.0863  0.0204
  158SAPE   H3Y17692   4.055   1.928   9.966 -0.7302 -1.2723 -2.5183
  158SAPE   C3417693   4.191   1.932   9.797  0.3125  0.5720  0.0265
  158SAPE   H4X17694   4.131   1.860   9.736  0.1862  0.1589  0.6329
  158SAPE   H4Y17695   4.279   1.878   9.837  1.1587 -0.6009 -3.1269
  158SAPE   C3517696   4.238   2.021   9.684  0.0243  0.2676  0.2547
  158SAPE   H5X17697   4.331   2.076   9.712  0.8076 -0.4649 -0.8294
  158SAPE   H5Y17698   4.160   2.096   9.661  0.1086 -0.3842 -2.5257
  158SAPE   C3617699   4.276   1.955   9.551 -0.1987  0.0831  0.5475
  158SAPE   H6X17700   4.191   1.898   9.507 -0.9362  0.1108  1.8783
  158SAPE   H6Y17701   4.354   1.880   9.576  0.4189  0.8548  1.0181
  158SAPE   C3717702   4.347   2.047   9.448 -0.6668  0.1970  0.7335
  158SAPE   H7X17703   4.436   2.098   9.490  0.3948 -1.6275  0.7928
  158SAPE   H7Y17704   4.265   2.121   9.432 -2.0501 -0.4649  3.8055
  158SAPE   C3817705   4.394   1.963   9.320  1.6592 -0.0686 -0.7711
  158SAPE   H8X17706   4.303   1.930   9.266  0.7674  1.0442  0.0262
  158SAPE   H8Y17707   4.437   1.869   9.360  0.5696 -0.6065 -0.8402
  158SAPE   C3917708   4.483   2.028   9.215  0.1811  0.2845 -0.0661
  158SAPE   H9X17709   4.581   2.054   9.259 -0.2156 -2.7593  3.0732
  158SAPE   H9Y17710   4.440   2.117   9.164 -1.4274 -1.3917 -1.8077
  158SAPE  C31017711   4.498   1.919   9.113 -0.2041  0.8408  0.4960
  158SAPE  H10X17712   4.406   1.905   9.053  0.2890  1.8074 -0.5162
  158SAPE  H10Y17713   4.526   1.821   9.158 -0.0085  1.1229  0.9974
  158SAPE  C31117714   4.604   1.959   9.012  0.4807 -0.0728  0.0298
  158SAPE  H11X17715   4.706   1.953   9.056 -0.1519  1.2649  1.8174
  158SAPE  H11Y17716   4.589   2.066   8.985  2.1556  0.9843  2.7687
  158SAPE  C31217717   4.599   1.884   8.879 -0.5414  0.2435 -0.8231
  158SAPE  H12X17718   4.495   1.881   8.840 -0.1419  0.1287 -1.9305
  158SAPE  H12Y17719   4.625   1.777   8.891 -1.0626  0.1881 -0.1449
  158SAPE  C31317720   4.673   1.964   8.769  0.4675 -0.1935  0.0730
  158SAPE  H13X17721   4.776   1.966   8.810  0.7935 -2.5521 -0.4780
  158SAPE  H13Y17722   4.629   2.066   8.766  1.8970  0.4257 -0.9224
  158SAPE  C31417723   4.662   1.893   8.636 -0.5265 -0.3038 -0.3811
  158SAPE  H14X17724   4.675   1.784   8.653  2.5508 -0.1747 -1.4222
  158SAPE  H14Y17725   4.738   1.933   8.566  0.2168  0.3736  0.7813
  158SAPE  C31517726   4.526   1.922   8.570  0.4358  0.3959  0.1720
  158SAPE  H15X17727   4.501   2.029   8.552 -1.5491  0.0867  0.9160
  158SAPE  H15Y17728   4.454   1.877   8.640  0.4933  0.9381  0.5903
  158SAPE  C31617729   4.510   1.855   8.434 -0.3897  0.8469 -0.6166
  158SAPE  H16X17730   4.526   1.746   8.443 -0.9789  0.9159  2.1062
  158SAPE  H16Y17731   4.593   1.897   8.373  2.6449  0.6715  3.0096
  158SAPE  C31717732   4.373   1.876   8.369 -0.3436 -0.3446 -0.1028
  158SAPE  H17X17733   4.355   1.986   8.375 -0.0309 -0.1684 -1.8909
  158SAPE  H17Y17734   4.293   1.831   8.432 -1.6698 -0.7108 -1.9565
  158SAPE  C31817735   4.357   1.826   8.230  0.0084 -0.0351  0.3441
  158SAPE  H18X17736   4.419   1.872   8.149 -4.1079 -2.2626 -4.6492
  158SAPE  H18Y17737   4.257   1.840   8.184  0.5782  3.2374 -0.1831
  158SAPE  H18Z17738   4.384   1.718   8.225 -0.4583 -0.1139 -0.9235
  159SAPE     N17739   4.619   5.614   6.519  0.2504 -0.5952 -0.5146
  159SAPE   HN117740   4.690   5.540   6.533  3.0286  1.7587 -1.1399
  159SAPE   HN217741   4.520   5.581   6.520 -0.7889  2.2407  0.0588
  159SAPE   HN317742   4.652   5.648   6.427  0.0431 -0.7040 -0.6284
  159SAPE   C1217743   4.649   5.728   6.618 -0.2332  0.4525 -0.0546
  159SAPE  H12A17744   4.648   5.682   6.719 -0.0506 -2.0257 -1.0915
  159SAPE  H12B17745   4.565   5.799   6.606 -0.5390  0.1260  0.1294
  159SAPE   C1117746   4.784   5.800   6.602  0.4183  0.3163  0.0446
  159SAPE  H11A17747   4.834   5.820   6.699  0.1700  1.6740 -0.0858
  159SAPE  H11B17748   4.761   5.895   6.549  0.3294  0.9119  1.1376
  159SAPE     P17749   5.014   5.791   6.471 -0.5705  0.2307  0.0434
  159SAPE   O1317750   5.088   5.686   6.394  0.3973 -0.1371  0.1273
  159SAPE   O1417751   4.979   5.921   6.401 -0.2947 -0.8906 -0.1489
  159SAPE   O1217752   4.878   5.718   6.525  0.0627  0.2955  0.3644
  159SAPE   O1117753   5.067   5.821   6.615 -0.2683  0.0913 -0.7104
  159SAPE    C117754   5.143   5.716   6.676  0.6524 -0.4141 -0.0783
  159SAPE    HA17755   5.223   5.679   6.608  1.1873 -0.0419  0.3457
  159SAPE    HB17756   5.209   5.756   6.756  0.5559 -1.7104  0.6709
  159SAPE    C217757   5.062   5.610   6.756  0.1496 -0.6570 -0.0802
  159SAPE    HS17758   4.985   5.579   6.682  0.4175  0.9576 -1.0835
  159SAPE   O2117759   5.001   5.683   6.870 -0.3747 -0.1040  0.2764
  159SAPE   C2117760   4.895   5.623   6.921 -0.7412 -0.3903 -0.4817
  159SAPE   O2217761   4.843   5.526   6.877  0.3286  0.4188  0.6114
  159SAPE   C2217762   4.848   5.705   7.047 -0.3491  0.3915 -0.5127
  159SAPE   H2R17763   4.939   5.699   7.111 -1.0473  0.9322  0.5597
  159SAPE   H2S17764   4.837   5.810   7.013  0.3842  1.5193  2.4224
  159SAPE    C317765   5.146   5.488   6.802  0.0772  0.2642 -0.1535
  159SAPE    HX17766   5.178   5.442   6.706  0.7677 -0.9354  0.6309
  159SAPE    HY17767   5.079   5.427   6.866  1.6116 -1.0879  0.2206
  159SAPE   O3117768   5.250   5.520   6.897  0.4928 -0.8351  0.4135
  159SAPE   C3117769   5.377   5.539   6.859  0.9758 -0.1480 -0.3973
  159SAPE   O3217770   5.419   5.563   6.750 -0.3163 -0.1680 -0.1942
  159SAPE   C3217771   5.454   5.530   6.988 -0.8800 -0.0932 -0.1075
  159SAPE   H2X17772   5.472   5.627   7.040  2.0405 -0.7902  0.3119
  159SAPE   H2Y17773   5.552   5.494   6.952  0.0122  1.7502  0.3286
  159SAPE   C2317774   4.717   5.664   7.111  0.1922  0.2379 -0.4260
  159SAPE   H3R17775   4.636   5.698   7.043 -1.1316  1.4893  1.6702
  159SAPE   H3S17776   4.717   5.722   7.206  0.3557  1.3055 -1.0563
  159SAPE   C2417777   4.706   5.518   7.161 -0.1461 -0.0822  0.3214
  159SAPE   H4R17778   4.744   5.456   7.078  0.6608  2.0731 -0.9893
  159SAPE   H4S17779   4.600   5.485   7.162 -1.2825  3.2165  0.1032
  159SAPE   C2517780   4.783   5.486   7.288  0.8787  0.3260 -0.0147
  159SAPE   H5R17781   4.882   5.531   7.303  0.8239  0.3291  0.3452
  159SAPE   C2617782   4.729   5.416   7.388 -0.9714 -0.0103 -0.1970
  159SAPE   H6R17783   4.797   5.401   7.473 -0.8421 -1.0025 -0.4576
  159SAPE   C2717784   4.590   5.353   7.404  0.4300 -0.5062  0.2294
  159SAPE   H7R17785   4.533   5.356   7.309 -0.2274 -0.8324  0.6024
  159SAPE   H7S17786   4.528   5.412   7.476  1.4586  1.9846 -0.8156
  159SAPE   C2817787   4.597   5.203   7.432 -0.8975  0.0350 -0.6399
  159SAPE   H8R17788   4.584   5.134   7.348 -1.2122 -0.3423 -0.2845
  159SAPE   C2917789   4.644   5.149   7.549  0.4664 -0.1553 -0.2846
  159SAPE   H9R17790   4.637   5.041   7.565  2.0842 -0.2674 -0.2458
  159SAPE  C21017791   4.688   5.223   7.674  0.4118 -0.1197  0.6305
  159SAPE  H10R17792   4.738   5.321   7.656 -0.4994  0.5810  1.7713
  159SAPE  H10S17793   4.756   5.156   7.730 -1.4018 -2.0888  0.5954
  159SAPE  C21117794   4.563   5.265   7.745 -0.1380  0.9066  0.5240
  159SAPE  H11R17795   4.494   5.322   7.681  0.0018  1.9876  1.2994
  159SAPE  C21217796   4.529   5.228   7.872 -0.9107  0.3109 -0.2404
  159SAPE  H12R17797   4.433   5.257   7.917 -0.6989  1.9113 -0.7600
  159SAPE  C21317798   4.621   5.155   7.961 -0.2125  0.3538  0.1561
  159SAPE  H13R17799   4.664   5.064   7.914  1.0450  0.8313  0.3486
  159SAPE  H13S17800   4.558   5.112   8.043  0.7564 -1.5854 -0.0560
  159SAPE  C21417801   4.746   5.220   8.013 -0.8578  0.0327 -0.3917
  159SAPE  H14R17802   4.763   5.311   7.954 -0.7142 -1.3146 -2.5345
  159SAPE  C21517803   4.832   5.185   8.116  0.1870  0.0434  1.0049
  159SAPE  H15R17804   4.923   5.239   8.143 -0.0401  1.5520 -0.9973
  159SAPE  C21617805   4.807   5.062   8.200  0.0113  0.1763  0.1515
  159SAPE  H16R17806   4.869   4.977   8.164  0.4198  0.1619  0.8664
  159SAPE  H16S17807   4.699   5.042   8.184  0.5960 -1.8108 -1.7823
  159SAPE  C21717808   4.843   5.071   8.353  0.6366 -0.9590 -0.2068
  159SAPE  H17R17809   4.954   5.076   8.357  0.7031  4.1309 -0.9087
  159SAPE  H17S17810   4.822   4.975   8.404  1.4624 -1.4838 -0.8236
  159SAPE  C21817811   4.781   5.199   8.426 -0.7418  0.2914 -0.0684
  159SAPE  H18R17812   4.671   5.188   8.415 -0.6948  0.3309 -0.6298
  159SAPE  H18S17813   4.816   5.294   8.380  0.3195  0.7900  1.6636
  159SAPE  C21917814   4.809   5.211   8.578 -0.5312  0.5208 -0.1951
  159SAPE  H19R17815   4.755   5.132   8.633 -0.5455 -1.6957 -3.1844
  159SAPE  H19S17816   4.762   5.308   8.608  0.2281  0.5595  0.9211
  159SAPE  C22017817   4.955   5.217   8.619 -0.0286  0.6766  0.3557
  159SAPE  H20R17818   5.011   5.124   8.595 -2.9603 -1.4266  1.2393
  159SAPE  H20S17819   4.961   5.241   8.728 -1.6541  1.2125  0.3582
  159SAPE  H20T17820   5.016   5.300   8.576  0.8004  0.3609  0.8788
  159SAPE   C3317821   5.407   5.425   7.096 -0.1042  0.1325 -0.3787
  159SAPE   H3X17822   5.417   5.324   7.052  0.9281 -1.3721  2.9440
  159SAPE   H3Y17823   5.301   5.438   7.127  0.3584  0.1667  1.3271
  159SAPE   C3417824   5.492   5.437   7.228  0.0889 -0.1613 -0.3214
  159SAPE   H4X17825   5.490   5.541   7.266  1.7421 -1.0758  2.5842
  159SAPE   H4Y17826   5.602   5.428   7.210  0.4985 -0.2340  1.9162
  159SAPE   C3517827   5.441   5.356   7.348  0.7011  0.1389 -0.0549
  159SAPE   H5X17828   5.466   5.249   7.332 -0.8837 -0.8408  3.0435
  159SAPE   H5Y17829   5.330   5.368   7.346  0.6640 -0.2041 -1.4394
  159SAPE   C3617830   5.501   5.417   7.482 -0.0623 -0.6277 -0.2002
  159SAPE   H6X17831   5.477   5.525   7.492 -2.4382 -1.2199  1.2167
  159SAPE   H6Y17832   5.611   5.415   7.466  0.4333  0.2370  2.5771
  159SAPE   C3717833   5.475   5.345   7.607  0.8462 -0.0328  0.3100
  159SAPE   H7X17834   5.515   5.241   7.602 -1.3564 -0.9506  0.5231
  159SAPE   H7Y17835   5.366   5.327   7.618  0.3622  1.4676 -1.5721
  159SAPE   C3817836   5.534   5.413   7.735  0.1638  0.8216  0.1027
  159SAPE   H8X17837   5.468   5.494   7.773  1.6511  0.7476  3.1134
  159SAPE   H8Y17838   5.635   5.455   7.716 -0.5968  2.4488 -0.5223
  159SAPE   C3917839   5.549   5.309   7.852 -0.4706  0.2330  0.6655
  159SAPE   H9X17840   5.617   5.231   7.813 -1.9101  0.0907 -1.7742
  159SAPE   H9Y17841   5.456   5.250   7.862  0.1635 -1.3623 -1.8338
  159SAPE  C31017842   5.592   5.376   7.981 -0.4462  0.5536  0.8469
  159SAPE  H10X17843   5.522   5.458   8.008  0.7827  1.5626  1.0616
  159SAPE  H10Y17844   5.689   5.425   7.959 -0.4672 -0.1025 -0.8448
  159SAPE  C31117845   5.616   5.270   8.089  0.3429  0.4890  0.1769
  159SAPE  H11X17846   5.683   5.195   8.042  1.5535 -0.6691  3.4699
  159SAPE  H11Y17847   5.525   5.215   8.123  0.4008  1.0909  1.3425
  159SAPE  C31217848   5.681   5.308   8.225 -0.0802 -0.0923 -0.3736
  159SAPE  H12X17849   5.630   5.399   8.266 -0.8511 -0.2768 -0.8983
  159SAPE  H12Y17850   5.780   5.349   8.198 -0.0823  0.5206  0.5021
  159SAPE  C31317851   5.689   5.191   8.327 -0.0576  0.0055  0.4447
  159SAPE  H13X17852   5.744   5.105   8.283 -1.8460 -0.7808 -0.3094
  159SAPE  H13Y17853   5.584   5.158   8.340 -0.9634  2.4263 -0.2731
  159SAPE  C31417854   5.744   5.215   8.470 -0.5965 -0.5451  1.0693
  159SAPE  H14X17855   5.720   5.126   8.532 -0.4242 -1.2938  0.0941
  159SAPE  H14Y17856   5.684   5.298   8.513  1.0132  1.0699  0.3299
  159SAPE  C31517857   5.890   5.266   8.462  0.1818 -0.2276 -0.1715
  159SAPE  H15X17858   5.902   5.338   8.379 -1.6001 -3.1088 -3.2077
  159SAPE  H15Y17859   5.950   5.181   8.422  0.6575 -0.6462  1.3700
  159SAPE  C31617860   5.942   5.299   8.604  0.7037 -0.0565  0.4653
  159SAPE  H16X17861   5.928   5.219   8.680 -1.4707 -2.4276 -2.2044
  159SAPE  H16Y17862   5.885   5.384   8.648  1.3417  1.0250 -0.7157
  159SAPE  C31717863   6.090   5.341   8.593 -0.2330  0.2259  0.0243
  159SAPE  H17X17864   6.096   5.422   8.669 -1.3562  1.3139 -0.9884
  159SAPE  H17Y17865   6.114   5.366   8.487  0.3368 -2.8903 -0.6719
  159SAPE  C31817866   6.186   5.230   8.638 -0.3180 -0.3124  0.0252
  159SAPE  H18X17867   6.182   5.134   8.584 -0.2962 -1.6171  2.2280
  159SAPE  H18Y17868   6.160   5.201   8.742  1.5178 -0.5280  0.4543
  159SAPE  H18Z17869   6.292   5.263   8.642  0.5440 -2.5379 -2.0202
  160SAPE     N17870   3.279   6.021   6.252 -0.5190 -0.6878 -0.4264
  160SAPE   HN117871   3.201   6.090   6.249  0.0343  0.1937  2.6854
  160SAPE   HN217872   3.298   5.978   6.159  0.6658 -0.7741 -0.1609
  160SAPE   HN317873   3.259   5.942   6.316  1.2632 -0.6923  0.1938
  160SAPE   C1217874   3.403   6.097   6.313  1.2050 -0.1409  0.1594
  160SAPE  H12A17875   3.377   6.125   6.417  0.2596  0.2182 -0.1662
  160SAPE  H12B17876   3.431   6.189   6.256  1.3954  0.5737  1.3788
  160SAPE   C1117877   3.528   6.012   6.317  0.1751 -0.0177  0.3886
  160SAPE  H11A17878   3.610   6.074   6.360 -1.4281  2.0368  0.6334
  160SAPE  H11B17879   3.553   5.973   6.216  0.0649  1.6575 -0.3090
  160SAPE     P17880   3.576   5.842   6.523 -0.2132  0.2337 -0.2788
  160SAPE   O1317881   3.488   5.752   6.607 -0.2144 -0.0853  0.8557
  160SAPE   O1417882   3.695   5.778   6.466  0.0334  0.2068  0.3404
  160SAPE   O1217883   3.495   5.895   6.401 -0.1798  0.2135  0.0403
  160SAPE   O1117884   3.628   5.966   6.605 -0.0506  0.1200 -0.0620
  160SAPE    C117885   3.711   5.943   6.723  0.6913  0.1396  0.1706
  160SAPE    HA17886   3.771   5.851   6.710 -1.5119 -1.5771  1.4164
  160SAPE    HB17887   3.780   6.030   6.724  1.1335 -0.1412 -1.5126
  160SAPE    C217888   3.619   5.926   6.848  0.3266 -0.1831  0.5951
  160SAPE    HS17889   3.513   5.938   6.817  0.5278  0.3817  0.1293
  160SAPE   O2117890   3.647   6.028   6.948  0.4343 -0.3190 -0.5107
  160SAPE   C2117891   3.600   6.142   6.925  0.8888  0.3122 -0.4484
  160SAPE   O2217892   3.523   6.181   6.837 -0.3093 -0.0680  0.5841
  160SAPE   C2217893   3.647   6.230   7.045 -0.7095  0.2757  0.0900
  160SAPE   H2R17894   3.620   6.168   7.133 -1.5624  2.2614  1.2696
  160SAPE   H2S17895   3.757   6.248   7.039 -0.4192 -1.5526 -1.6206
  160SAPE    C317896   3.634   5.784   6.901  0.7906 -0.3447 -0.3522
  160SAPE    HX17897   3.742   5.769   6.924 -0.0544 -0.9467  3.8735
  160SAPE    HY17898   3.596   5.710   6.828 -2.8640 -0.3367  1.3548
  160SAPE   O3117899   3.564   5.773   7.026 -0.3941  0.6537  0.3569
  160SAPE   C3117900   3.553   5.650   7.075  0.4483 -0.1141  0.7809
  160SAPE   O3217901   3.604   5.547   7.036  0.3778  0.4302 -0.1210
  160SAPE   C3217902   3.468   5.654   7.200 -0.2907  0.0715 -0.3785
  160SAPE   H2X17903   3.466   5.758   7.239  2.3713 -0.1593  0.5778
  160SAPE   H2Y17904   3.526   5.589   7.269 -1.3457 -0.9540 -0.4281
  160SAPE   C2317905   3.579   6.362   7.048  0.0290 -0.8563 -0.1817
  160SAPE   H3R17906   3.468   6.371   7.052  0.1274  0.7249 -0.4012
  160SAPE   H3S17907   3.617   6.418   6.959 -1.7034 -1.0914 -1.1261
  160SAPE   C2417908   3.641   6.438   7.175  0.3440 -0.6808  0.4011
  160SAPE   H4R17909   3.621   6.546   7.160 -0.4723 -1.0258 -1.2171
  160SAPE   H4S17910   3.752   6.435   7.174  0.4253  1.2513  0.1129
  160SAPE   C2517911   3.581   6.381   7.299  0.3285 -0.5183  0.2490
  160SAPE   H5R17912   3.480   6.415   7.323 -0.1309 -0.9958 -0.9194
  160SAPE   C2617913   3.637   6.302   7.390  0.0920 -0.0547 -0.1212
  160SAPE   H6R17914   3.562   6.273   7.464 -1.6266 -2.7618 -2.6716
  160SAPE   C2717915   3.769   6.234   7.402 -0.6387 -0.3339 -0.5563
  160SAPE   H7R17916   3.846   6.303   7.362 -1.6292  0.5322 -1.0241
  160SAPE   H7S17917   3.767   6.152   7.327  1.5589 -1.3855  0.4417
  160SAPE   C2817918   3.795   6.174   7.543 -0.2327  0.5415 -0.6060
  160SAPE   H8R17919   3.752   6.075   7.568  0.8128 -0.1906 -1.6031
  160SAPE   C2917920   3.865   6.227   7.648 -0.1604  0.3345 -0.3846
  160SAPE   H9R17921   3.873   6.172   7.743 -3.1732 -0.0053 -0.2529
  160SAPE  C21017922   3.932   6.365   7.643 -0.7270  0.6984 -0.2481
  160SAPE  H10R17923   3.982   6.371   7.544  0.8038  0.4396  0.4727
  160SAPE  H10S17924   4.024   6.368   7.705  1.1114  1.2222 -2.8305
  160SAPE  C21117925   3.851   6.486   7.666 -0.1626  0.5394 -0.2922
  160SAPE  H11R17926   3.820   6.528   7.568  1.8926  0.8371 -0.8637
  160SAPE  C21217927   3.811   6.539   7.779  0.2966  0.7003  0.2380
  160SAPE  H12R17928   3.758   6.636   7.784 -1.2567  0.1395 -3.0343
  160SAPE  C21317929   3.846   6.476   7.914 -0.2251 -0.6259 -0.2170
  160SAPE  H13R17930   3.949   6.434   7.910  1.0802  2.0155  2.2136
  160SAPE  H13S17931   3.778   6.388   7.926  3.0604 -3.1049  2.2244
  160SAPE  C21417932   3.832   6.570   8.030 -0.4538 -0.2424  0.1178
  160SAPE  H14R17933   3.757   6.650   8.018 -2.6784 -1.9834  1.6011
  160SAPE  C21517934   3.908   6.570   8.138 -0.2198 -0.6531 -0.1560
  160SAPE  H15R17935   3.889   6.647   8.213 -1.2101 -1.3458  0.3139
  160SAPE  C21617936   4.018   6.479   8.173 -0.2746 -0.4182  0.1563
  160SAPE  H16R17937   4.044   6.411   8.090  0.9229  1.1875 -0.8523
  160SAPE  H16S17938   3.980   6.420   8.260 -3.0990  0.0561 -0.6613
  160SAPE  C21717939   4.144   6.566   8.211  0.0841  0.5196  1.1218
  160SAPE  H17R17940   4.168   6.641   8.133 -1.3923  2.5246  2.4897
  160SAPE  H17S17941   4.234   6.501   8.213  0.3449  0.8215  0.0128
  160SAPE  C21817942   4.156   6.630   8.351 -0.2735 -0.5896  1.0524
  160SAPE  H18R17943   4.080   6.711   8.352  0.6418  0.2835  0.7712
  160SAPE  H18S17944   4.255   6.678   8.361 -0.6795  1.8630 -3.7542
  160SAPE  C21917945   4.128   6.535   8.476  0.5813 -0.7231 -0.2634
  160SAPE  H19R17946   4.033   6.484   8.451 -0.8417  2.2982 -1.5396
  160SAPE  H19S17947   4.107   6.603   8.561  1.8876 -2.2503  1.3586
  160SAPE  C22017948   4.236   6.433   8.496  0.6403  0.7165 -0.5983
  160SAPE  H20R17949   4.263   6.382   8.401 -1.2494  0.3931 -1.0003
  160SAPE  H20S17950   4.193   6.355   8.563 -0.3476  2.2096  0.5827
  160SAPE  H20T17951   4.329   6.476   8.538  1.0500 -1.4778  0.8751
  160SAPE   C3317952   3.326   5.605   7.172  0.3280 -0.1703 -0.2119
  160SAPE   H3X17953   3.326   5.507   7.120  2.5814 -0.4628  0.2245
  160SAPE   H3Y17954   3.273   5.673   7.102 -2.2581 -0.1511  1.6085
  160SAPE   C3417955   3.239   5.598   7.294 -0.2319 -0.2104  0.3922
  160SAPE   H4X17956   3.145   5.540   7.279 -0.5669  0.0147  1.5338
  160SAPE   H4Y17957   3.213   5.701   7.325  1.0644  0.3427 -0.2625
  160SAPE   C3517958   3.300   5.519   7.413  0.0610 -0.1457  0.1562
  160SAPE   H5X17959   3.383   5.576   7.458 -1.4380  0.4790  2.2691
  160SAPE   H5Y17960   3.330   5.418   7.376  0.2642 -0.4263  1.0758
  160SAPE   C3617961   3.209   5.488   7.536 -0.5774 -0.1763 -0.2163
  160SAPE   H6X17962   3.147   5.402   7.505 -1.1360  0.2511 -0.3033
  160SAPE   H6Y17963   3.139   5.572   7.554  0.4022  1.3027 -2.7693
  160SAPE   C3717964   3.296   5.465   7.659 -0.5973  0.1401  0.8302
  160SAPE   H7X17965   3.328   5.562   7.703 -1.0717 -0.1775  1.9157
  160SAPE   H7Y17966   3.379   5.398   7.627  0.3219  1.6901 -0.1594
  160SAPE   C3817967   3.228   5.396   7.776  0.0465 -0.1769 -0.2129
  160SAPE   H8X17968   3.307   5.342   7.833  2.1964  1.3451 -1.5990
  160SAPE   H8Y17969   3.156   5.318   7.742 -0.0893  0.6665 -1.9447
  160SAPE   C3917970   3.174   5.489   7.893 -0.1583 -0.1638 -0.6217
  160SAPE   H9X17971   3.081   5.539   7.857  0.5807  0.6738 -1.4287
  160SAPE   H9Y17972   3.258   5.555   7.924 -0.0311 -0.4376 -0.3931
  160SAPE  C31017973   3.134   5.390   8.003  0.3582  0.4598  0.8036
  160SAPE  H10X17974   3.222   5.324   8.020 -1.7524 -2.9877 -0.5347
  160SAPE  H10Y17975   3.050   5.322   7.975 -0.2853  1.4091  0.3504
  160SAPE  C31117976   3.099   5.462   8.135 -0.0574  0.0515  0.4141
  160SAPE  H11X17977   3.033   5.546   8.105 -0.5643 -0.7470 -0.7630
  160SAPE  H11Y17978   3.193   5.499   8.181 -1.3994  3.0173  0.9643
  160SAPE  C31217979   3.027   5.379   8.232  1.0218  0.0145 -0.1681
  160SAPE  H12X17980   3.086   5.302   8.287  2.2763  1.3940  0.4878
  160SAPE  H12Y17981   2.931   5.349   8.187 -0.3885  2.2846  1.1260
  160SAPE  C31317982   2.988   5.461   8.355  0.1821 -0.0444  0.0689
  160SAPE  H13X17983   3.044   5.556   8.362 -1.6641  1.2011 -1.3057
  160SAPE  H13Y17984   3.016   5.395   8.441  0.7306  0.5722  0.3686
  160SAPE  C31417985   2.847   5.506   8.377 -0.0500 -0.4893 -0.1531
  160SAPE  H14X17986   2.783   5.421   8.344  2.0529 -0.9512 -3.4554
  160SAPE  H14Y17987   2.822   5.597   8.319  1.7306 -1.5764 -2.8359
  160SAPE  C31517988   2.820   5.542   8.524  0.5963  0.7957  0.3675
  160SAPE  H15X17989   2.887   5.629   8.544  2.7381 -0.3864 -1.1710
  160SAPE  H15Y17990   2.841   5.458   8.593 -3.7511 -0.7602  0.0981
  160SAPE  C31617991   2.671   5.562   8.552  0.2016 -0.2186  0.2663
  160SAPE  H16X17992   2.616   5.467   8.531  0.4153 -0.0792 -0.9984
  160SAPE  H16Y17993   2.623   5.637   8.485  0.1492  0.0889  0.6476
  160SAPE  C31717994   2.642   5.598   8.699 -0.3371 -0.4322  0.0020
  160SAPE  H17X17995   2.705   5.685   8.726  1.2253 -0.9075 -1.8587
  160SAPE  H17Y17996   2.670   5.514   8.766 -0.2955 -1.7901 -1.6468
  160SAPE  C31817997   2.500   5.629   8.719 -0.7717 -0.0392  0.0457
  160SAPE  H18X17998   2.465   5.720   8.664 -0.5459 -0.1173 -0.2305
  160SAPE  H18Y17999   2.481   5.651   8.826 -0.6627 -1.9161  0.4788
  160SAPE  H18Z18000   2.436   5.549   8.678 -0.1569  0.3501 -1.7725
  161SAPE     N18001   6.245   4.107   6.171  1.0821  0.4372 -0.3934
  161SAPE   HN118002   6.211   4.045   6.095  1.1344  0.3977 -0.3846
  161SAPE   HN218003   6.212   4.204   6.151 -1.5199 -0.4030 -0.4416
  161SAPE   HN318004   6.349   4.112   6.159  1.1109 -0.4901 -0.6425
  161SAPE   C1218005   6.201   4.050   6.304 -0.7033  0.0541  0.0034
  161SAPE  H12A18006   6.093   4.025   6.300 -1.3091  2.3414  0.6049
  161SAPE  H12B18007   6.199   4.134   6.377 -2.2282 -0.4543  0.5907
  161SAPE   C1118008   6.290   3.935   6.346  0.5565  0.1793 -0.8333
  161SAPE  H11A18009   6.254   3.881   6.436  0.2817  1.5219 -0.1153
  161SAPE  H11B18010   6.386   3.980   6.380 -0.6647  2.6365 -0.4065
  161SAPE     P18011   6.202   3.747   6.201 -0.4797 -0.0802 -0.1729
  161SAPE   O1318012   6.150   3.801   6.074 -0.4010  0.8687  0.5581
  161SAPE   O1418013   6.262   3.612   6.199  0.5910 -0.2302  0.7203
  161SAPE   O1218014   6.317   3.849   6.238  0.3403  0.2232 -0.5286
  161SAPE   O1118015   6.091   3.756   6.314  0.0329 -0.1399 -0.3931
  161SAPE    C118016   6.061   3.655   6.405  0.0265 -0.3151 -0.3168
  161SAPE    HA18017   6.030   3.562   6.353  1.1149 -1.5127  1.0981
  161SAPE    HB18018   6.146   3.624   6.470 -0.4005 -2.7639 -0.8541
  161SAPE    C218019   5.940   3.697   6.499  0.4014  0.7567 -0.1998
  161SAPE    HS18020   5.858   3.690   6.425  0.2979 -1.9825  0.0648
  161SAPE   O2118021   5.957   3.821   6.557  0.0758  0.2770 -0.8792
  161SAPE   C2118022   5.853   3.902   6.547  0.1326  0.1237 -0.1875
  161SAPE   O2218023   5.745   3.879   6.504  0.2571 -0.6543  0.1157
  161SAPE   C2218024   5.891   4.023   6.628  0.2416  0.2185 -0.5162
  161SAPE   H2R18025   5.877   3.991   6.734 -0.5731  1.0487 -0.3637
  161SAPE   H2S18026   6.000   4.044   6.623  0.1512  1.8758  2.1197
  161SAPE    C318027   5.915   3.582   6.603  0.7344 -0.0431  0.5098
  161SAPE    HX18028   5.873   3.493   6.552  2.3947  0.1794 -1.3461
  161SAPE    HY18029   5.830   3.614   6.668 -1.4069 -3.3582 -0.4047
  161SAPE   O3118030   6.038   3.552   6.674  0.2240 -0.3643 -0.0291
  161SAPE   C3118031   6.050   3.612   6.795 -0.3248  0.0892  0.7449
  161SAPE   O3218032   5.982   3.694   6.847 -0.1754  0.0279 -0.1026
  161SAPE   C3218033   6.170   3.552   6.863  0.5844  0.8055  0.6071
  161SAPE   H2X18034   6.246   3.610   6.806 -1.7947  2.5830 -0.9394
  161SAPE   H2Y18035   6.189   3.447   6.831 -2.2342 -0.1602  1.8334
  161SAPE   C2318036   5.809   4.149   6.623  0.1842 -0.0779  0.2796
  161SAPE   H3R18037   5.706   4.109   6.624  0.8199 -1.8588  2.1772
  161SAPE   H3S18038   5.822   4.203   6.527 -0.1946  2.3608  1.5240
  161SAPE   C2418039   5.832   4.238   6.747 -0.0096  0.3888  0.0421
  161SAPE   H4R18040   5.811   4.175   6.835  0.0044  2.2160  1.4210
  161SAPE   H4S18041   5.761   4.324   6.743  0.3150  0.6405 -0.5977
  161SAPE   C2518042   5.968   4.300   6.753  0.2889  0.3164 -0.7808
  161SAPE   H5R18043   5.985   4.391   6.692 -2.5922  1.2628 -0.3133
  161SAPE   C2618044   6.066   4.259   6.838  0.2305 -0.5449 -0.1868
  161SAPE   H6R18045   6.162   4.310   6.825 -1.0789  1.7674 -1.5768
  161SAPE   C2718046   6.058   4.150   6.942 -0.1550 -0.3301  0.1917
  161SAPE   H7R18047   5.992   4.074   6.896  0.6949 -0.9238 -0.0677
  161SAPE   H7S18048   6.007   4.186   7.034 -3.1973 -1.1367 -1.0624
  161SAPE   C2818049   6.191   4.077   6.960 -0.0680 -0.3619 -0.8314
  161SAPE   H8R18050   6.270   4.090   6.884  0.4148  1.6481 -0.0631
  161SAPE   C2918051   6.212   3.996   7.064 -0.1334 -0.4422  0.7595
  161SAPE   H9R18052   6.310   3.947   7.064 -0.6633 -1.5366  0.7245
  161SAPE  C21018053   6.124   3.955   7.178  0.3542 -0.3394 -0.3862
  161SAPE  H10R18054   6.120   3.844   7.175  1.1463 -0.3991  0.1831
  161SAPE  H10S18055   6.022   3.997   7.170  0.6800  0.8498  1.2569
  161SAPE  C21118056   6.183   4.007   7.303  0.2550  0.3079  0.4218
  161SAPE  H11R18057   6.226   4.107   7.288 -1.6441  1.1016  0.0245
  161SAPE  C21218058   6.181   3.945   7.422  0.2626 -0.0342  0.5900
  161SAPE  H12R18059   6.225   4.007   7.502 -0.4701 -0.0401  1.0081
  161SAPE  C21318060   6.118   3.812   7.470  0.1193 -0.0162 -0.3432
  161SAPE  H13R18061   6.190   3.758   7.535  0.5477 -1.8879 -2.2369
  161SAPE  H13S18062   6.099   3.744   7.384  0.0786 -1.5770  0.8559
  161SAPE  C21418063   5.985   3.826   7.540 -0.3710 -0.1922 -0.0122
  161SAPE  H14R18064   5.910   3.893   7.495 -1.5661 -2.0798 -0.9387
  161SAPE  C21518065   5.943   3.763   7.648  0.7227 -0.3495  0.8615
  161SAPE  H15R18066   5.842   3.787   7.684  0.7386  0.7075  0.2505
  161SAPE  C21618067   6.013   3.654   7.728  0.2079  0.1682 -0.5146
  161SAPE  H16R18068   6.109   3.623   7.683 -0.3851  1.7338 -3.0169
  161SAPE  H16S18069   5.946   3.566   7.742  0.6822 -0.3146 -1.2160
  161SAPE  C21718070   6.044   3.695   7.867 -0.1191 -0.1474 -0.2945
  161SAPE  H17R18071   5.947   3.687   7.920 -0.3161 -1.5321 -0.8283
  161SAPE  H17S18072   6.084   3.799   7.862 -1.0304  0.2909  1.1872
  161SAPE  C21818073   6.146   3.607   7.936 -0.0862 -0.6782 -0.2940
  161SAPE  H18R18074   6.242   3.604   7.879  0.2998  0.8871  0.2351
  161SAPE  H18S18075   6.115   3.501   7.950  2.7346 -1.5175  0.3854
  161SAPE  C21918076   6.183   3.659   8.083  0.1846  0.6313  0.4194
  161SAPE  H19R18077   6.224   3.761   8.068  1.7326  0.0474  0.5332
  161SAPE  H19S18078   6.268   3.595   8.114 -1.1889 -1.5981 -0.1434
  161SAPE  C22018079   6.068   3.649   8.182 -0.2500 -0.6255  0.1166
  161SAPE  H20R18080   6.019   3.549   8.183 -0.7987 -0.3646 -0.0346
  161SAPE  H20S18081   5.987   3.723   8.163  1.4928  1.4329  0.3263
  161SAPE  H20T18082   6.101   3.654   8.288  1.2774  1.6786 -0.3986
  161SAPE   C3318083   6.180   3.573   7.017 -0.1602 -0.2547  1.1680
  161SAPE   H3X18084   6.114   3.509   7.079 -0.3563  0.8198  2.0951
  161SAPE   H3Y18085   6.151   3.673   7.056  1.3425 -0.3082  2.5113
  161SAPE   C3418086   6.326   3.554   7.063 -0.1200  1.0325 -0.4200
  161SAPE   H4X18087   6.395   3.626   7.014 -0.4049  1.5956 -0.0082
  161SAPE   H4Y18088   6.356   3.451   7.036  0.4524  1.1848 -0.3849
  161SAPE   C3518089   6.355   3.566   7.214  0.3869 -0.1414 -1.0996
  161SAPE   H5X18090   6.308   3.659   7.253 -2.1584 -2.9586  3.5276
  161SAPE   H5Y18091   6.466   3.570   7.225  0.1651 -0.5245  2.8877
  161SAPE   C3618092   6.297   3.462   7.308  0.2230  0.1990  0.3485
  161SAPE   H6X18093   6.315   3.366   7.255  0.7347  1.1766 -1.3288
  161SAPE   H6Y18094   6.191   3.485   7.332  0.2534 -1.2515  2.0063
  161SAPE   C3718095   6.362   3.446   7.448 -0.3208 -0.8704  0.1483
  161SAPE   H7X18096   6.305   3.511   7.518  2.2115  0.1507  1.3555
  161SAPE   H7Y18097   6.457   3.503   7.453 -1.2347  0.6588  0.7317
  161SAPE   C3818098   6.376   3.306   7.508  0.8417 -0.2346 -0.0224
  161SAPE   H8X18099   6.447   3.245   7.447  0.0123 -1.9835  0.7119
  161SAPE   H8Y18100   6.280   3.250   7.509  0.3554  0.4915  2.9038
  161SAPE   C3918101   6.427   3.319   7.650 -0.2251 -0.1719  0.7261
  161SAPE   H9X18102   6.349   3.325   7.729  0.6345 -0.5725  1.6141
  161SAPE   H9Y18103   6.494   3.407   7.657  1.6439 -1.5706  1.0547
  161SAPE  C31018104   6.519   3.209   7.695 -0.2880  0.6862 -0.5369
  161SAPE  H10X18105   6.611   3.222   7.635 -0.2867  1.7246 -0.3153
  161SAPE  H10Y18106   6.475   3.112   7.663  0.1785 -0.0505  0.9377
  161SAPE  C31118107   6.553   3.200   7.841  0.2845  0.0469  0.2071
  161SAPE  H11X18108   6.456   3.178   7.890 -0.4204  0.5369 -0.9314
  161SAPE  H11Y18109   6.592   3.298   7.874  1.3701 -0.6059  0.9292
  161SAPE  C31218110   6.654   3.080   7.870 -0.5399  0.0089 -0.0581
  161SAPE  H12X18111   6.756   3.097   7.828 -0.7687 -2.5725 -1.8818
  161SAPE  H12Y18112   6.604   2.994   7.823 -1.9916  1.0138 -0.4158
  161SAPE  C31318113   6.664   3.066   8.024  0.0701 -0.2524 -0.0080
  161SAPE  H13X18114   6.723   2.975   8.050 -0.7790 -0.1833  2.4890
  161SAPE  H13Y18115   6.561   3.040   8.058 -0.8568  0.6015 -2.0082
  161SAPE  C31418116   6.715   3.187   8.100 -0.4252 -0.5708  0.1566
  161SAPE  H14X18117   6.650   3.277   8.107  0.1970 -0.1520  0.7878
  161SAPE  H14Y18118   6.808   3.229   8.055 -0.7433  0.2376  0.2280
  161SAPE  C31518119   6.743   3.148   8.241  0.7099 -0.8546  0.0543
  161SAPE  H15X18120   6.824   3.072   8.246  1.1589 -0.4826 -1.0775
  161SAPE  H15Y18121   6.647   3.102   8.272 -0.7913  0.5488 -2.1507
  161SAPE  C31618122   6.770   3.279   8.323  0.4290  0.3580 -0.2241
  161SAPE  H16X18123   6.693   3.358   8.313 -0.0756  0.2193  1.9338
  161SAPE  H16Y18124   6.866   3.321   8.285  0.4993 -1.8365 -2.7433
  161SAPE  C31718125   6.776   3.235   8.471 -0.4698 -0.2904 -0.2124
  161SAPE  H17X18126   6.848   3.151   8.472  1.5228  1.3188 -0.6568
  161SAPE  H17Y18127   6.682   3.194   8.511 -1.3158  1.1049 -0.6853
  161SAPE  C31818128   6.814   3.353   8.565  0.2829  0.8564  0.8587
  161SAPE  H18X18129   6.739   3.435   8.564 -0.8957 -0.1772 -0.3218
  161SAPE  H18Y18130   6.915   3.390   8.538  0.9032  0.5735  2.6613
  161SAPE  H18Z18131   6.827   3.310   8.666  0.5804 -0.5071  0.2664
  162SAPE     N18132   5.014   0.266   6.127  0.6136  0.5238  0.4826
  162SAPE   HN118133   4.974   0.362   6.120 -1.7101 -0.4956 -1.7495
  162SAPE   HN218134   5.102   0.261   6.183  1.0290  0.1569 -0.1821
  162SAPE   HN318135   5.052   0.241   6.033  1.4469  0.7494  0.7512
  162SAPE   C1218136   4.908   0.171   6.167 -0.2783 -1.0340 -0.3334
  162SAPE  H12A18137   4.832   0.178   6.086 -1.3550  0.7052  0.7529
  162SAPE  H12B18138   4.858   0.219   6.254 -1.2053  2.1191 -2.4222
  162SAPE   C1118139   4.974   0.045   6.209 -0.1221  0.0750 -0.1048
  162SAPE  H11A18140   4.907  -0.029   6.258 -1.1920 -0.4988 -2.2915
  162SAPE  H11B18141   5.052   0.065   6.286  1.0026 -0.5228 -1.0392
  162SAPE     P18142   5.160  -0.135   6.138  0.2053  0.1557 -0.3002
  162SAPE   O1318143   5.118  -0.264   6.072 -0.2619 -0.3407  0.2649
  162SAPE   O1418144   5.289  -0.069   6.094 -0.0827 -0.1040 -0.0254
  162SAPE   O1218145   5.047  -0.023   6.109 -0.7397  0.6007  0.1055
  162SAPE   O1118146   5.172  -0.149   6.295  0.3456  0.0544 -0.1073
  162SAPE    C118147   5.072  -0.222   6.368  0.3088 -0.0895  0.0443
  162SAPE    HA18148   4.990  -0.256   6.300  0.3853  0.2039 -0.1957
  162SAPE    HB18149   5.110  -0.318   6.410  1.6772 -0.5111 -2.0018
  162SAPE    C218150   5.012  -0.149   6.489  0.5179  0.6109 -0.0649
  162SAPE    HS18151   4.970  -0.052   6.454  3.5870  1.5196 -1.6860
  162SAPE   O2118152   5.117  -0.131   6.587 -0.2970 -0.2085 -0.5371
  162SAPE   C2118153   5.085  -0.026   6.667  0.2341 -0.3402  0.2172
  162SAPE   O2218154   4.977   0.039   6.655 -0.3477  0.2294 -0.1969
  162SAPE   C2218155   5.185  -0.016   6.778 -0.2796 -0.7508 -0.5928
  162SAPE   H2R18156   5.229  -0.118   6.790  3.5636  0.7567 -0.4276
  162SAPE   H2S18157   5.275   0.030   6.733  0.2507 -0.5688  0.6096
  162SAPE    C318158   4.909  -0.240   6.556  0.2328  0.8156  0.1158
  162SAPE    HX18159   4.833  -0.257   6.476 -0.4755  0.7449  0.7851
  162SAPE    HY18160   4.862  -0.186   6.642  0.5932 -0.4094  1.1211
  162SAPE   O3118161   4.978  -0.359   6.606  0.4235  0.1208  0.0477
  162SAPE   C3118162   4.902  -0.467   6.612 -0.1462  0.2794  0.1337
  162SAPE   O3218163   4.786  -0.470   6.585  0.6001  0.0349  0.6295
  162SAPE   C3218164   4.983  -0.586   6.661 -0.0486 -0.0196  0.6173
  162SAPE   H2X18165   5.087  -0.559   6.633 -0.5362  0.2791 -0.9850
  162SAPE   H2Y18166   4.955  -0.679   6.606  2.4932 -0.2978 -0.3838
  162SAPE   C2318167   5.133   0.049   6.904  0.1668 -0.1348 -0.4745
  162SAPE   H3R18168   5.076   0.140   6.875 -0.9769 -0.9728 -0.9416
  162SAPE   H3S18169   5.223   0.081   6.961 -0.2650  0.2250  0.0186
  162SAPE   C2418170   5.039  -0.044   6.986  0.4966 -0.1088  0.6087
  162SAPE   H4R18171   5.092  -0.138   7.012  1.4777  0.2203 -0.1480
  162SAPE   H4S18172   4.955  -0.080   6.923 -0.6193  2.2748  0.6214
  162SAPE   C2518173   4.968   0.030   7.096 -0.6518 -0.2110 -0.7518
  162SAPE   H5R18174   4.920   0.124   7.065 -1.4839 -0.6276 -0.7569
  162SAPE   C2618175   4.984   0.004   7.225 -0.3175  0.1832 -0.2785
  162SAPE   H6R18176   4.933   0.069   7.297  0.2080  0.4380 -0.1305
  162SAPE   C2718177   5.063  -0.112   7.293  0.1613 -0.2958  0.4107
  162SAPE   H7R18178   5.107  -0.072   7.387 -1.6255  0.9566  0.7576
  162SAPE   H7S18179   5.144  -0.154   7.228  0.2333  1.8220 -0.9724
  162SAPE   C2818180   4.963  -0.221   7.334  0.0554 -0.6774  0.0199
  162SAPE   H8R18181   4.931  -0.283   7.249 -2.4417  0.3676  0.1217
  162SAPE   C2918182   4.924  -0.233   7.463  0.2675  0.2911  0.1865
  162SAPE   H9R18183   4.871  -0.325   7.494 -1.9215  1.8511  1.3532
  162SAPE  C21018184   4.959  -0.155   7.587 -0.2108  0.5966  0.2488
  162SAPE  H10R18185   4.863  -0.159   7.643  0.0921  1.1420  0.8224
  162SAPE  H10S18186   4.969  -0.045   7.574  0.8008  0.5060  0.2188
  162SAPE  C21118187   5.072  -0.206   7.673 -0.0581  0.0812  0.3092
  162SAPE  H11R18188   5.113  -0.299   7.632 -3.2734 -1.3960  0.1430
  162SAPE  C21218189   5.121  -0.154   7.786 -0.0787  0.4595  0.1145
  162SAPE  H12R18190   5.211  -0.207   7.820  2.1062  3.5676 -0.4498
  162SAPE  C21318191   5.093  -0.029   7.866  0.5084 -0.8493 -0.4105
  162SAPE  H13R18192   5.144   0.058   7.820  2.3149 -1.0312  1.1659
  162SAPE  H13S18193   5.149  -0.039   7.961 -0.9452 -1.1447  0.4436
  162SAPE  C21418194   4.952   0.011   7.912 -0.0113  0.1195 -0.2558
  162SAPE  H14R18195   4.866  -0.037   7.864  1.4858 -2.3285 -0.6644
  162SAPE  C21518196   4.925   0.113   7.993 -0.1826  0.8934 -0.0474
  162SAPE  H15R18197   4.817   0.134   7.989 -0.7677 -1.6618  0.6014
  162SAPE  C21618198   5.015   0.199   8.078  0.4317 -0.2436  0.3593
  162SAPE  H16R18199   5.037   0.288   8.016  1.3854  0.2370  1.3654
  162SAPE  H16S18200   5.109   0.145   8.105  1.8351  0.6983 -2.2863
  162SAPE  C21718201   4.931   0.253   8.197 -0.5487  0.0719  0.5316
  162SAPE  H17R18202   4.894   0.160   8.245  0.1996 -0.5765 -0.1098
  162SAPE  H17S18203   4.843   0.312   8.163 -0.3904 -0.1902 -0.3699
  162SAPE  C21818204   5.006   0.339   8.300  0.2144  0.0237  0.0715
  162SAPE  H18R18205   5.049   0.290   8.390  2.8809  1.0135 -0.5571
  162SAPE  H18S18206   4.921   0.397   8.343 -0.4017  1.0130 -2.3088
  162SAPE  C21918207   5.106   0.435   8.244  0.5805  0.2396  0.2467
  162SAPE  H19R18208   5.066   0.490   8.156  1.2024 -1.6321 -1.2695
  162SAPE  H19S18209   5.197   0.388   8.201  0.5054  1.1621 -0.9826
  162SAPE  C22018210   5.160   0.532   8.354  0.1473 -0.5688  0.4753
  162SAPE  H20R18211   5.258   0.568   8.316 -0.2303 -0.7125 -0.6888
  162SAPE  H20S18212   5.180   0.481   8.451 -0.4312 -1.2788  0.2287
  162SAPE  H20T18213   5.082   0.611   8.366  1.4478  0.8990 -0.3669
  162SAPE   C3318214   4.966  -0.604   6.812 -0.0630  0.4669  0.0963
  162SAPE   H3X18215   4.871  -0.661   6.819 -0.6833  1.5762  0.9821
  162SAPE   H3Y18216   4.967  -0.507   6.866  0.2971  0.0736  0.8180
  162SAPE   C3418217   5.082  -0.698   6.873 -0.0811 -0.4447  0.7176
  162SAPE   H4X18218   5.182  -0.651   6.861  0.1137 -0.1905  2.9171
  162SAPE   H4Y18219   5.077  -0.794   6.817 -1.5232  0.2617 -0.4471
  162SAPE   C3518220   5.053  -0.738   7.023 -0.3499 -0.3935  0.2810
  162SAPE   H5X18221   4.949  -0.776   7.033 -0.9842  0.7961 -1.3487
  162SAPE   H5Y18222   5.061  -0.648   7.088  1.6501 -0.2065 -0.1530
  162SAPE   C3618223   5.157  -0.836   7.078  0.3114  0.4391  0.1130
  162SAPE   H6X18224   5.264  -0.809   7.067  0.6227 -0.2197  1.3341
  162SAPE   H6Y18225   5.151  -0.921   7.007  1.5474  0.1372  0.3591
  162SAPE   C3718226   5.130  -0.882   7.218  0.3359  0.5070 -0.2455
  162SAPE   H7X18227   5.030  -0.929   7.218 -1.0980  3.3080  0.5051
  162SAPE   H7Y18228   5.124  -0.800   7.293 -0.5906  0.2160  0.0068
  162SAPE   C3818229   5.233  -0.990   7.261 -0.3605 -0.5647 -0.3882
  162SAPE   H8X18230   5.337  -0.951   7.257  1.3659 -3.9966  3.3125
  162SAPE   H8Y18231   5.227  -1.080   7.197 -1.6217 -0.3777 -0.5621
  162SAPE   C3918232   5.215  -1.033   7.407 -0.1996 -0.1710 -0.0420
  162SAPE   H9X18233   5.198  -0.936   7.459  2.5974  1.5664 -2.0693
  162SAPE   H9Y18234   5.312  -1.083   7.426  0.1517 -0.6816 -2.7929
  162SAPE  C31018235   5.093  -1.127   7.436 -0.1106  0.4249  0.2313
  162SAPE  H10X18236   5.109  -1.226   7.387  1.8044  0.8589 -0.1129
  162SAPE  H10Y18237   5.008  -1.069   7.396 -0.0455 -0.5810 -1.4589
  162SAPE  C31118238   5.076  -1.140   7.584 -0.5567  0.7135 -0.2482
  162SAPE  H11X18239   5.074  -1.040   7.633  0.4268  0.2042  0.8943
  162SAPE  H11Y18240   5.168  -1.182   7.630  0.3425  2.1541 -0.6729
  162SAPE  C31218241   4.946  -1.218   7.633  0.0281 -0.4581 -0.0554
  162SAPE  H12X18242   4.957  -1.322   7.597 -0.5301 -0.6413  0.2883
  162SAPE  H12Y18243   4.854  -1.176   7.587  1.3074  0.3862 -1.9932
  162SAPE  C31318244   4.940  -1.207   7.791  0.0863  0.4422  0.4262
  162SAPE  H13X18245   4.844  -1.254   7.823 -0.2754  1.2111  0.4853
  162SAPE  H13Y18246   4.949  -1.102   7.826  1.8608  0.4153  0.1403
  162SAPE  C31418247   5.039  -1.303   7.857  0.1085 -0.3191 -0.4987
  162SAPE  H14X18248   5.136  -1.269   7.817 -0.4063 -1.6048 -3.0021
  162SAPE  H14Y18249   5.018  -1.411   7.847 -0.1424 -0.4655  1.2002
  162SAPE  C31518250   5.036  -1.279   8.011 -0.6106  0.5038 -0.0646
  162SAPE  H15X18251   4.943  -1.331   8.043 -1.8107  0.7220 -2.9158
  162SAPE  H15Y18252   5.021  -1.173   8.041 -0.8914  0.4553 -0.0317
  162SAPE  C31618253   5.151  -1.334   8.088 -0.1544  0.5368 -1.0249
  162SAPE  H16X18254   5.238  -1.286   8.038  1.8062 -0.0364  1.6116
  162SAPE  H16Y18255   5.155  -1.445   8.079 -3.7023  0.0955  0.7970
  162SAPE  C31718256   5.155  -1.286   8.232  0.4564  0.0291  0.0159
  162SAPE  H17X18257   5.060  -1.312   8.283  1.0695  1.9517  2.3151
  162SAPE  H17Y18258   5.150  -1.175   8.232 -2.0077  0.0222  2.2168
  162SAPE  C31818259   5.262  -1.320   8.324 -0.7643 -0.0249  0.6284
  162SAPE  H18X18260   5.234  -1.313   8.431 -1.8365  0.1612  0.3454
  162SAPE  H18Y18261   5.352  -1.266   8.288 -1.2094  0.0118 -0.4725
  162SAPE  H18Z18262   5.298  -1.423   8.303 -0.2962  0.5731 -1.8815
  163SAPE     N18263   2.652   5.509   6.535  0.6109  0.1159  0.5960
  163SAPE   HN118264   2.594   5.428   6.506  0.3577  0.3817  0.3514
  163SAPE   HN218265   2.589   5.592   6.532 -1.4895 -1.4422 -1.0480
  163SAPE   HN318266   2.724   5.522   6.461 -0.6102 -0.4508 -0.7428
  163SAPE   C1218267   2.706   5.493   6.672  0.4209  0.3620  0.0631
  163SAPE  H12A18268   2.629   5.491   6.752 -0.8841 -2.6547 -1.1403
  163SAPE  H12B18269   2.770   5.583   6.689  1.9437 -1.0937  2.6430
  163SAPE   C1118270   2.796   5.371   6.701 -0.2317  0.2242  0.5188
  163SAPE  H11A18271   2.731   5.281   6.691  1.4693 -0.8226 -2.0191
  163SAPE  H11B18272   2.841   5.379   6.803 -0.3923 -1.8298  0.7984
  163SAPE     P18273   3.031   5.441   6.611  0.5417  0.6807 -0.1232
  163SAPE   O1318274   3.121   5.410   6.499 -0.1484 -0.1107 -0.0908
  163SAPE   O1418275   2.996   5.584   6.626 -0.1452 -0.0895 -0.1909
  163SAPE   O1218276   2.897   5.355   6.603  0.3841  0.2840 -0.0670
  163SAPE   O1118277   3.095   5.384   6.746  0.1618  0.4238  0.1710
  163SAPE    C118278   3.104   5.241   6.749  0.1800 -0.6966 -0.3724
  163SAPE    HA18279   3.004   5.191   6.752  0.8724 -2.1050  0.1422
  163SAPE    HB18280   3.158   5.202   6.661 -2.0966  0.7020 -2.5373
  163SAPE    C218281   3.192   5.194   6.874 -0.3383  0.2109  0.1805
  163SAPE    HS18282   3.196   5.083   6.874  0.7779  0.2353  0.5046
  163SAPE   O2118283   3.140   5.245   6.997 -0.9512  0.2995 -0.0608
  163SAPE   C2118284   3.019   5.213   7.024  0.0604 -0.1358  0.5461
  163SAPE   O2218285   2.957   5.119   6.970  0.0782 -0.8437 -0.0450
  163SAPE   C2218286   2.970   5.312   7.121 -0.1131  0.2839 -0.1449
  163SAPE   H2R18287   3.035   5.304   7.210  1.4665  1.0588 -1.1891
  163SAPE   H2S18288   2.993   5.418   7.099  1.2803 -0.0373 -0.2873
  163SAPE    C318289   3.339   5.242   6.853 -0.3738  0.0391  0.9714
  163SAPE    HX18290   3.326   5.350   6.834 -0.4671 -0.3681 -1.6708
  163SAPE    HY18291   3.390   5.219   6.757 -0.1899  4.3883 -0.1751
  163SAPE   O3118292   3.424   5.221   6.969  0.3698 -0.9112  0.0021
  163SAPE   C3118293   3.479   5.100   6.986 -0.4946 -0.0995 -0.0176
  163SAPE   O3218294   3.466   5.005   6.912 -0.3925 -0.2702  0.5649
  163SAPE   C3218295   3.555   5.097   7.118  0.5457 -0.4649 -0.0821
  163SAPE   H2X18296   3.665   5.080   7.116  0.9561  1.9675 -1.4151
  163SAPE   H2Y18297   3.503   5.008   7.161 -1.6266  1.2424  1.0291
  163SAPE   C2318298   2.829   5.314   7.175  0.3164 -0.4306 -0.2800
  163SAPE   H3R18299   2.764   5.286   7.089  0.2848  0.2886 -0.4985
  163SAPE   H3S18300   2.799   5.416   7.207  2.4362  0.1886 -0.1346
  163SAPE   C2418301   2.814   5.205   7.279  0.8774  0.2790  0.1841
  163SAPE   H4R18302   2.891   5.230   7.356  0.9840  0.3572  0.0519
  163SAPE   H4S18303   2.850   5.111   7.233  1.0858  0.0309  0.8355
  163SAPE   C2518304   2.672   5.181   7.325  0.5077 -0.1398 -0.3471
  163SAPE   H5R18305   2.598   5.165   7.246 -1.0578 -0.7116  1.1706
  163SAPE   C2618306   2.632   5.189   7.451  0.0241  0.0540 -0.3880
  163SAPE   H6R18307   2.523   5.191   7.466 -0.5149 -0.9059 -3.4130
  163SAPE   C2718308   2.721   5.218   7.570  0.7114 -0.3353  1.3027
  163SAPE   H7R18309   2.822   5.171   7.565  0.4683 -0.7756 -0.0877
  163SAPE   H7S18310   2.656   5.186   7.654 -1.1682 -0.1643 -0.0224
  163SAPE   C2818311   2.747   5.367   7.582 -0.7231  0.5009  0.6933
  163SAPE   H8R18312   2.719   5.422   7.491 -3.0143  0.3392  1.2406
  163SAPE   C2918313   2.770   5.443   7.690 -0.2399  0.2218  0.6374
  163SAPE   H9R18314   2.794   5.549   7.672  0.1381 -0.1179 -1.1007
  163SAPE  C21018315   2.787   5.408   7.835 -0.3442  0.2492  0.4827
  163SAPE  H10R18316   2.863   5.483   7.866 -2.4893  2.3680  0.8495
  163SAPE  H10S18317   2.833   5.309   7.854 -0.0092  0.3539  0.2386
  163SAPE  C21118318   2.660   5.436   7.907  0.5466 -0.2467 -0.3329
  163SAPE  H11R18319   2.610   5.530   7.878  0.6149 -0.0950  0.0259
  163SAPE  C21218320   2.602   5.375   8.011  0.2057  0.0224 -0.3362
  163SAPE  H12R18321   2.505   5.413   8.044  0.3730 -0.2829  0.5393
  163SAPE  C21318322   2.655   5.247   8.075  0.3160 -0.2868  0.4063
  163SAPE  H13R18323   2.747   5.270   8.133  1.4207  1.8558 -1.9979
  163SAPE  H13S18324   2.698   5.177   8.000 -3.2816 -0.1972 -1.9895
  163SAPE  C21418325   2.548   5.172   8.145 -0.4667 -0.0153  0.8498
  163SAPE  H14R18326   2.457   5.163   8.084  0.1600 -1.2911  0.0553
  163SAPE  C21518327   2.559   5.109   8.264 -0.6070  0.0892 -0.2766
  163SAPE  H15R18328   2.469   5.056   8.297 -0.9746  1.0720  0.3296
  163SAPE  C21618329   2.692   5.096   8.335  0.6593 -0.4121  0.3279
  163SAPE  H16R18330   2.750   5.190   8.329 -1.5851  1.0681  0.8596
  163SAPE  H16S18331   2.751   5.014   8.289 -0.1709 -1.7383  1.5468
  163SAPE  C21718332   2.679   5.047   8.482  0.4050 -0.5047 -0.5382
  163SAPE  H17R18333   2.615   4.957   8.481 -1.1280  0.5483 -0.7165
  163SAPE  H17S18334   2.631   5.131   8.537 -0.7124 -0.0467 -2.1466
  163SAPE  C21818335   2.823   5.040   8.541  0.0186 -0.4639  1.3314
  163SAPE  H18R18336   2.884   5.128   8.513 -0.9182 -0.4163 -0.7544
  163SAPE  H18S18337   2.869   4.954   8.488 -0.1740 -0.7804  1.6716
  163SAPE  C21918338   2.819   5.027   8.691 -0.1660  0.3201  0.9222
  163SAPE  H19R18339   2.750   4.942   8.714  1.6862 -0.4936  4.0046
  163SAPE  H19S18340   2.773   5.117   8.737 -2.3087 -0.3456  0.2230
  163SAPE  C22018341   2.958   4.999   8.737  0.7740  0.0397 -0.0348
  163SAPE  H20R18342   2.966   4.979   8.846  1.4803  0.4531 -0.0050
  163SAPE  H20S18343   3.020   5.091   8.724 -0.2603  1.3298  3.0408
  163SAPE  H20T18344   2.989   4.909   8.681  1.3051  0.3528 -0.2518
  163SAPE   C3318345   3.514   5.215   7.209 -0.1221  0.3357 -0.4073
  163SAPE   H3X18346   3.405   5.205   7.224  0.0442  1.0471  1.4381
  163SAPE   H3Y18347   3.532   5.310   7.154  2.9449  0.1901  0.1425
  163SAPE   C3418348   3.573   5.205   7.349 -0.3360  0.2857 -0.1233
  163SAPE   H4X18349   3.519   5.284   7.406 -1.3106  0.8026 -1.6755
  163SAPE   H4Y18350   3.679   5.236   7.355 -0.8216  1.8059  1.6353
  163SAPE   C3518351   3.570   5.067   7.426 -0.0769  0.2917 -0.3311
  163SAPE   H5X18352   3.624   4.985   7.374 -0.3855 -2.4131  3.2199
  163SAPE   H5Y18353   3.466   5.028   7.425 -0.4424  1.2379 -0.1907
  163SAPE   C3618354   3.626   5.071   7.566  0.2414 -0.2546  0.0136
  163SAPE   H6X18355   3.732   5.106   7.565  0.7387 -1.5592  1.7994
  163SAPE   H6Y18356   3.630   4.968   7.609 -1.2828 -0.1711  0.3984
  163SAPE   C3718357   3.544   5.172   7.659  0.2920  0.5157 -0.3954
  163SAPE   H7X18358   3.438   5.142   7.651 -0.3376  2.1383  1.3515
  163SAPE   H7Y18359   3.560   5.265   7.600  0.5672  0.4704 -0.3962
  163SAPE   C3818360   3.595   5.201   7.792 -0.4754  0.3625  0.2761
  163SAPE   H8X18361   3.522   5.275   7.829 -2.3114  0.0343 -2.4211
  163SAPE   H8Y18362   3.698   5.241   7.788  0.3033 -1.4603  0.7226
  163SAPE   C3918363   3.594   5.085   7.889  0.3516 -0.4359 -0.3054
  163SAPE   H9X18364   3.658   5.001   7.857  2.0636  0.1555  1.3749
  163SAPE   H9Y18365   3.493   5.043   7.907 -0.2873  1.3594  0.5536
  163SAPE  C31018366   3.676   5.126   8.014  0.5665  0.4532  0.4711
  163SAPE  H10X18367   3.648   5.230   8.039 -2.2170  0.3183 -1.6517
  163SAPE  H10Y18368   3.784   5.131   7.986  0.6955  0.0225  0.8806
  163SAPE  C31118369   3.693   5.019   8.127  1.4422 -0.5964 -0.2530
  163SAPE  H11X18370   3.748   4.932   8.085 -0.8468 -1.9176 -0.6933
  163SAPE  H11Y18371   3.590   4.981   8.143  1.9347 -2.1436 -0.6158
  163SAPE  C31218372   3.762   5.073   8.258 -0.0273  0.3024 -0.4815
  163SAPE  H12X18373   3.706   5.162   8.295  0.4743 -0.5122  2.4750
  163SAPE  H12Y18374   3.866   5.108   8.241  1.1523 -3.7996 -3.2561
  163SAPE  C31318375   3.775   4.959   8.362 -0.4870  0.4860 -0.2578
  163SAPE  H13X18376   3.830   4.879   8.309 -0.5598 -0.2446  0.7263
  163SAPE  H13Y18377   3.677   4.912   8.386 -0.8216  1.0719 -0.4511
  163SAPE  C31418378   3.853   5.000   8.486  0.1619 -0.2457 -0.2799
  163SAPE  H14X18379   3.801   5.084   8.536  0.2787 -1.5740  2.2643
  163SAPE  H14Y18380   3.956   5.032   8.458  0.5928  1.1614  2.6090
  163SAPE  C31518381   3.873   4.882   8.584 -0.1601  0.6304  0.4519
  163SAPE  H15X18382   3.913   4.797   8.524  1.2357  2.1050 -0.8025
  163SAPE  H15Y18383   3.779   4.837   8.621  1.4372 -2.3276  1.3024
  163SAPE  C31618384   3.966   4.897   8.708 -0.1084  0.0744  0.4279
  163SAPE  H16X18385   4.068   4.915   8.667 -0.3401  0.3678 -0.0289
  163SAPE  H16Y18386   3.959   4.801   8.764  0.7031  1.6543  3.5025
  163SAPE  C31718387   3.930   5.004   8.808 -0.5248 -0.5432  0.3084
  163SAPE  H17X18388   3.821   5.027   8.813 -0.2235  0.8214  1.1189
  163SAPE  H17Y18389   3.976   5.101   8.781 -1.3388 -0.3463 -0.4130
  163SAPE  C31818390   3.981   4.979   8.957  0.0974 -0.1435  0.1652
  163SAPE  H18X18391   3.964   4.877   8.998  0.8674 -0.1344  0.5404
  163SAPE  H18Y18392   3.935   5.051   9.027 -0.6336 -0.5265  0.0798
  163SAPE  H18Z18393   4.090   4.997   8.975  0.4436  0.0689 -1.8750
  164SAPE     N18394   6.146   3.045   6.212 -0.6702 -0.0505  0.5918
  164SAPE   HN118395   6.079   2.968   6.231 -3.4169  2.3828  1.7334
  164SAPE   HN218396   6.231   3.049   6.272  0.9055 -0.0870 -1.5464
  164SAPE   HN318397   6.091   3.133   6.223 -0.1322  0.5468 -1.1479
  164SAPE   C1218398   6.201   3.037   6.069  0.3475 -0.0378  0.7402
  164SAPE  H12A18399   6.252   2.940   6.057 -0.0649 -0.2907  1.0270
  164SAPE  H12B18400   6.274   3.121   6.061  0.8890 -0.6510 -1.0964
  164SAPE   C1118401   6.096   3.021   5.955  0.7555 -0.2461  0.2526
  164SAPE  H11A18402   6.057   2.917   5.951 -2.1155  0.7013  1.3809
  164SAPE  H11B18403   6.163   3.034   5.868  1.5569 -0.7804  0.7710
  164SAPE     P18404   5.851   3.121   6.013  0.1084  0.2938 -0.3422
  164SAPE   O1318405   5.776   3.233   5.953 -0.0689  0.4867 -0.0834
  164SAPE   O1418406   5.789   2.989   6.001 -0.6819  0.3972  0.0496
  164SAPE   O1218407   5.997   3.121   5.955 -0.2003 -0.6731  0.1571
  164SAPE   O1118408   5.883   3.150   6.161  0.3787 -0.5581  0.6126
  164SAPE    C118409   5.824   3.257   6.237  0.2176 -0.2263  0.1523
  164SAPE    HA18410   5.887   3.349   6.244  0.7302 -0.6776  1.9721
  164SAPE    HB18411   5.725   3.287   6.194  1.7945  2.6019 -1.8834
  164SAPE    C218412   5.801   3.218   6.385  0.5164 -0.0843  0.1543
  164SAPE    HS18413   5.763   3.305   6.443 -0.3970 -0.8091  0.6743
  164SAPE   O2118414   5.921   3.171   6.442  0.2616  0.0514 -0.2301
  164SAPE   C2118415   5.953   3.201   6.565 -0.5414 -0.7933 -0.3201
  164SAPE   O2218416   5.885   3.255   6.650  0.6461  0.6751 -0.0904
  164SAPE   C2218417   6.102   3.182   6.583 -0.4866 -0.2184 -0.7813
  164SAPE   H2R18418   6.129   3.104   6.509 -0.4480 -0.3872 -0.5898
  164SAPE   H2S18419   6.155   3.272   6.546 -1.4073  0.2454 -0.9920
  164SAPE    C318420   5.691   3.115   6.377 -0.1207  0.6687 -0.1318
  164SAPE    HX18421   5.718   3.032   6.308 -0.5789  0.3262  0.0976
  164SAPE    HY18422   5.596   3.155   6.336 -0.9484 -3.3775 -2.7887
  164SAPE   O3118423   5.654   3.073   6.513  0.6436  0.2612  0.6020
  164SAPE   C3118424   5.719   2.979   6.581 -0.9221  0.7944 -0.2820
  164SAPE   O3218425   5.825   2.927   6.545 -0.1556 -0.1210 -0.2537
  164SAPE   C3218426   5.647   2.927   6.701 -0.2105 -0.2558 -0.0931
  164SAPE   H2X18427   5.545   2.891   6.673 -0.8398  2.2868 -1.3657
  164SAPE   H2Y18428   5.628   3.018   6.762 -1.9228 -1.4872  1.3564
  164SAPE   C2318429   6.129   3.119   6.720  0.2690 -0.2227  0.3327
  164SAPE   H3R18430   6.065   3.029   6.730  0.5412 -0.3668  0.8436
  164SAPE   H3S18431   6.097   3.184   6.805  2.4297  2.6420 -0.8693
  164SAPE   C2418432   6.273   3.079   6.740  0.2695  0.8580  0.7064
  164SAPE   H4R18433   6.337   3.165   6.767  4.0363 -0.9263 -1.6362
  164SAPE   H4S18434   6.316   3.051   6.641 -0.3567 -1.9734  1.1505
  164SAPE   C2518435   6.286   2.957   6.838  0.0782  0.0843 -1.1473
  164SAPE   H5R18436   6.244   2.862   6.801 -2.6101  1.2024 -1.1947
  164SAPE   C2618437   6.344   2.946   6.959  0.6806  0.3285 -0.0523
  164SAPE   H6R18438   6.347   2.843   6.999  2.4916  0.5548  0.5227
  164SAPE   C2718439   6.418   3.055   7.033  0.0767 -0.1735 -0.1826
  164SAPE   H7R18440   6.369   3.155   7.031  0.6879  0.1144 -1.1489
  164SAPE   H7S18441   6.513   3.081   6.981  0.7289  0.9702  1.4974
  164SAPE   C2818442   6.449   3.009   7.173  0.2970 -0.1422 -0.0696
  164SAPE   H8R18443   6.376   2.936   7.214 -0.6955 -0.4166 -2.2005
  164SAPE   C2918444   6.554   3.039   7.248  0.1770 -0.6049 -0.5469
  164SAPE   H9R18445   6.553   3.011   7.354 -1.6327  1.8562  0.1638
  164SAPE  C21018446   6.680   3.107   7.217 -0.2426  0.1012  0.1303
  164SAPE  H10R18447   6.708   3.072   7.116 -0.5049 -0.4154  0.2312
  164SAPE  H10S18448   6.758   3.079   7.290 -0.4803 -1.0121 -0.0290
  164SAPE  C21118449   6.663   3.260   7.217  0.0368  0.2231  0.4106
  164SAPE  H11R18450   6.569   3.291   7.168  0.2966  0.2992 -0.0461
  164SAPE  C21218451   6.726   3.350   7.292 -1.2268  0.0004  0.0322
  164SAPE  H12R18452   6.713   3.455   7.264  0.6926  0.6715  1.3825
  164SAPE  C21318453   6.832   3.334   7.402  0.3802  0.3631  0.3629
  164SAPE  H13R18454   6.881   3.235   7.402  0.2934  0.3125 -1.0347
  164SAPE  H13S18455   6.796   3.341   7.507 -0.2967  0.8797  0.1025
  164SAPE  C21418456   6.942   3.436   7.384  0.4286 -0.1485  0.8345
  164SAPE  H14R18457   7.001   3.401   7.298  0.7891  0.1577  0.9560
  164SAPE  C21518458   6.955   3.557   7.447 -0.4272 -0.0195  0.7767
  164SAPE  H15R18459   7.046   3.617   7.435 -1.0689  0.9817  0.7579
  164SAPE  C21618460   6.869   3.584   7.569  0.0786  0.5938  0.1968
  164SAPE  H16R18461   6.770   3.535   7.554  0.4323  0.1254 -0.6807
  164SAPE  H16S18462   6.848   3.693   7.577  0.2003  0.6753 -0.5398
  164SAPE  C21718463   6.927   3.517   7.695  0.1017 -0.3218  0.0582
  164SAPE  H17R18464   6.954   3.410   7.679 -0.9056 -0.2992 -2.1757
  164SAPE  H17S18465   6.861   3.519   7.784 -0.1430 -1.1671 -0.0948
  164SAPE  C21818466   7.057   3.586   7.745 -0.1412 -0.7062 -0.7475
  164SAPE  H18R18467   7.050   3.697   7.738  1.9501 -0.5739 -1.5351
  164SAPE  H18S18468   7.145   3.548   7.688  2.3136 -1.5300  3.1615
  164SAPE  C21918469   7.082   3.549   7.893  0.0851  0.3452  0.3904
  164SAPE  H19R18470   7.089   3.439   7.910  0.0446  0.2411 -0.2370
  164SAPE  H19S18471   6.986   3.581   7.938 -0.7825 -0.4111 -0.8686
  164SAPE  C22018472   7.218   3.610   7.948 -0.0752 -0.2065 -0.1372
  164SAPE  H20R18473   7.250   3.562   8.044 -1.2547 -2.7918 -0.9348
  164SAPE  H20S18474   7.211   3.719   7.965  1.4360 -0.2663  1.1260
  164SAPE  H20T18475   7.302   3.590   7.879 -0.1438 -1.5873  0.1506
  164SAPE   C3318476   5.710   2.811   6.790 -0.0827 -0.4358  0.7189
  164SAPE   H3X18477   5.820   2.825   6.789 -0.0381 -0.8078  0.2093
  164SAPE   H3Y18478   5.689   2.713   6.742 -0.8472  1.0024 -2.0407
  164SAPE   C3418479   5.664   2.834   6.923  0.2555  0.5861 -0.6591
  164SAPE   H4X18480   5.553   2.827   6.930  0.4255 -0.7550  2.3511
  164SAPE   H4Y18481   5.704   2.934   6.950  2.9772 -0.1830 -1.5127
  164SAPE   C3518482   5.724   2.731   7.017  0.0667  0.5797 -0.0290
  164SAPE   H5X18483   5.835   2.734   7.021  0.0909 -0.1651  3.8341
  164SAPE   H5Y18484   5.700   2.626   6.991  0.6696  0.6249 -0.7884
  164SAPE   C3618485   5.665   2.762   7.156  0.1395 -0.8177 -0.3387
  164SAPE   H6X18486   5.567   2.711   7.159 -0.6141  0.5452 -0.9043
  164SAPE   H6Y18487   5.646   2.871   7.164  0.4498 -0.6318 -1.8468
  164SAPE   C3718488   5.740   2.702   7.277 -0.8387 -0.4430  0.1879
  164SAPE   H7X18489   5.844   2.741   7.277 -0.0414 -2.4792  0.8363
  164SAPE   H7Y18490   5.754   2.593   7.261 -0.2318 -0.3273 -0.0929
  164SAPE   C3818491   5.682   2.721   7.421 -0.3598  0.0151 -0.6609
  164SAPE   H8X18492   5.573   2.697   7.415 -0.6402  0.9855  0.1880
  164SAPE   H8Y18493   5.691   2.829   7.447 -0.0830  0.1544 -1.3000
  164SAPE   C3918494   5.763   2.634   7.510  0.6024 -0.3487 -1.0124
  164SAPE   H9X18495   5.872   2.655   7.501  0.2042  1.8058 -1.1737
  164SAPE   H9Y18496   5.749   2.528   7.479  0.0039 -0.8009  0.6858
  164SAPE  C31018497   5.722   2.649   7.656 -0.0713 -0.1480 -0.3455
  164SAPE  H10X18498   5.620   2.605   7.665  0.0135 -0.6030 -1.4064
  164SAPE  H10Y18499   5.709   2.758   7.673 -0.6672 -0.2047 -0.3968
  164SAPE  C31118500   5.828   2.604   7.753 -0.0589  0.7190  0.0220
  164SAPE  H11X18501   5.927   2.641   7.721 -0.2873  1.9269  0.6308
  164SAPE  H11Y18502   5.841   2.494   7.750  2.4464  0.9458  0.7947
  164SAPE  C31218503   5.814   2.642   7.899 -0.3271 -0.1311  0.1704
  164SAPE  H12X18504   5.705   2.627   7.916 -0.2280 -0.8800  0.1493
  164SAPE  H12Y18505   5.835   2.749   7.919  1.0938 -0.6702  1.7551
  164SAPE  C31318506   5.911   2.548   7.984  0.5508  0.3076  0.4800
  164SAPE  H13X18507   6.010   2.557   7.935 -0.0880  1.7635 -0.6486
  164SAPE  H13Y18508   5.865   2.448   7.973 -0.4896  0.7519  0.6358
  164SAPE  C31418509   5.912   2.577   8.133  0.2288  0.3953  0.1613
  164SAPE  H14X18510   5.832   2.531   8.195  0.9993  1.8859  2.4154
  164SAPE  H14Y18511   5.911   2.687   8.149  0.0993  0.7823 -2.1807
  164SAPE  C31518512   6.048   2.530   8.193  0.8214 -0.2561  0.1184
  164SAPE  H15X18513   6.041   2.567   8.297 -3.0632 -0.7501  0.1700
  164SAPE  H15Y18514   6.126   2.572   8.126  0.3688 -2.7977 -2.2109
  164SAPE  C31618515   6.068   2.381   8.214  0.4535 -0.2311 -0.7094
  164SAPE  H16X18516   6.085   2.325   8.120 -1.5493 -1.5595 -0.3456
  164SAPE  H16Y18517   5.979   2.339   8.266  0.0932 -0.8016 -1.7632
  164SAPE  C31718518   6.189   2.341   8.299 -0.0040  0.4389  0.6861
  164SAPE  H17X18519   6.202   2.428   8.368  0.9726  1.1272 -0.3132
  164SAPE  H17Y18520   6.282   2.340   8.238 -0.2902 -0.3705  0.2577
  164SAPE  C31818521   6.167   2.217   8.378 -1.2780  0.3101 -0.1087
  164SAPE  H18X18522   6.150   2.125   8.318  1.0547  0.1117 -0.5641
  164SAPE  H18Y18523   6.075   2.226   8.440 -1.1033  0.1083  0.1804
  164SAPE  H18Z18524   6.252   2.207   8.448 -1.2503  2.6716  0.2706
  165SAPE     N18525   0.028   6.252   5.858  0.1025 -0.3389  0.0866
  165SAPE   HN118526   0.122   6.242   5.816  0.4446 -1.1827  1.0169
  165SAPE   HN218527  -0.018   6.159   5.864 -0.9516  0.2265  1.3771
  165SAPE   HN318528  -0.021   6.314   5.790 -0.6330 -2.0755 -1.0434
  165SAPE   C1218529   0.056   6.305   5.995 -0.4051 -0.4348  0.1786
  165SAPE  H12A18530  -0.038   6.328   6.051  0.5134  3.4922  0.4154
  165SAPE  H12B18531   0.097   6.406   5.973 -2.6647  0.8342  1.4107
  165SAPE   C1118532   0.154   6.210   6.070  1.1490  0.1946 -0.2148
  165SAPE  H11A18533   0.190   6.263   6.161  0.0983 -0.8617  0.8739
  165SAPE  H11B18534   0.233   6.173   6.003  0.1575 -4.0702  0.6620
  165SAPE     P18535   0.148   5.970   6.185  0.0807 -0.0963 -0.4467
  165SAPE   O1318536   0.064   5.892   6.281 -0.5711  0.0062 -0.2116
  165SAPE   O1418537   0.210   5.888   6.075 -0.1392 -0.0545 -0.8989
  165SAPE   O1218538   0.078   6.091   6.114  0.3078 -0.1240 -0.3366
  165SAPE   O1118539   0.266   6.030   6.271  0.2312  0.3740 -0.3363
  165SAPE    C118540   0.238   6.113   6.383  0.8936 -0.1869 -0.7675
  165SAPE    HA18541   0.320   6.187   6.392 -1.1670  2.1161  0.4526
  165SAPE    HB18542   0.144   6.172   6.369  1.3234  0.5443 -0.6157
  165SAPE    C218543   0.235   6.042   6.525  0.2167 -0.6443 -0.3436
  165SAPE    HS18544   0.296   6.109   6.589 -0.3890 -0.1773 -0.2453
  165SAPE   O2118545   0.275   5.902   6.508  0.0873  0.3229  0.0780
  165SAPE   C2118546   0.405   5.887   6.492  0.3668  0.0033  0.6810
  165SAPE   O2218547   0.487   5.962   6.542  0.2515 -0.3365  0.1397
  165SAPE   C2218548   0.429   5.755   6.416 -0.2002  0.4168  0.4518
  165SAPE   H2R18549   0.353   5.684   6.454 -0.9704  0.6418 -0.6058
  165SAPE   H2S18550   0.405   5.760   6.307 -3.7384  0.7263  1.1326
  165SAPE    C318551   0.090   6.049   6.585 -0.6448 -0.1585  0.0160
  165SAPE    HX18552   0.030   5.980   6.521  0.7702 -0.0086 -1.5536
  165SAPE    HY18553   0.055   6.152   6.607  0.4572  0.5509 -1.3940
  165SAPE   O3118554   0.096   5.978   6.716 -0.1325 -0.7518 -0.3068
  165SAPE   C3118555   0.137   6.042   6.822 -0.1713 -0.0429 -0.4382
  165SAPE   O3218556   0.167   6.159   6.842  0.3871  0.6640  0.7494
  165SAPE   C3218557   0.160   5.938   6.948 -0.3444 -0.2081 -0.7533
  165SAPE   H2X18558   0.254   5.883   6.924  0.4716  0.7886  0.0546
  165SAPE   H2Y18559   0.070   5.874   6.941 -0.4991 -0.0847  0.0179
  165SAPE   C2318560   0.568   5.687   6.424 -0.0461  0.8432  0.2330
  165SAPE   H3R18561   0.644   5.754   6.381  1.4868 -0.6794  0.4701
  165SAPE   H3S18562   0.568   5.591   6.367 -1.3048 -0.2950  2.0254
  165SAPE   C2418563   0.607   5.655   6.568 -0.2724 -0.0198 -0.6000
  165SAPE   H4R18564   0.576   5.742   6.629 -1.3635 -0.6096 -0.2851
  165SAPE   H4S18565   0.718   5.657   6.577 -0.4304  1.3416  1.9187
  165SAPE   C2518566   0.548   5.521   6.614  0.0788 -0.6492  0.2784
  165SAPE   H5R18567   0.608   5.438   6.574 -0.5006  0.2023 -2.6157
  165SAPE   C2618568   0.439   5.514   6.699 -0.4671 -0.1777 -0.3588
  165SAPE   H6R18569   0.393   5.417   6.722 -1.3051  0.5369  1.1413
  165SAPE   C2718570   0.372   5.631   6.766  0.6127  0.2738  0.0171
  165SAPE   H7R18571   0.386   5.725   6.709 -0.6081 -0.0419 -0.8575
  165SAPE   H7S18572   0.409   5.643   6.870 -2.8540  0.8110  1.3134
  165SAPE   C2818573   0.228   5.604   6.779 -0.8652  0.0507  0.0030
  165SAPE   H8R18574   0.187   5.586   6.678 -1.3358 -2.0264  0.5039
  165SAPE   C2918575   0.159   5.595   6.888  0.0958 -0.2380 -0.0033
  165SAPE   H9R18576   0.049   5.593   6.885  0.0692  0.5413  0.3754
  165SAPE  C21018577   0.210   5.608   7.027  0.9527 -0.2478  0.1699
  165SAPE  H10R18578   0.114   5.623   7.081  0.1206 -1.7992 -0.7993
  165SAPE  H10S18579   0.265   5.704   7.040 -0.8373  0.5431  2.7409
  165SAPE  C21118580   0.283   5.488   7.078 -0.7698  0.5356 -0.0616
  165SAPE  H11R18581   0.299   5.404   7.009  0.3821  0.2598  0.5169
  165SAPE  C21218582   0.333   5.471   7.205  0.0739  0.6591  1.0816
  165SAPE  H12R18583   0.404   5.391   7.229  0.3425  1.0001  1.4442
  165SAPE  C21318584   0.313   5.564   7.322  0.2625  0.1424 -0.0728
  165SAPE  H13R18585   0.309   5.671   7.292  3.7691  0.2031 -0.8105
  165SAPE  H13S18586   0.406   5.561   7.383  0.6469 -2.3159 -0.7001
  165SAPE  C21418587   0.193   5.529   7.409 -0.0712 -0.6440  0.6255
  165SAPE  H14R18588   0.117   5.489   7.340 -1.4568  0.3776  1.5096
  165SAPE  C21518589   0.177   5.538   7.539  0.6396 -0.3397  0.3164
  165SAPE  H15R18590   0.080   5.510   7.583  1.0420 -0.3910  1.1880
  165SAPE  C21618591   0.273   5.593   7.640 -0.1062  0.5320  0.8394
  165SAPE  H16R18592   0.251   5.701   7.652 -0.3064  0.9160 -2.3346
  165SAPE  H16S18593   0.368   5.576   7.586 -1.8770 -2.8173 -1.5754
  165SAPE  C21718594   0.260   5.526   7.775  0.1364 -0.0280 -0.4595
  165SAPE  H17R18595   0.339   5.552   7.848 -0.7112 -0.9623  0.8298
  165SAPE  H17S18596   0.266   5.419   7.748  3.8184  0.2727 -1.3175
  165SAPE  C21818597   0.124   5.560   7.851 -1.5961 -0.2685  0.5791
  165SAPE  H18R18598   0.028   5.534   7.801 -1.5001  0.5239 -0.0228
  165SAPE  H18S18599   0.113   5.669   7.868  0.6246 -0.0400  0.8554
  165SAPE  C21918600   0.125   5.500   7.992 -0.2654  0.7797 -0.7184
  165SAPE  H19R18601   0.198   5.562   8.048  0.8283  0.1576 -1.4288
  165SAPE  H19S18602   0.168   5.398   7.984  1.1134  1.4654 -2.9702
  165SAPE  C22018603  -0.000   5.489   8.080  0.1641 -0.0107 -0.2791
  165SAPE  H20R18604  -0.034   5.593   8.101 -0.4309 -0.6788  2.4043
  165SAPE  H20S18605   0.039   5.429   8.164  0.1580  0.8018  0.3200
  165SAPE  H20T18606  -0.071   5.447   8.005  0.9243 -1.6599 -0.1058
  165SAPE   C3318607   0.187   6.017   7.086  0.0059  0.0243  0.2394
  165SAPE   H3X18608   0.115   6.101   7.079  1.2428  1.0655 -0.4165
  165SAPE   H3Y18609   0.288   6.062   7.093  1.3423 -2.5670 -0.7827
  165SAPE   C3418610   0.148   5.945   7.209 -0.7824  0.1557 -0.3468
  165SAPE   H4X18611   0.206   5.850   7.212 -0.9281  0.0549 -0.6166
  165SAPE   H4Y18612   0.046   5.904   7.199 -1.0425  1.0589 -1.6475
  165SAPE   C3518613   0.163   6.023   7.338 -0.2120 -0.5079  1.1049
  165SAPE   H5X18614   0.109   6.119   7.331 -1.5311 -1.3221 -4.3093
  165SAPE   H5Y18615   0.272   6.045   7.338 -0.2071 -0.5247  1.4187
  165SAPE   C3618616   0.124   5.941   7.460 -0.3882  0.0058 -0.2083
  165SAPE   H6X18617   0.168   5.839   7.463  1.9410  0.9161 -0.9764
  165SAPE   H6Y18618   0.014   5.934   7.458 -0.4156 -0.4065  1.2982
  165SAPE   C3718619   0.160   6.018   7.582 -0.1762 -0.5889 -0.0931
  165SAPE   H7X18620   0.119   6.121   7.576  1.2535  0.1076  1.2391
  165SAPE   H7Y18621   0.271   6.023   7.584 -0.1809 -0.6890  1.3260
  165SAPE   C3818622   0.115   5.960   7.712 -0.1287 -0.2809 -0.0944
  165SAPE   H8X18623   0.166   5.862   7.724  0.1990 -0.4257 -2.2338
  165SAPE   H8Y18624   0.008   5.941   7.689  0.2188  0.6474 -2.7767
  165SAPE   C3918625   0.144   6.044   7.842  0.3664  0.1253  1.0932
  165SAPE   H9X18626   0.084   6.136   7.833 -0.7696 -0.6534  0.4900
  165SAPE   H9Y18627   0.254   6.062   7.838  0.6904 -1.8658 -0.6188
  165SAPE  C31018628   0.096   5.978   7.972  0.5653  0.2116  0.2014
  165SAPE  H10X18629   0.113   5.868   7.961 -0.7130  0.0753 -0.7045
  165SAPE  H10Y18630  -0.013   5.999   7.967  0.2264 -1.2568  0.8168
  165SAPE  C31118631   0.150   6.053   8.099  0.1611 -0.1697 -0.0972
  165SAPE  H11X18632   0.114   6.158   8.099 -0.7279 -0.4606 -1.1419
  165SAPE  H11Y18633   0.259   6.071   8.090  0.5117 -1.6955  0.7184
  165SAPE  C31218634   0.098   5.984   8.221  0.3336  0.6767  0.3092
  165SAPE  H12X18635  -0.013   5.997   8.224 -0.0089 -1.8893  1.6700
  165SAPE  H12Y18636   0.112   6.039   8.317 -0.0104 -0.3666  0.9735
  165SAPE  C31318637   0.126   5.830   8.240 -0.0248 -0.3401  0.2724
  165SAPE  H13X18638   0.236   5.816   8.251  0.3895  2.5387  0.7192
  165SAPE  H13Y18639   0.098   5.768   8.152  2.1529 -1.5780  0.3826
  165SAPE  C31418640   0.051   5.764   8.365 -0.4529 -0.1465 -0.0529
  165SAPE  H14X18641   0.051   5.658   8.333 -0.1097 -0.6208  1.4135
  165SAPE  H14Y18642  -0.050   5.809   8.364 -0.9181 -1.1798 -1.1039
  165SAPE  C31518643   0.115   5.804   8.499  0.5386 -0.6591 -0.0303
  165SAPE  H15X18644   0.050   5.799   8.589  1.7559 -0.8473  0.8610
  165SAPE  H15Y18645   0.154   5.907   8.493 -0.8934 -0.0630  0.3530
  165SAPE  C31618646   0.231   5.709   8.539 -0.2869  0.2514  0.2722
  165SAPE  H16X18647   0.316   5.729   8.470 -0.8607 -0.5560 -0.7064
  165SAPE  H16Y18648   0.198   5.606   8.514 -0.6426  0.5843 -0.7181
  165SAPE  C31718649   0.261   5.726   8.687 -0.0858  0.0885  0.3146
  165SAPE  H17X18650   0.235   5.634   8.745 -0.7219  0.0791  0.0221
  165SAPE  H17Y18651   0.211   5.806   8.746  0.0981 -0.3816  1.1321
  165SAPE  C31818652   0.408   5.758   8.711 -0.1346  0.4861 -0.0529
  165SAPE  H18X18653   0.432   5.854   8.660 -0.5917 -0.3612 -1.9402
  165SAPE  H18Y18654   0.481   5.677   8.692 -1.6033 -1.1639  0.9905
  165SAPE  H18Z18655   0.415   5.778   8.821 -0.0942  1.1098 -0.1620
  166SAPE     N18656   4.904   2.480   5.933 -0.1280 -0.1502 -0.0911
  166SAPE   HN118657   4.967   2.553   5.895 -1.9105  0.5293 -1.9406
  166SAPE   HN218658   4.815   2.523   5.965 -1.5666 -1.1484 -2.5270
  166SAPE   HN318659   4.926   2.439   6.026 -3.3528 -0.7944  0.5122
  166SAPE   C1218660   4.879   2.388   5.822 -0.1576  0.0516  0.6067
  166SAPE  H12A18661   4.847   2.442   5.731 -0.2619 -2.5324 -0.9920
  166SAPE  H12B18662   4.794   2.323   5.852  2.5860 -3.2205  1.8851
  166SAPE   C1118663   5.005   2.304   5.799 -0.1018 -0.0252  0.2004
  166SAPE  H11A18664   4.989   2.228   5.719 -1.3360 -0.5591  0.9226
  166SAPE  H11B18665   5.031   2.259   5.897 -1.2108  2.5706  1.7817
  166SAPE     P18666   5.256   2.312   5.755 -0.2686 -0.0352 -0.0302
  166SAPE   O1318667   5.246   2.181   5.686 -0.4632  0.4730  0.5689
  166SAPE   O1418668   5.351   2.400   5.691  0.1692 -0.2175  0.0875
  166SAPE   O1218669   5.117   2.383   5.759  0.0376 -0.3804 -0.2447
  166SAPE   O1118670   5.293   2.285   5.904  0.5701 -0.8408 -0.2642
  166SAPE    C118671   5.298   2.400   5.989 -0.1419 -0.1798  0.1876
  166SAPE    HA18672   5.273   2.495   5.937 -1.3112 -0.4000  0.3222
  166SAPE    HB18673   5.226   2.391   6.074 -0.5366  1.5982  0.0709
  166SAPE    C218674   5.443   2.411   6.045 -0.4290 -0.7955 -0.4906
  166SAPE    HS18675   5.512   2.414   5.958 -1.2304 -0.2531 -1.1292
  166SAPE   O2118676   5.474   2.291   6.116  0.2054 -0.4188 -0.4048
  166SAPE   C2118677   5.603   2.264   6.137 -0.3708  0.8125  0.1570
  166SAPE   O2218678   5.689   2.333   6.092  0.0529  0.3859 -0.0915
  166SAPE   C2218679   5.621   2.143   6.234  0.4953 -0.6255  0.5504
  166SAPE   H2R18680   5.659   2.057   6.175  0.4952  0.6204 -1.3546
  166SAPE   H2S18681   5.698   2.170   6.308 -1.7920  1.1104  2.4647
  166SAPE    C318682   5.452   2.534   6.144 -0.2097  0.8414 -0.0670
  166SAPE    HX18683   5.422   2.629   6.096  0.2364  0.8674 -0.3016
  166SAPE    HY18684   5.561   2.544   6.165 -0.3010  0.7230  0.4971
  166SAPE   O3118685   5.379   2.522   6.269 -0.3528  0.2276  0.4202
  166SAPE   C3118686   5.443   2.490   6.383  0.0546 -0.1331  0.6713
  166SAPE   O3218687   5.560   2.461   6.390 -0.1688  0.2342  0.0600
  166SAPE   C3218688   5.345   2.497   6.498 -0.7157 -0.0928  0.1936
  166SAPE   H2X18689   5.392   2.426   6.569  0.1879 -0.3123 -0.6052
  166SAPE   H2Y18690   5.243   2.467   6.468 -0.8445  0.6057 -0.1006
  166SAPE   C2318691   5.496   2.106   6.307 -0.3052  1.0311 -0.0847
  166SAPE   H3R18692   5.431   2.061   6.229 -2.3547  1.8007  1.0780
  166SAPE   H3S18693   5.439   2.194   6.346 -2.6997 -1.4897  2.6725
  166SAPE   C2418694   5.495   2.008   6.428  0.3230  0.1763 -0.3004
  166SAPE   H4R18695   5.562   1.923   6.405  1.7716  1.3983 -0.7117
  166SAPE   H4S18696   5.392   1.965   6.431  1.0122 -1.6226 -1.1342
  166SAPE   C2518697   5.541   2.075   6.551  0.1115 -0.1803 -0.2588
  166SAPE   H5R18698   5.644   2.115   6.547 -0.4393  1.2827 -0.6147
  166SAPE   C2618699   5.467   2.117   6.654  0.5621 -0.6408  0.6541
  166SAPE   H6R18700   5.499   2.190   6.729  0.0454  0.8244 -0.4979
  166SAPE   C2718701   5.315   2.106   6.660  0.1621  0.3821 -0.0330
  166SAPE   H7R18702   5.307   1.998   6.686  0.1916 -0.0350 -1.6645
  166SAPE   H7S18703   5.275   2.112   6.556 -1.7831 -1.8429  0.4976
  166SAPE   C2818704   5.237   2.180   6.758  0.1391  0.1106  0.5520
  166SAPE   H8R18705   5.231   2.287   6.733  0.9651  0.5093  1.9574
  166SAPE   C2918706   5.178   2.149   6.875 -1.2043  0.3354  0.9509
  166SAPE   H9R18707   5.125   2.231   6.925  0.3477  3.0716 -1.5541
  166SAPE  C21018708   5.164   2.020   6.941  0.2801 -0.2622  0.2762
  166SAPE  H10R18709   5.130   1.948   6.863 -1.7671 -0.0639  0.9356
  166SAPE  H10S18710   5.082   2.032   7.015  0.3628  0.5064  0.2506
  166SAPE  C21118711   5.293   1.974   6.995 -0.2944  0.0985  0.1730
  166SAPE  H11R18712   5.367   1.956   6.916 -0.3087 -1.3773  0.4785
  166SAPE  C21218713   5.317   1.956   7.129  0.3700  1.4014  0.5916
  166SAPE  H12R18714   5.415   1.920   7.163  0.1031 -1.0865 -1.0819
  166SAPE  C21318715   5.212   1.952   7.237 -1.3723  0.3985  0.3826
  166SAPE  H13R18716   5.128   2.024   7.223 -0.6734  1.4506  1.3394
  166SAPE  H13S18717   5.259   2.000   7.326  0.9620 -2.8310  1.0544
  166SAPE  C21418718   5.163   1.816   7.273  0.5222  0.1686  0.3852
  166SAPE  H14R18719   5.073   1.796   7.214  1.1367 -0.4963 -0.3334
  166SAPE  C21518720   5.207   1.724   7.366  0.2688  0.5362 -0.6715
  166SAPE  H15R18721   5.145   1.635   7.382  1.6410 -0.7233 -1.9953
  166SAPE  C21618722   5.325   1.739   7.459 -0.5570  0.4759  0.3012
  166SAPE  H16R18723   5.290   1.715   7.562 -0.6657  1.1165  0.4159
  166SAPE  H16S18724   5.367   1.841   7.460  3.9163 -1.1560  0.8165
  166SAPE  C21718725   5.459   1.662   7.437 -0.2540  0.5257  0.4136
  166SAPE  H17R18726   5.442   1.552   7.447  1.2016  0.1776 -0.5654
  166SAPE  H17S18727   5.528   1.689   7.520 -0.0065  0.0720  0.3611
  166SAPE  C21818728   5.529   1.686   7.297  0.1725  0.1410 -0.1938
  166SAPE  H18R18729   5.528   1.797   7.287 -3.2159  0.1777 -0.6721
  166SAPE  H18S18730   5.459   1.641   7.224 -1.2596  1.5476  0.2540
  166SAPE  C21918731   5.669   1.630   7.287  0.1820 -0.0559 -0.4557
  166SAPE  H19R18732   5.726   1.687   7.363  0.8190 -0.7860 -0.3683
  166SAPE  H19S18733   5.714   1.658   7.189  0.6906 -1.0246 -0.5147
  166SAPE  C22018734   5.676   1.478   7.305  0.1565 -0.6272 -0.0060
  166SAPE  H20R18735   5.608   1.413   7.247  2.5391 -3.5475  0.2414
  166SAPE  H20S18736   5.642   1.446   7.405 -1.0334  1.4323  0.3133
  166SAPE  H20T18737   5.781   1.445   7.290  0.8622  0.6149  1.8484
  166SAPE   C3318738   5.352   2.639   6.564  0.4500 -0.5929  0.5706
  166SAPE   H3X18739   5.304   2.701   6.486  1.2610  0.7012  1.0722
  166SAPE   H3Y18740   5.453   2.684   6.577  0.0459  0.7697 -0.7639
  166SAPE   C3418741   5.268   2.646   6.691  0.3296  0.3926 -0.1976
  166SAPE   H4X18742   5.166   2.607   6.672  0.3365 -0.1529  0.7898
  166SAPE   H4Y18743   5.252   2.750   6.724  0.3671 -0.1064  1.4905
  166SAPE   C3518744   5.329   2.573   6.806 -0.5019  0.4497  0.6744
  166SAPE   H5X18745   5.419   2.632   6.833 -0.8079  1.8052 -1.0772
  166SAPE   H5Y18746   5.364   2.470   6.784 -0.5939  0.4454  0.5501
  166SAPE   C3618747   5.247   2.569   6.941  0.5022  0.0713 -0.8354
  166SAPE   H6X18748   5.146   2.523   6.930 -0.0839  0.0776  3.0247
  166SAPE   H6Y18749   5.235   2.676   6.971  1.3943 -0.7964  3.1230
  166SAPE   C3718750   5.326   2.482   7.043  0.3362  0.1986 -0.2924
  166SAPE   H7X18751   5.429   2.521   7.054  0.0963  0.8355 -0.2124
  166SAPE   H7Y18752   5.343   2.377   7.012 -1.6106 -0.7564  1.5206
  166SAPE   C3818753   5.274   2.489   7.184 -0.0132  0.6658  0.7040
  166SAPE   H8X18754   5.164   2.468   7.180 -0.5039  2.2008  3.5805
  166SAPE   H8Y18755   5.294   2.585   7.236  0.2034  1.1565 -0.2784
  166SAPE   C3918756   5.337   2.368   7.263  0.0822 -0.4537  0.4409
  166SAPE   H9X18757   5.448   2.374   7.257 -0.0433  0.8202 -1.5235
  166SAPE   H9Y18758   5.315   2.272   7.210 -0.1302 -0.3807  0.3961
  166SAPE  C31018759   5.288   2.354   7.408  0.4289 -0.3371  0.0265
  166SAPE  H10X18760   5.309   2.249   7.438  0.0175 -0.0368  1.4563
  166SAPE  H10Y18761   5.178   2.360   7.421  0.6513 -0.2909  2.3506
  166SAPE  C31118762   5.355   2.461   7.493  0.2200  0.7285 -0.4496
  166SAPE  H11X18763   5.304   2.557   7.473 -0.3149  0.7677  0.9857
  166SAPE  H11Y18764   5.464   2.461   7.471  0.3486 -0.3599  0.0992
  166SAPE  C31218765   5.341   2.444   7.648  0.5422 -0.0527  0.1578
  166SAPE  H12X18766   5.238   2.420   7.680  0.9212 -0.3326  1.2288
  166SAPE  H12Y18767   5.372   2.543   7.687 -2.2863  1.8971 -2.1407
  166SAPE  C31318768   5.443   2.345   7.707 -0.2222  0.2651 -0.2138
  166SAPE  H13X18769   5.543   2.375   7.668 -0.3245  2.8805  1.2750
  166SAPE  H13Y18770   5.410   2.247   7.666 -3.4047  0.6885  1.0548
  166SAPE  C31418771   5.433   2.340   7.863  0.1437  0.2416  0.2579
  166SAPE  H14X18772   5.333   2.310   7.903  0.3437  1.3232  1.6695
  166SAPE  H14Y18773   5.453   2.441   7.904 -1.7013  0.6997  0.1221
  166SAPE  C31518774   5.519   2.229   7.929  0.0388  0.6314  0.2268
  166SAPE  H15X18775   5.621   2.238   7.886  0.1185  2.5028  0.7186
  166SAPE  H15Y18776   5.472   2.131   7.903  2.7767 -1.1252  1.4746
  166SAPE  C31618777   5.527   2.231   8.080  0.7014  0.0819  0.4183
  166SAPE  H16X18778   5.618   2.182   8.122  0.7416  0.6639  1.0308
  166SAPE  H16Y18779   5.436   2.179   8.117 -0.1723 -0.0472 -1.8057
  166SAPE  C31718780   5.531   2.364   8.150  0.3321 -0.1991 -0.6662
  166SAPE  H17X18781   5.449   2.435   8.129 -1.3288 -1.5368  0.9190
  166SAPE  H17Y18782   5.629   2.409   8.123 -0.5329  2.2662  0.0608
  166SAPE  C31818783   5.518   2.350   8.303  0.1299  0.6086  0.4555
  166SAPE  H18X18784   5.545   2.249   8.339 -2.4748 -0.2914  0.0828
  166SAPE  H18Y18785   5.414   2.378   8.330 -0.0138  0.5756 -0.0585
  166SAPE  H18Z18786   5.588   2.428   8.342 -1.3099  2.0727  0.2476
  167SAPE     N18787   0.055   2.206   5.960 -0.7889  0.0127 -0.0217
  167SAPE   HN118788   0.133   2.253   6.012 -0.0710 -1.6992  0.5203
  167SAPE   HN218789   0.031   2.123   6.017 -0.9477  0.5926  0.7788
  167SAPE   HN318790   0.102   2.160   5.880 -2.1577  0.2627 -0.9895
  167SAPE   C1218791  -0.075   2.279   5.926  0.1572  0.0548 -0.3812
  167SAPE  H12A18792  -0.127   2.204   5.863  1.1895 -0.4483 -0.6467
  167SAPE  H12B18793  -0.050   2.367   5.864  1.1534 -0.1518 -0.2856
  167SAPE   C1118794  -0.149   2.313   6.059  0.3880 -0.0714 -0.1739
  167SAPE  H11A18795  -0.238   2.371   6.025  1.1873  0.7967 -0.8200
  167SAPE  H11B18796  -0.096   2.385   6.126 -3.9063  0.8132  2.7482
  167SAPE     P18797  -0.311   2.134   6.171 -0.2464 -0.2476 -0.3822
  167SAPE   O1318798  -0.408   2.234   6.122  0.1405  0.2483 -0.4105
  167SAPE   O1418799  -0.314   1.990   6.126 -0.5185 -0.7585 -0.2399
  167SAPE   O1218800  -0.172   2.195   6.136  0.5665  0.8322 -0.5059
  167SAPE   O1118801  -0.304   2.137   6.331 -0.4463 -0.3763  0.4422
  167SAPE    C118802  -0.213   2.218   6.408 -0.0212  0.4827  0.1761
  167SAPE    HA18803  -0.193   2.313   6.355  0.7266 -0.7053 -1.7534
  167SAPE    HB18804  -0.252   2.243   6.509 -1.3105  2.9188 -0.8385
  167SAPE    C218805  -0.075   2.157   6.431 -0.7594 -0.0439  0.0189
  167SAPE    HS18806  -0.045   2.136   6.326 -2.1084 -0.6892 -0.2506
  167SAPE   O2118807  -0.074   2.039   6.503  0.1500  0.0471  0.4990
  167SAPE   C2118808   0.034   1.953   6.499 -0.4360 -0.1647  0.1598
  167SAPE   O2218809   0.147   1.986   6.463  0.0845 -0.0194  0.5462
  167SAPE   C2218810  -0.014   1.821   6.546  0.0403 -0.2196 -0.6902
  167SAPE   H2R18811  -0.115   1.828   6.591  0.9032  1.3335  1.1099
  167SAPE   H2S18812  -0.024   1.755   6.457 -2.8521  0.2097 -0.7648
  167SAPE    C318813   0.016   2.268   6.489 -0.2913  0.5374 -0.3748
  167SAPE    HX18814   0.000   2.359   6.427 -2.0204 -0.4757 -1.5240
  167SAPE    HY18815   0.124   2.250   6.469 -0.8725 -1.4370 -2.1423
  167SAPE   O3118816  -0.006   2.302   6.624  0.4032 -0.0818  0.1220
  167SAPE   C3118817   0.077   2.248   6.718  0.3724 -0.6797  0.1929
  167SAPE   O3218818   0.174   2.180   6.701 -0.3936  0.2419  0.2604
  167SAPE   C3218819   0.019   2.289   6.857 -0.2989 -0.2252  0.4372
  167SAPE   H2X18820  -0.090   2.266   6.853 -0.5795  0.5752  2.1879
  167SAPE   H2Y18821   0.011   2.399   6.865  0.9083  0.1120 -1.9959
  167SAPE   C2318822   0.094   1.752   6.641 -0.3902 -0.2291  0.3541
  167SAPE   H3R18823   0.190   1.733   6.589 -0.4162 -0.9143  0.5445
  167SAPE   H3S18824   0.060   1.650   6.669 -0.1386 -0.7471 -1.1566
  167SAPE   C2418825   0.124   1.834   6.772  0.0505  0.1581 -0.2176
  167SAPE   H4R18826   0.165   1.932   6.740 -3.1869  1.7637  0.1969
  167SAPE   H4S18827   0.202   1.784   6.834 -0.9953  0.2513  1.2180
  167SAPE   C2518828   0.002   1.837   6.858  0.0047  0.4775 -0.5974
  167SAPE   H5R18829  -0.069   1.914   6.823  0.5903  1.0813 -0.4880
  167SAPE   C2618830  -0.016   1.762   6.973 -0.1293  0.1933  0.2400
  167SAPE   H6R18831  -0.109   1.782   7.029 -0.0089  0.6998  0.2682
  167SAPE   C2718832   0.075   1.658   7.031 -0.2812  0.5290 -0.4175
  167SAPE   H7R18833   0.126   1.710   7.115  0.0603  0.9537 -0.8847
  167SAPE   H7S18834   0.146   1.626   6.952 -3.4310  0.2256 -3.3625
  167SAPE   C2818835   0.001   1.540   7.081  0.6615 -0.2216 -0.6587
  167SAPE   H8R18836  -0.034   1.472   7.002 -4.5892 -0.1238  1.1801
  167SAPE   C2918837  -0.010   1.489   7.208 -0.9098  0.0408  0.1751
  167SAPE   H9R18838  -0.073   1.401   7.228  2.8126 -3.1911 -1.1409
  167SAPE  C21018839   0.023   1.552   7.340 -0.2894 -0.5002  0.5498
  167SAPE  H10R18840  -0.064   1.613   7.372 -0.4703  1.2397 -2.7867
  167SAPE  H10S18841   0.116   1.613   7.332 -0.5147 -0.4137 -2.6045
  167SAPE  C21118842   0.070   1.441   7.442 -0.4302 -0.2179 -0.3907
  167SAPE  H11R18843   0.155   1.382   7.406  1.8622  1.0734  2.4984
  167SAPE  C21218844   0.012   1.410   7.562 -0.8347 -0.1289  0.2939
  167SAPE  H12R18845   0.045   1.312   7.602  2.1615  0.3602 -0.7207
  167SAPE  C21318846  -0.093   1.482   7.630  0.3419 -0.5358 -0.1721
  167SAPE  H13R18847  -0.142   1.417   7.705  0.8535  1.1899  1.7614
  167SAPE  H13S18848  -0.170   1.517   7.559  0.5253 -0.0328 -0.1257
  167SAPE  C21418849  -0.048   1.602   7.708 -0.0516 -1.0786 -0.3900
  167SAPE  H14R18850   0.057   1.634   7.696 -0.4118 -0.0958 -1.1183
  167SAPE  C21518851  -0.125   1.679   7.787 -0.6320  0.3321 -0.0916
  167SAPE  H15R18852  -0.079   1.761   7.843  2.0184 -1.1811  0.0917
  167SAPE  C21618853  -0.271   1.665   7.809 -0.5841  0.2891 -0.3421
  167SAPE  H16R18854  -0.316   1.593   7.738  0.0613  0.1087 -0.5796
  167SAPE  H16S18855  -0.327   1.758   7.786 -0.3225  1.0876  1.9504
  167SAPE  C21718856  -0.315   1.627   7.950 -0.6596  0.3913 -0.5428
  167SAPE  H17R18857  -0.260   1.684   8.028  0.7126 -0.9691 -0.4620
  167SAPE  H17S18858  -0.282   1.521   7.960 -0.7219  0.4690  0.5559
  167SAPE  C21818859  -0.462   1.635   7.984 -0.2208  0.1042  0.1670
  167SAPE  H18R18860  -0.518   1.615   7.890  1.3316 -0.4891 -0.6689
  167SAPE  H18S18861  -0.489   1.740   8.010  0.0404  0.8665 -2.3211
  167SAPE  C21918862  -0.500   1.539   8.102 -1.0610 -0.1704 -0.4551
  167SAPE  H19R18863  -0.402   1.532   8.152 -0.9041 -0.3169 -0.7799
  167SAPE  H19S18864  -0.541   1.441   8.071  1.6490 -1.6795  0.4634
  167SAPE  C22018865  -0.591   1.619   8.193  0.2848 -0.3412 -0.0472
  167SAPE  H20R18866  -0.551   1.702   8.256 -1.0038 -1.1070  1.8492
  167SAPE  H20S18867  -0.642   1.552   8.265  1.5702  0.6028  1.8412
  167SAPE  H20T18868  -0.670   1.659   8.127  0.4633 -1.3370 -0.8867
  167SAPE   C3318869   0.096   2.218   6.970  1.0301  0.3315  0.2980
  167SAPE   H3X18870   0.199   2.261   6.967  0.2626  2.2358 -1.3172
  167SAPE   H3Y18871   0.113   2.111   6.945  1.5630  0.6130 -0.6224
  167SAPE   C3418872   0.023   2.217   7.106  0.4895 -0.7285 -0.1477
  167SAPE   H4X18873  -0.048   2.302   7.094  2.1169  0.6513 -0.2092
  167SAPE   H4Y18874   0.084   2.218   7.198 -0.7353  1.0791  0.7196
  167SAPE   C3518875  -0.056   2.085   7.130 -0.7780  0.1140  0.6312
  167SAPE   H5X18876   0.006   1.993   7.130 -2.0037 -0.8127 -1.8094
  167SAPE   H5Y18877  -0.132   2.074   7.049 -0.3210 -1.3458  0.3668
  167SAPE   C3618878  -0.146   2.087   7.254  0.7335  0.2510 -0.1250
  167SAPE   H6X18879  -0.222   2.168   7.254  1.2399  0.7671 -1.7293
  167SAPE   H6Y18880  -0.081   2.119   7.339  1.2364 -2.8783  0.7875
  167SAPE   C3718881  -0.215   1.949   7.286 -0.7679 -0.2340  0.4132
  167SAPE   H7X18882  -0.137   1.876   7.315 -1.9391 -0.9729  1.7905
  167SAPE   H7Y18883  -0.263   1.918   7.190 -1.3284  0.1281  0.5682
  167SAPE   C3818884  -0.323   1.950   7.382  0.7280 -0.1528  0.0358
  167SAPE   H8X18885  -0.414   2.006   7.351  0.8770  1.6378  2.4825
  167SAPE   H8Y18886  -0.299   2.001   7.478 -1.2747  0.9654  0.0102
  167SAPE   C3918887  -0.361   1.808   7.415 -0.7868 -0.4815  0.1524
  167SAPE   H9X18888  -0.279   1.758   7.472 -0.0897  1.0127  0.5013
  167SAPE   H9Y18889  -0.375   1.747   7.324 -2.3698  1.0377 -0.6805
  167SAPE  C31018890  -0.484   1.796   7.512 -0.4167  0.1363 -0.2948
  167SAPE  H10X18891  -0.456   1.829   7.614  1.8128 -1.9203 -0.1529
  167SAPE  H10Y18892  -0.496   1.685   7.507 -1.2164  0.1802  0.4707
  167SAPE  C31118893  -0.625   1.847   7.475 -0.2420 -0.1004  0.0945
  167SAPE  H11X18894  -0.649   1.826   7.368 -0.7653  0.9095  0.0046
  167SAPE  H11Y18895  -0.622   1.958   7.471  1.6812 -0.1505 -0.8656
  167SAPE  C31218896  -0.731   1.813   7.567 -0.0735  0.3279 -0.7929
  167SAPE  H12X18897  -0.828   1.848   7.526 -1.1564  0.3550  1.6067
  167SAPE  H12Y18898  -0.726   1.874   7.660 -0.4127 -1.5463  0.5049
  167SAPE  C31318899  -0.736   1.665   7.609 -0.2603 -0.1481 -0.4930
  167SAPE  H13X18900  -0.641   1.639   7.661  1.4986  1.2887 -2.8015
  167SAPE  H13Y18901  -0.742   1.594   7.524  0.4159 -1.3192  0.3964
  167SAPE  C31418902  -0.850   1.633   7.704  0.3929  0.2765 -0.0010
  167SAPE  H14X18903  -0.867   1.524   7.690 -2.5637  0.3526  2.0377
  167SAPE  H14Y18904  -0.933   1.689   7.657  0.2219  0.8328  0.9399
  167SAPE  C31518905  -0.838   1.689   7.847 -0.3111  0.5822 -0.0893
  167SAPE  H15X18906  -0.828   1.799   7.829  0.8046  0.5674  0.3356
  167SAPE  H15Y18907  -0.743   1.654   7.893 -0.5872  1.1779  0.9804
  167SAPE  C31618908  -0.959   1.670   7.933 -0.1287 -0.0216 -0.2580
  167SAPE  H16X18909  -1.049   1.700   7.875 -0.5668  2.2762  1.4704
  167SAPE  H16Y18910  -0.948   1.735   8.023  0.5156 -1.2247  0.5502
  167SAPE  C31718911  -0.971   1.519   7.976 -0.1986 -0.6348  0.8507
  167SAPE  H17X18912  -0.876   1.491   8.027 -0.8086 -1.2353  1.6816
  167SAPE  H17Y18913  -0.976   1.452   7.887  0.9953 -0.1487  0.4029
  167SAPE  C31818914  -1.096   1.490   8.064 -0.0493  0.6690 -0.2988
  167SAPE  H18X18915  -1.090   1.387   8.106 -0.0024  1.2065  1.0787
  167SAPE  H18Y18916  -1.188   1.501   8.004 -0.1097 -1.1412 -0.5979
  167SAPE  H18Z18917  -1.102   1.561   8.149 -0.9935  0.2433 -0.0083
  168SAPE     N18918   1.207   2.810   6.515 -0.1439  0.2761 -0.0471
  168SAPE   HN118919   1.224   2.868   6.600 -0.2091 -1.7494  1.4082
  168SAPE   HN218920   1.107   2.784   6.514  0.0708 -0.7429  1.4113
  168SAPE   HN318921   1.255   2.720   6.534  1.1143  0.7986 -0.6328
  168SAPE   C1218922   1.243   2.885   6.393  0.6566  0.5843 -0.5520
  168SAPE  H12A18923   1.172   2.970   6.381 -0.6346 -0.4706 -0.7071
  168SAPE  H12B18924   1.238   2.806   6.314 -2.0575  0.6493 -0.5595
  168SAPE   C1118925   1.382   2.948   6.399 -0.7581  0.3307  0.2700
  168SAPE  H11A18926   1.381   3.020   6.483 -0.1061 -0.3925  0.9139
  168SAPE  H11B18927   1.396   2.999   6.301  2.1042 -0.1466  0.3446
  168SAPE     P18928   1.630   2.883   6.353  0.0752 -0.5022  0.3644
  168SAPE   O1318929   1.688   2.771   6.275  0.1032 -0.0674  0.0194
  168SAPE   O1418930   1.628   3.009   6.284  0.0089 -0.3879  0.0681
  168SAPE   O1218931   1.484   2.848   6.407 -0.2889 -0.0831 -0.6707
  168SAPE   O1118932   1.708   2.903   6.484 -0.0737 -0.3463 -0.2663
  168SAPE    C118933   1.686   2.821   6.605 -0.6784 -0.0082 -0.1019
  168SAPE    HA18934   1.638   2.722   6.593  1.2923 -1.3048  1.9615
  168SAPE    HB18935   1.789   2.801   6.640 -0.2845  0.0824 -1.1672
  168SAPE    C218936   1.606   2.894   6.723  0.0720  1.3653  0.7728
  168SAPE    HS18937   1.497   2.900   6.703 -0.8166  0.9849  4.6378
  168SAPE   O2118938   1.663   3.026   6.739 -0.1357  0.4528  0.3109
  168SAPE   C2118939   1.582   3.128   6.723 -0.1517 -0.4304  0.3270
  168SAPE   O2218940   1.463   3.130   6.698  0.0930 -0.2262  0.3214
  168SAPE   C2218941   1.664   3.253   6.743 -0.2460  0.1418  0.0688
  168SAPE   H2R18942   1.743   3.250   6.665  0.2203 -0.7200  0.5556
  168SAPE   H2S18943   1.589   3.335   6.731 -0.9443 -0.1728  1.9189
  168SAPE    C318944   1.624   2.812   6.853  0.2125  0.5923  0.2503
  168SAPE    HX18945   1.727   2.824   6.893  0.1648  2.1908 -0.0559
  168SAPE    HY18946   1.620   2.706   6.819 -0.4613  0.3767  0.9655
  168SAPE   O3118947   1.521   2.855   6.942  0.4796  0.2892  1.0462
  168SAPE   C3118948   1.433   2.762   6.979  0.4301 -1.1310  0.5924
  168SAPE   O3218949   1.430   2.644   6.945  0.2119  0.1248 -0.6170
  168SAPE   C3218950   1.334   2.826   7.077  0.4250  0.3119  0.4218
  168SAPE   H2X18951   1.308   2.922   7.028 -2.0924  1.4726  3.6546
  168SAPE   H2Y18952   1.394   2.863   7.163  0.6927  0.1293  0.3141
  168SAPE   C2318953   1.726   3.255   6.885 -0.4349 -0.4136 -0.8388
  168SAPE   H3R18954   1.793   3.168   6.898 -1.8621 -1.7483 -2.0557
  168SAPE   H3S18955   1.641   3.245   6.957  0.2902  0.4514  0.1741
  168SAPE   C2418956   1.818   3.375   6.925 -0.2299  0.0163  0.7916
  168SAPE   H4R18957   1.860   3.359   7.026  1.7562  2.0353  0.3681
  168SAPE   H4S18958   1.755   3.466   6.927  0.2458  0.4748 -1.6376
  168SAPE   C2518959   1.937   3.403   6.844 -0.1073 -0.3615 -0.1761
  168SAPE   H5R18960   1.923   3.411   6.735  3.5773  1.4260 -0.6495
  168SAPE   C2618961   2.065   3.412   6.888  0.1572 -0.4006 -0.6638
  168SAPE   H6R18962   2.141   3.421   6.808 -0.8195  1.2967 -1.4421
  168SAPE   C2718963   2.125   3.385   7.019 -0.7821  0.2455 -0.0552
  168SAPE   H7R18964   2.217   3.324   7.009 -2.0741 -2.6352  3.6646
  168SAPE   H7S18965   2.050   3.329   7.077 -0.1259 -0.1048  0.4654
  168SAPE   C2818966   2.165   3.518   7.080 -0.0881 -0.2991 -0.0982
  168SAPE   H8R18967   2.091   3.596   7.056 -1.9436 -0.9699  2.8902
  168SAPE   C2918968   2.263   3.549   7.161 -0.0288 -0.0457 -0.2792
  168SAPE   H9R18969   2.271   3.650   7.202 -2.0769  0.3542 -0.7831
  168SAPE  C21018970   2.367   3.445   7.208  0.0358 -0.2141  0.5717
  168SAPE  H10R18971   2.438   3.431   7.124 -1.5745  3.1295 -1.5386
  168SAPE  H10S18972   2.310   3.349   7.216 -2.3675  0.8492 -2.0553
  168SAPE  C21118973   2.410   3.477   7.348  0.3812 -0.9397 -0.1081
  168SAPE  H11R18974   2.330   3.465   7.423  0.6802 -1.2014  0.1739
  168SAPE  C21218975   2.509   3.559   7.393 -0.0249  0.0037  0.3292
  168SAPE  H12R18976   2.520   3.571   7.501  1.2376 -0.6351  0.2912
  168SAPE  C21318977   2.615   3.625   7.306 -0.3274  0.2800 -0.2032
  168SAPE  H13R18978   2.637   3.725   7.348  1.0334 -0.7008  1.6211
  168SAPE  H13S18979   2.581   3.620   7.201  0.4485  0.8499 -0.4938
  168SAPE  C21418980   2.742   3.548   7.300  0.7515 -0.5948 -0.3814
  168SAPE  H14R18981   2.737   3.458   7.236 -2.1502 -0.4687 -0.4772
  168SAPE  C21518982   2.863   3.584   7.349 -0.0367 -0.9598 -0.2848
  168SAPE  H15R18983   2.944   3.515   7.320  0.4155  0.2505 -2.1203
  168SAPE  C21618984   2.899   3.712   7.425 -0.4869  0.4074  0.5686
  168SAPE  H16R18985   2.821   3.790   7.419 -0.4035  0.4398 -0.2321
  168SAPE  H16S18986   2.987   3.758   7.376 -0.3513 -0.1110  0.3120
  168SAPE  C21718987   2.919   3.681   7.568  0.0317 -0.1292  0.5289
  168SAPE  H17R18988   2.960   3.770   7.620 -0.6564  1.1442 -1.0400
  168SAPE  H17S18989   2.989   3.597   7.588 -1.3230 -1.2573  0.7318
  168SAPE  C21818990   2.787   3.638   7.641  0.0296  0.0541 -0.3949
  168SAPE  H18R18991   2.719   3.572   7.584  1.4009 -1.4542 -0.3520
  168SAPE  H18S18992   2.734   3.734   7.663 -0.3844 -0.6075  1.7368
  168SAPE  C21918993   2.818   3.574   7.785 -0.2164  0.4221  0.4433
  168SAPE  H19R18994   2.899   3.632   7.835 -0.6272  0.5981  0.9147
  168SAPE  H19S18995   2.873   3.480   7.761  1.1235  0.9634  1.2547
  168SAPE  C22018996   2.695   3.562   7.866 -0.6997 -1.0524 -0.4211
  168SAPE  H20R18997   2.701   3.515   7.967  0.6147  0.0377  0.0377
  168SAPE  H20S18998   2.634   3.496   7.802  0.3869 -1.0596 -1.4843
  168SAPE  H20T18999   2.645   3.661   7.880 -0.1655 -0.6141 -1.5256
  168SAPE   C3319000   1.210   2.748   7.115 -0.2093  0.3847  0.0598
  168SAPE   H3X19001   1.243   2.643   7.130 -0.8174 -0.0035 -1.2215
  168SAPE   H3Y19002   1.139   2.753   7.030  0.5682  1.2101 -0.5724
  168SAPE   C3419003   1.133   2.790   7.236 -0.3024  0.3673  0.3166
  168SAPE   H4X19004   1.046   2.722   7.249 -0.4257  0.6575  1.1093
  168SAPE   H4Y19005   1.093   2.892   7.219 -0.1940  0.3358 -0.1311
  168SAPE   C3519006   1.217   2.792   7.363 -0.8588 -0.0178 -0.2599
  168SAPE   H5X19007   1.149   2.823   7.445  0.5309 -0.4266  1.0824
  168SAPE   H5Y19008   1.291   2.874   7.348 -0.4579  0.4911  3.5372
  168SAPE   C3619009   1.296   2.669   7.397 -0.9809  0.3880 -0.1196
  168SAPE   H6X19010   1.352   2.620   7.314 -0.9733  1.5739 -0.8477
  168SAPE   H6Y19011   1.223   2.594   7.434 -0.2301 -2.1095 -3.3126
  168SAPE   C3719012   1.409   2.698   7.501 -0.2361  0.1772 -0.6321
  168SAPE   H7X19013   1.480   2.762   7.445  0.7617  1.0101  1.4747
  168SAPE   H7Y19014   1.450   2.598   7.526 -1.0216  0.2604  1.1230
  168SAPE   C3819015   1.355   2.765   7.630  0.2440 -0.0806  0.6316
  168SAPE   H8X19016   1.282   2.694   7.674  0.7718 -0.0333  1.6095
  168SAPE   H8Y19017   1.302   2.860   7.610  0.1194 -0.2126  0.3277
  168SAPE   C3919018   1.461   2.812   7.736  0.1044  0.0562 -0.1526
  168SAPE   H9X19019   1.497   2.910   7.700  0.4992 -0.0654 -0.0915
  168SAPE   H9Y19020   1.540   2.735   7.748 -1.0537 -1.0177  1.0015
  168SAPE  C31019021   1.392   2.848   7.873  0.0566 -0.7265 -0.3230
  168SAPE  H10X19022   1.324   2.764   7.900  1.0921 -1.4416  0.1447
  168SAPE  H10Y19023   1.332   2.934   7.838  1.4174 -0.4666 -2.1930
  168SAPE  C31119024   1.483   2.882   7.989 -0.8933 -0.0482  0.1530
  168SAPE  H11X19025   1.543   2.790   7.997 -2.3603 -0.9140  1.9448
  168SAPE  H11Y19026   1.416   2.879   8.077  0.3943  0.2922  1.1817
  168SAPE  C31219027   1.567   3.015   7.973 -0.0653  0.5894  0.7466
  168SAPE  H12X19028   1.498   3.100   7.952 -0.0230  0.8190  1.4756
  168SAPE  H12Y19029   1.638   3.004   7.888 -1.4408 -0.9847 -0.2718
  168SAPE  C31319030   1.642   3.047   8.098 -0.3316 -0.1701 -0.2990
  168SAPE  H13X19031   1.708   2.965   8.133  2.1076  1.5421 -0.6502
  168SAPE  H13Y19032   1.570   3.078   8.177  0.8870 -1.6481  1.4875
  168SAPE  C31419033   1.754   3.157   8.081  0.7624  0.3885  0.2361
  168SAPE  H14X19034   1.698   3.253   8.075  0.1885 -0.0140 -1.3741
  168SAPE  H14Y19035   1.785   3.146   7.975 -1.8975 -1.7237 -0.4510
  168SAPE  C31519036   1.866   3.158   8.183  0.0256 -0.3649 -0.4626
  168SAPE  H15X19037   1.920   3.061   8.179 -0.5897 -0.7729  0.7540
  168SAPE  H15Y19038   1.835   3.174   8.288 -0.1124  0.7849 -0.6624
  168SAPE  C31619039   1.970   3.272   8.149  0.5720  0.0896  0.0220
  168SAPE  H16X19040   1.969   3.279   8.039  1.2689  4.6558  0.1064
  168SAPE  H16Y19041   2.069   3.239   8.187  0.3640  0.1769  0.6625
  168SAPE  C31719042   1.933   3.415   8.203  0.2328 -0.2950  0.5524
  168SAPE  H17X19043   1.964   3.428   8.309  1.7024  1.0166  0.0061
  168SAPE  H17Y19044   1.823   3.428   8.200 -0.0397 -2.2330  0.8686
  168SAPE  C31819045   1.988   3.525   8.113 -0.8333 -0.2900 -0.0414
  168SAPE  H18X19046   1.955   3.622   8.156 -0.0331  0.2903 -0.7068
  168SAPE  H18Y19047   1.943   3.514   8.012 -0.5091  1.9014 -0.4569
  168SAPE  H18Z19048   2.099   3.523   8.109 -0.7270 -3.9919  0.7311
  169SAPE     N19049   1.067   5.194   6.101  0.2085 -0.3688  0.0158
  169SAPE   HN119050   1.061   5.172   6.000  0.3253  0.2111 -0.1194
  169SAPE   HN219051   1.077   5.297   6.104  1.6042 -0.4627 -0.6228
  169SAPE   HN319052   1.158   5.153   6.132  0.7920  0.8637 -0.0252
  169SAPE   C1219053   0.951   5.149   6.182 -0.5202  0.0470 -0.8066
  169SAPE  H12A19054   0.977   5.166   6.289  2.1732  0.5709 -1.4746
  169SAPE  H12B19055   0.924   5.045   6.152  3.1633 -1.3160  0.1450
  169SAPE   C1119056   0.825   5.232   6.149  0.1441  0.1762  0.5646
  169SAPE  H11A19057   0.814   5.222   6.039  1.3920 -1.0659  0.5317
  169SAPE  H11B19058   0.853   5.335   6.180  2.7449 -0.3387  0.1087
  169SAPE     P19059   0.655   5.245   6.338 -0.0229  0.0664  0.4105
  169SAPE   O1319060   0.751   5.337   6.402  0.6970 -0.3852 -0.1080
  169SAPE   O1419061   0.519   5.297   6.311  0.1967  0.3392  0.5810
  169SAPE   O1219062   0.711   5.183   6.206  0.5575 -0.0019  0.5582
  169SAPE   O1119063   0.645   5.115   6.424  0.1784  0.2059 -0.3651
  169SAPE    C119064   0.532   5.043   6.448  0.1740  0.0701  0.0715
  169SAPE    HA19065   0.466   5.057   6.360  0.6719  1.6313 -0.0882
  169SAPE    HB19066   0.559   4.935   6.448  0.1095  0.0539  0.0510
  169SAPE    C219067   0.460   5.068   6.584 -0.3921 -0.1491 -0.0851
  169SAPE    HS19068   0.423   5.172   6.586 -0.9806 -0.3592  0.4406
  169SAPE   O2119069   0.553   5.038   6.693  0.1726  0.0238  0.0885
  169SAPE   C2119070   0.537   5.108   6.803  0.3568 -0.7753  1.0115
  169SAPE   O2219071   0.448   5.190   6.823  0.2180 -0.4233 -0.4135
  169SAPE   C2219072   0.641   5.098   6.905  0.1546 -0.4637 -0.0725
  169SAPE   H2R19073   0.692   5.000   6.910 -0.3633 -0.9839 -3.0464
  169SAPE   H2S19074   0.716   5.175   6.874  0.1839 -0.5873 -0.3139
  169SAPE    C319075   0.338   4.968   6.590  0.5559 -0.3355  0.5661
  169SAPE    HX19076   0.388   4.870   6.608  1.8381  0.0639 -0.6080
  169SAPE    HY19077   0.284   4.967   6.493 -3.4933 -1.6564  2.5996
  169SAPE   O3119078   0.243   4.994   6.695  0.0695  0.6845 -0.0522
  169SAPE   C3119079   0.155   5.089   6.674 -0.1217  0.2823  0.5574
  169SAPE   O3219080   0.134   5.150   6.570  0.6168  0.0471 -0.1666
  169SAPE   C3219081   0.087   5.111   6.807 -0.1476 -0.7906  0.3565
  169SAPE   H2X19082   0.159   5.148   6.884  1.2201 -1.4843 -0.5485
  169SAPE   H2Y19083   0.039   5.018   6.842 -4.0563  0.4053 -1.3407
  169SAPE   C2319084   0.595   5.143   7.047  0.5384  0.1093 -0.6704
  169SAPE   H3R19085   0.512   5.217   7.039  0.5463  0.1878 -0.0505
  169SAPE   H3S19086   0.684   5.179   7.103  2.0630 -3.0453 -0.8431
  169SAPE   C2419087   0.542   5.025   7.136 -0.3083 -0.0639 -0.4035
  169SAPE   H4R19088   0.551   5.054   7.243  0.7427  1.7261 -0.9287
  169SAPE   H4S19089   0.611   4.939   7.129 -2.3442 -2.0155  1.7056
  169SAPE   C2519090   0.402   4.969   7.112  0.1389 -0.6911 -0.2825
  169SAPE   H5R19091   0.371   4.932   7.013  3.5571 -1.5211 -1.1791
  169SAPE   C2619092   0.318   4.947   7.216  0.4558 -0.5233  0.4060
  169SAPE   H6R19093   0.226   4.891   7.195 -2.0086  3.5238 -0.5690
  169SAPE   C2719094   0.342   4.965   7.368 -0.4794 -0.6656 -0.9159
  169SAPE   H7R19095   0.450   4.949   7.389  1.1981  1.9626 -5.8401
  169SAPE   H7S19096   0.278   4.902   7.433  1.0892  0.4689  1.8798
  169SAPE   C2819097   0.326   5.111   7.412  0.2287  0.6468 -0.1466
  169SAPE   H8R19098   0.343   5.182   7.330 -3.5457  1.5307 -0.3247
  169SAPE   C2919099   0.294   5.155   7.535 -0.8777 -0.1927 -0.1775
  169SAPE   H9R19100   0.301   5.264   7.550  1.2175 -0.4670  1.2295
  169SAPE  C21019101   0.256   5.068   7.651 -0.4886  0.7886 -0.0575
  169SAPE  H10R19102   0.231   4.964   7.620 -5.4787  1.4124  1.1005
  169SAPE  H10S19103   0.179   5.124   7.708 -3.5545 -1.0284 -2.0823
  169SAPE  C21119104   0.392   5.048   7.713 -0.7513 -0.4143 -0.4180
  169SAPE  H11R19105   0.477   5.059   7.644  0.4310 -0.8595  0.9193
  169SAPE  C21219106   0.412   5.014   7.837  0.6342  0.4941 -0.1625
  169SAPE  H12R19107   0.515   5.010   7.874  0.8901  0.5607 -0.8435
  169SAPE  C21319108   0.303   4.997   7.935 -0.1579  0.3270  0.8712
  169SAPE  H13R19109   0.239   4.912   7.903 -0.6923  0.7914  0.6970
  169SAPE  H13S19110   0.234   5.084   7.933 -1.6619 -0.7904  1.8611
  169SAPE  C21419111   0.344   4.973   8.075  0.4553  0.5125  0.5672
  169SAPE  H14R19112   0.451   4.954   8.089  0.3072 -0.4520  0.4784
  169SAPE  C21519113   0.274   4.992   8.185 -1.0116 -0.1341  0.1758
  169SAPE  H15R19114   0.327   4.968   8.278  2.1856  0.4966 -1.3037
  169SAPE  C21619115   0.126   5.034   8.200  0.2234 -0.1216 -0.6083
  169SAPE  H16R19116   0.083   5.075   8.106  1.5890  1.5667 -0.5515
  169SAPE  H16S19117   0.107   5.121   8.266  2.8461  1.0629 -1.2543
  169SAPE  C21719118   0.034   4.924   8.256  0.5569 -0.2098  0.2336
  169SAPE  H17R19119   0.087   4.886   8.346  1.9373  0.8987 -0.0619
  169SAPE  H17S19120   0.028   4.842   8.181  0.6363  0.0022 -0.0081
  169SAPE  C21819121  -0.108   4.972   8.302 -0.4271 -0.2087  0.6361
  169SAPE  H18R19122  -0.149   5.031   8.217 -1.0776 -1.3860  0.1140
  169SAPE  H18S19123  -0.097   5.045   8.385  0.6507  0.2086  0.1521
  169SAPE  C21919124  -0.201   4.854   8.351 -0.2787 -0.0821  1.4379
  169SAPE  H19R19125  -0.133   4.799   8.420 -0.4334 -1.7901  0.3005
  169SAPE  H19S19126  -0.222   4.781   8.269  0.1116 -0.6323  1.8136
  169SAPE  C22019127  -0.327   4.889   8.421 -0.4832 -0.6978 -0.1599
  169SAPE  H20R19128  -0.393   4.956   8.363 -1.8249 -1.4781  0.4159
  169SAPE  H20S19129  -0.309   4.932   8.522  0.5373 -0.1369 -0.5717
  169SAPE  H20T19130  -0.393   4.800   8.429  0.8636 -1.9797 -2.2427
  169SAPE   C3319131  -0.025   5.220   6.802 -0.1838  0.8221  0.6190
  169SAPE   H3X19132  -0.087   5.203   6.712  0.3831  0.4731  0.2821
  169SAPE   H3Y19133   0.020   5.321   6.792  3.1486 -0.4301  1.4961
  169SAPE   C3419134  -0.109   5.222   6.930 -0.2965 -0.0926 -1.0899
  169SAPE   H4X19135  -0.158   5.123   6.942 -0.8747  0.0787 -1.9841
  169SAPE   H4Y19136  -0.191   5.294   6.912 -0.5680  0.7360  2.7223
  169SAPE   C3519137  -0.028   5.256   7.061  0.6687 -0.4775 -0.3440
  169SAPE   H5X19138  -0.032   5.367   7.065 -0.4586 -0.4555 -1.2810
  169SAPE   H5Y19139   0.069   5.204   7.046  0.8372  0.5444 -3.6444
  169SAPE   C3619140  -0.106   5.197   7.176 -0.3724  0.1176  0.7659
  169SAPE   H6X19141  -0.065   5.096   7.195 -1.3217 -0.3703  0.3083
  169SAPE   H6Y19142  -0.215   5.185   7.156 -0.4285  2.0649 -0.4329
  169SAPE   C3719143  -0.090   5.268   7.309 -0.0075 -0.5138 -0.1326
  169SAPE   H7X19144  -0.123   5.374   7.306  0.6422 -0.3233 -0.9128
  169SAPE   H7Y19145   0.018   5.273   7.337 -0.1665 -0.2272  0.4541
  169SAPE   C3819146  -0.161   5.189   7.420 -0.1771 -0.2558 -0.0469
  169SAPE   H8X19147  -0.120   5.086   7.412 -1.4943 -0.8314  0.4234
  169SAPE   H8Y19148  -0.271   5.195   7.410 -0.3366 -2.5724 -0.3271
  169SAPE   C3919149  -0.142   5.261   7.554 -0.1311 -0.4434  0.1617
  169SAPE   H9X19150  -0.202   5.354   7.545 -1.3581 -1.1405  0.9134
  169SAPE   H9Y19151  -0.035   5.285   7.575 -0.1309  0.2102 -0.5441
  169SAPE  C31019152  -0.212   5.185   7.669  0.0307 -0.1433  0.0387
  169SAPE  H10X19153  -0.156   5.092   7.693  0.7756  0.2826 -0.0504
  169SAPE  H10Y19154  -0.317   5.158   7.642  0.7607 -2.2469 -0.9208
  169SAPE  C31119155  -0.220   5.272   7.801  0.0086  0.4292  0.5798
  169SAPE  H11X19156  -0.267   5.367   7.770 -0.6313  0.2161  0.8796
  169SAPE  H11Y19157  -0.114   5.284   7.832  1.5346 -1.5563 -3.1497
  169SAPE  C31219158  -0.307   5.205   7.905  0.0057 -0.8379 -1.3116
  169SAPE  H12X19159  -0.271   5.100   7.911 -1.7565 -1.4009  0.1186
  169SAPE  H12Y19160  -0.415   5.202   7.881 -0.3353  1.3494 -0.3160
  169SAPE  C31319161  -0.313   5.285   8.044  0.0948 -0.0889 -0.2061
  169SAPE  H13X19162  -0.352   5.383   8.008  3.2831  0.1727 -3.5898
  169SAPE  H13Y19163  -0.207   5.298   8.076  0.1684  0.8437 -0.7937
  169SAPE  C31419164  -0.395   5.222   8.149  0.5492  0.3796 -0.2368
  169SAPE  H14X19165  -0.345   5.146   8.213  1.2467  1.0236  0.0030
  169SAPE  H14Y19166  -0.488   5.179   8.106  1.2975 -0.0538 -1.4565
  169SAPE  C31519167  -0.436   5.331   8.259  0.6639  0.6894  0.1015
  169SAPE  H15X19168  -0.498   5.275   8.333 -0.3978  1.0171 -0.5114
  169SAPE  H15Y19169  -0.502   5.408   8.213  0.3001 -0.1940 -0.8952
  169SAPE  C31619170  -0.325   5.392   8.337  0.0647 -1.0021  0.3473
  169SAPE  H16X19171  -0.253   5.436   8.266 -2.6456 -0.0534 -2.0285
  169SAPE  H16Y19172  -0.270   5.322   8.403 -1.3357 -1.5267  0.9959
  169SAPE  C31719173  -0.383   5.511   8.424 -0.5461 -0.2331 -0.3438
  169SAPE  H17X19174  -0.441   5.460   8.504  0.5496 -0.1854  0.5143
  169SAPE  H17Y19175  -0.452   5.567   8.358  1.4683  0.6067 -1.8589
  169SAPE  C31819176  -0.290   5.619   8.479  0.4282 -0.1804 -0.2260
  169SAPE  H18X19177  -0.205   5.581   8.539 -2.4372 -0.0790  4.3559
  169SAPE  H18Y19178  -0.341   5.693   8.544  0.2415 -1.5543  1.2506
  169SAPE  H18Z19179  -0.260   5.677   8.389  0.3713  1.3638  0.7341
  170SAPE     N19180   1.329   1.951   6.394  0.2122  0.1256 -0.0475
  170SAPE   HN119181   1.240   1.898   6.399 -0.0586  0.6496  0.9490
  170SAPE   HN219182   1.403   1.881   6.373  0.1262  0.7352 -2.6318
  170SAPE   HN319183   1.351   1.995   6.486 -0.4820  2.0266 -0.7437
  170SAPE   C1219184   1.318   2.055   6.282 -0.7030  0.0728 -0.7414
  170SAPE  H12A19185   1.272   2.144   6.329 -0.0602 -0.8968  1.9033
  170SAPE  H12B19186   1.250   2.024   6.200 -0.7799 -0.6323 -0.4170
  170SAPE   C1119187   1.463   2.103   6.222  1.4848 -0.1881  0.5590
  170SAPE  H11A19188   1.426   2.186   6.158  0.0566 -1.6581 -0.6026
  170SAPE  H11B19189   1.519   2.020   6.173  1.2724  0.1948 -0.3579
  170SAPE     P19190   1.695   2.193   6.324 -0.2233 -0.3236 -0.6762
  170SAPE   O1319191   1.712   2.237   6.187 -0.2536 -0.2018  0.0192
  170SAPE   O1419192   1.710   2.289   6.434  0.6916 -0.2173 -0.1728
  170SAPE   O1219193   1.544   2.144   6.337  0.0260  0.1139 -0.0584
  170SAPE   O1119194   1.777   2.065   6.342 -0.6000 -0.4081 -0.4536
  170SAPE    C119195   1.744   1.922   6.345 -0.6140 -0.5698  0.2567
  170SAPE    HA19196   1.658   1.899   6.278  0.7582 -2.4642 -0.9647
  170SAPE    HB19197   1.828   1.870   6.294  0.1735  1.7734 -0.9438
  170SAPE    C219198   1.718   1.883   6.491  0.5083  0.3776  0.5982
  170SAPE    HS19199   1.614   1.921   6.507 -0.5997 -0.2680 -3.7605
  170SAPE   O2119200   1.807   1.946   6.580  0.0369  0.3863  0.0584
  170SAPE   C2119201   1.758   2.036   6.664  0.0655 -0.6655 -0.1690
  170SAPE   O2219202   1.642   2.064   6.676 -0.2528  0.0445 -0.1965
  170SAPE   C2219203   1.881   2.109   6.732 -0.1059 -0.1024 -0.5241
  170SAPE   H2R19204   1.908   2.051   6.823 -1.3478 -1.0511 -0.7241
  170SAPE   H2S19205   1.968   2.085   6.667  0.0083  0.8564 -0.7341
  170SAPE    C319206   1.714   1.731   6.491  0.0935 -0.9337 -0.1038
  170SAPE    HX19207   1.807   1.677   6.463 -1.0020 -1.8847 -2.1623
  170SAPE    HY19208   1.650   1.693   6.409  2.6983 -1.3926 -2.0670
  170SAPE   O3119209   1.660   1.677   6.617  0.0720 -0.3547  0.3175
  170SAPE   C3119210   1.535   1.683   6.639  0.5427  0.0121  0.2585
  170SAPE   O3219211   1.444   1.707   6.558 -0.2246 -0.2300  0.1967
  170SAPE   C3219212   1.514   1.653   6.790 -0.8481 -0.6463  0.1611
  170SAPE   H2X19213   1.615   1.676   6.831 -0.1076 -1.4646 -1.0967
  170SAPE   H2Y19214   1.486   1.546   6.798 -0.7621 -0.7045 -0.2738
  170SAPE   C2319215   1.869   2.266   6.720  0.4723 -0.2261 -0.1774
  170SAPE   H3R19216   1.775   2.305   6.764  0.4331 -0.9952  0.4506
  170SAPE   H3S19217   1.869   2.302   6.615 -0.5546  0.2676 -0.0172
  170SAPE   C2419218   1.988   2.336   6.783 -0.1171 -0.3999  0.2797
  170SAPE   H4R19219   2.086   2.309   6.739 -0.5625  1.7305 -2.2517
  170SAPE   H4S19220   1.993   2.308   6.891  2.5176 -2.2775 -0.2290
  170SAPE   C2519221   1.963   2.489   6.776  0.0492  0.3641  0.3982
  170SAPE   H5R19222   1.962   2.523   6.671 -2.3409 -0.9595 -0.0999
  170SAPE   C2619223   1.929   2.575   6.875  0.9354  0.8483 -0.0431
  170SAPE   H6R19224   1.916   2.684   6.862 -0.2162  0.8362  0.8425
  170SAPE   C2719225   1.918   2.531   7.025  0.2295  0.0940 -0.2187
  170SAPE   H7R19226   2.011   2.566   7.074 -0.6219  1.8966  0.2209
  170SAPE   H7S19227   1.912   2.422   7.045 -1.1103  0.5775  2.5953
  170SAPE   C2819228   1.790   2.592   7.091 -0.0324 -0.1689  0.0875
  170SAPE   H8R19229   1.697   2.575   7.034 -0.0924  0.8644 -0.1480
  170SAPE   C2919230   1.773   2.638   7.217 -0.6717 -1.3845 -0.0997
  170SAPE   H9R19231   1.670   2.658   7.250 -2.0996 -3.2653 -3.0470
  170SAPE  C21019232   1.874   2.646   7.327 -0.4844  0.2233  0.1206
  170SAPE  H10R19233   1.921   2.746   7.327  0.8553 -0.3852 -0.9270
  170SAPE  H10S19234   1.951   2.566   7.332 -1.1248 -0.3818  3.8619
  170SAPE  C21119235   1.802   2.617   7.455  0.1993 -0.3421 -1.1660
  170SAPE  H11R19236   1.737   2.530   7.438 -0.5841  0.3510 -1.7640
  170SAPE  C21219237   1.840   2.653   7.582  0.4038  0.0245 -0.6020
  170SAPE  H12R19238   1.781   2.620   7.669  0.9504 -1.2437 -0.7025
  170SAPE  C21319239   1.961   2.740   7.623  0.1053  0.0369  0.8050
  170SAPE  H13R19240   2.010   2.778   7.531  0.1810 -0.8743  0.4564
  170SAPE  H13S19241   2.040   2.687   7.679  1.5189 -0.3127 -1.3877
  170SAPE  C21419242   1.905   2.866   7.702  0.4589 -0.5081  0.3145
  170SAPE  H14R19243   1.837   2.934   7.649 -0.8382 -0.1406  2.3221
  170SAPE  C21519244   1.930   2.894   7.832  0.5412 -0.6894  0.1264
  170SAPE  H15R19245   1.871   2.976   7.875  2.6163  0.9646  0.0182
  170SAPE  C21619246   2.036   2.830   7.926 -0.1176 -0.4055  0.0915
  170SAPE  H16R19247   2.070   2.912   7.992  0.9649 -0.3502 -0.5080
  170SAPE  H16S19248   2.125   2.782   7.880  0.0048 -0.4327  0.3523
  170SAPE  C21719249   1.965   2.725   8.012 -0.5083  0.1382  0.9627
  170SAPE  H17R19250   1.923   2.649   7.944  2.3171 -0.2190 -0.5603
  170SAPE  H17S19251   1.880   2.757   8.076 -1.9137 -0.8805 -0.3459
  170SAPE  C21819252   2.051   2.657   8.117  0.3770 -0.6145  0.2543
  170SAPE  H18R19253   2.149   2.624   8.077  0.1889 -1.2468  0.3034
  170SAPE  H18S19254   1.992   2.567   8.144 -0.9684  0.0814 -0.2756
  170SAPE  C21919255   2.066   2.735   8.255 -0.3108  0.4275  0.5510
  170SAPE  H19R19256   1.968   2.728   8.306  0.3735 -0.6957  1.7733
  170SAPE  H19S19257   2.091   2.840   8.229 -0.4956  0.8186  1.8688
  170SAPE  C22019258   2.186   2.696   8.333  1.3272 -0.3181 -0.0218
  170SAPE  H20R19259   2.280   2.693   8.275 -0.0394  2.7050 -2.6984
  170SAPE  H20S19260   2.175   2.594   8.375  0.0104  0.5118  1.7625
  170SAPE  H20T19261   2.192   2.765   8.419  0.5812 -1.8821  1.3504
  170SAPE   C3319262   1.396   1.739   6.839 -0.9525  0.0247  1.2160
  170SAPE   H3X19263   1.307   1.733   6.772 -1.6217  4.7069  1.3328
  170SAPE   H3Y19264   1.430   1.843   6.817 -1.3195 -0.2733 -0.9757
  170SAPE   C3419265   1.377   1.724   6.987 -0.2409 -0.0982  0.0205
  170SAPE   H4X19266   1.347   1.622   7.020 -1.2740  0.1827 -0.0122
  170SAPE   H4Y19267   1.302   1.795   7.028 -0.6068 -0.2102 -0.4397
  170SAPE   C3519268   1.503   1.757   7.071 -0.2854 -0.5919  0.2432
  170SAPE   H5X19269   1.549   1.854   7.041 -1.2274 -0.7188 -1.6966
  170SAPE   H5Y19270   1.573   1.672   7.058  1.2142  0.7868 -1.3767
  170SAPE   C3619271   1.473   1.784   7.223 -0.1068 -0.8480  0.2742
  170SAPE   H6X19272   1.410   1.874   7.238  1.6397  0.6193 -0.8480
  170SAPE   H6Y19273   1.564   1.815   7.279 -1.0723 -0.2369  1.5716
  170SAPE   C3719274   1.402   1.672   7.290 -0.6696  0.1820 -0.0541
  170SAPE   H7X19275   1.481   1.597   7.313 -1.7574 -1.1765 -0.5883
  170SAPE   H7Y19276   1.326   1.621   7.227 -0.3133 -1.0836  0.5006
  170SAPE   C3819277   1.329   1.713   7.423 -0.4647  0.3847 -0.1806
  170SAPE   H8X19278   1.286   1.624   7.473 -1.9907  0.2222 -1.6947
  170SAPE   H8Y19279   1.242   1.775   7.395  0.4616  0.7320 -2.5265
  170SAPE   C3919280   1.426   1.780   7.518 -0.5552  0.9633  0.0261
  170SAPE   H9X19281   1.455   1.872   7.462 -0.2683  0.3060 -0.9386
  170SAPE   H9Y19282   1.512   1.711   7.529 -1.1753 -0.0519 -1.2445
  170SAPE  C31019283   1.368   1.818   7.647  0.6415  0.3113  0.2170
  170SAPE  H10X19284   1.330   1.733   7.708 -2.4674  0.2400 -1.6257
  170SAPE  H10Y19285   1.282   1.884   7.624 -0.0084 -1.1619 -1.7901
  170SAPE  C31119286   1.454   1.912   7.737 -0.2678  0.0242  0.0008
  170SAPE  H11X19287   1.494   1.994   7.673  2.1616 -1.1433 -0.0665
  170SAPE  H11Y19288   1.534   1.845   7.774 -1.2593 -1.5473 -0.5768
  170SAPE  C31219289   1.379   1.971   7.862  0.1933  0.1414 -0.3427
  170SAPE  H12X19290   1.287   2.014   7.818  0.5489  1.1773 -0.1018
  170SAPE  H12Y19291   1.436   2.056   7.906 -0.3682 -0.0468  0.7695
  170SAPE  C31319292   1.338   1.864   7.961 -0.3076 -0.4056 -0.2404
  170SAPE  H13X19293   1.436   1.825   7.998 -0.5170 -0.8790 -0.1758
  170SAPE  H13Y19294   1.286   1.781   7.909 -1.5937 -0.7481  1.5266
  170SAPE  C31419295   1.255   1.908   8.079  0.3502 -0.0607 -0.5472
  170SAPE  H14X19296   1.225   1.815   8.133  2.5459 -1.0352 -0.9055
  170SAPE  H14Y19297   1.160   1.961   8.058  1.5755  2.2044 -0.6612
  170SAPE  C31519298   1.332   1.988   8.178  0.1029 -0.1419  0.2027
  170SAPE  H15X19299   1.336   2.094   8.144  1.4192  0.2977  1.6108
  170SAPE  H15Y19300   1.439   1.961   8.192 -0.0345 -0.2131  1.1897
  170SAPE  C31619301   1.261   1.993   8.310 -0.2050 -0.1706 -0.1721
  170SAPE  H16X19302   1.279   1.893   8.354  2.1801  0.2381 -0.1039
  170SAPE  H16Y19303   1.152   2.006   8.294 -0.4042 -1.4777  0.0247
  170SAPE  C31719304   1.316   2.092   8.417 -0.2159  0.0709  0.4931
  170SAPE  H17X19305   1.313   2.198   8.385  0.7762 -0.0883 -0.1734
  170SAPE  H17Y19306   1.423   2.066   8.434 -0.5597 -1.2433  0.7644
  170SAPE  C31819307   1.237   2.077   8.550 -0.0199  0.4958  0.6469
  170SAPE  H18X19308   1.289   2.121   8.637  2.4152 -0.4081 -0.2730
  170SAPE  H18Y19309   1.234   1.969   8.577 -1.2125  0.3604  0.0465
  170SAPE  H18Z19310   1.132   2.110   8.531  0.4230  1.1349 -0.8955
  171SAPE     N19311   3.198   2.829   6.084 -0.0092  0.1332 -0.3293
  171SAPE   HN119312   3.282   2.882   6.116 -0.5895  2.5404 -2.4151
  171SAPE   HN219313   3.153   2.905   6.028 -0.6220 -0.1418 -0.2186
  171SAPE   HN319314   3.142   2.805   6.168  0.6700  1.4046  0.5160
  171SAPE   C1219315   3.250   2.711   6.012 -0.3942  0.2447  0.1994
  171SAPE  H12A19316   3.288   2.754   5.916 -2.6829  0.8354 -0.4971
  171SAPE  H12B19317   3.169   2.644   5.978  0.3491 -0.4917 -0.1674
  171SAPE   C1119318   3.362   2.638   6.080 -0.6161  0.0962 -0.0020
  171SAPE  H11A19319   3.449   2.707   6.077 -1.4527  1.1626 -0.6637
  171SAPE  H11B19320   3.402   2.551   6.023 -0.0549 -0.4539  1.2061
  171SAPE     P19321   3.435   2.609   6.325 -0.4865  0.0636  0.1655
  171SAPE   O1319322   3.568   2.556   6.281  0.6324 -0.3337 -0.1859
  171SAPE   O1419323   3.428   2.751   6.364  0.4616 -0.1351 -0.3389
  171SAPE   O1219324   3.331   2.590   6.211  0.4432 -0.1048  0.3533
  171SAPE   O1119325   3.372   2.514   6.433  0.1511 -0.2295 -0.0957
  171SAPE    C119326   3.235   2.517   6.480  0.1870 -0.5692 -0.6611
  171SAPE    HA19327   3.166   2.588   6.430  1.2525  1.2055  0.2770
  171SAPE    HB19328   3.188   2.417   6.470  0.9264 -0.9942 -0.0450
  171SAPE    C219329   3.248   2.536   6.635 -0.0322  0.0848  0.1233
  171SAPE    HS19330   3.152   2.516   6.687  0.6055 -4.3766 -0.0691
  171SAPE   O2119331   3.298   2.665   6.656  0.5726  0.0206 -0.4030
  171SAPE   C2119332   3.207   2.763   6.631 -0.5708 -0.2789 -0.4464
  171SAPE   O2219333   3.097   2.744   6.590  0.0358  0.0619  0.5422
  171SAPE   C2219334   3.262   2.904   6.675  0.3333  0.5230 -0.2466
  171SAPE   H2R19335   3.372   2.905   6.686  0.2998  0.0199  0.1806
  171SAPE   H2S19336   3.228   2.980   6.602 -1.7202  1.3201  1.4161
  171SAPE    C319337   3.349   2.435   6.691  0.1176 -0.5756  0.2185
  171SAPE    HX19338   3.441   2.437   6.629 -0.0346 -0.2711  0.0016
  171SAPE    HY19339   3.314   2.329   6.686  1.6122 -1.0189 -3.2657
  171SAPE   O3119340   3.384   2.465   6.830  0.5671  0.3977 -0.0036
  171SAPE   C3119341   3.290   2.432   6.922 -0.4870 -0.1143 -0.0278
  171SAPE   O3219342   3.179   2.382   6.899 -0.2865  0.1875  0.0734
  171SAPE   C3219343   3.342   2.457   7.063 -0.0767 -0.1036 -0.5533
  171SAPE   H2X19344   3.350   2.566   7.084 -0.0856 -0.5495  2.1825
  171SAPE   H2Y19345   3.442   2.410   7.064 -0.6612 -1.3752  0.1114
  171SAPE   C2319346   3.200   2.957   6.805 -0.2816  0.1997  0.1680
  171SAPE   H3R19347   3.092   2.976   6.791 -0.4168 -0.1133  0.7802
  171SAPE   H3S19348   3.253   3.053   6.827  0.3621 -0.4875  1.7718
  171SAPE   C2419349   3.205   2.868   6.932 -0.1906  0.0640 -0.1583
  171SAPE   H4R19350   3.141   2.781   6.905 -1.5985  1.4554 -1.5538
  171SAPE   H4S19351   3.167   2.930   7.016  0.0273 -0.3533  0.2503
  171SAPE   C2519352   3.350   2.824   6.955 -0.7176 -0.3012 -0.2647
  171SAPE   H5R19353   3.391   2.749   6.886  1.1433  1.8693 -1.6615
  171SAPE   C2619354   3.433   2.876   7.046  0.6039  0.1209  0.3352
  171SAPE   H6R19355   3.525   2.819   7.071  0.5593  0.1661  0.6016
  171SAPE   C2719356   3.393   2.986   7.141 -0.3418 -0.0813 -0.0942
  171SAPE   H7R19357   3.340   3.061   7.079  2.8387  2.0911 -0.3963
  171SAPE   H7S19358   3.487   3.035   7.175 -0.5992  0.6526 -0.4214
  171SAPE   C2819359   3.304   2.961   7.256 -0.7919  0.1587  0.5443
  171SAPE   H8R19360   3.199   2.989   7.239 -0.8179 -1.4237 -2.7387
  171SAPE   C2919361   3.340   2.903   7.368  0.0842  0.1808 -0.2673
  171SAPE   H9R19362   3.260   2.899   7.443 -3.1727 -0.1833 -3.4438
  171SAPE  C21019363   3.474   2.857   7.401 -0.0232 -0.1611 -0.2537
  171SAPE  H10R19364   3.536   2.820   7.316  1.8568  0.6520  0.7050
  171SAPE  H10S19365   3.466   2.777   7.477 -4.0083  0.3693  0.1054
  171SAPE  C21119366   3.562   2.966   7.459  0.4056 -1.5091  0.4314
  171SAPE  H11R19367   3.626   3.019   7.386 -0.4673 -1.1417 -0.0799
  171SAPE  C21219368   3.564   2.996   7.590 -0.6376  0.1349 -0.5962
  171SAPE  H12R19369   3.636   3.072   7.622 -0.9960 -0.3781  1.6240
  171SAPE  C21319370   3.489   2.934   7.708  0.0426  0.7534 -0.5300
  171SAPE  H13R19371   3.392   2.898   7.669 -0.8427  1.9801  0.4694
  171SAPE  H13S19372   3.459   3.012   7.780  0.2289 -0.6659  1.1571
  171SAPE  C21419373   3.573   2.827   7.774 -0.5730 -1.0275  0.6862
  171SAPE  H14R19374   3.562   2.733   7.719  3.4780 -1.2126 -0.0717
  171SAPE  C21519375   3.641   2.847   7.895  0.7004 -0.3977  0.1303
  171SAPE  H15R19376   3.704   2.767   7.936  4.0302  1.7818 -0.3489
  171SAPE  C21619377   3.654   2.978   7.971  0.4352  0.3239 -0.3903
  171SAPE  H16R19378   3.650   3.062   7.897 -0.8477  1.0852  0.5069
  171SAPE  H16S19379   3.754   2.998   8.015  0.2516  0.3384  0.0268
  171SAPE  C21719380   3.551   3.013   8.087 -0.5574 -0.0438 -0.0590
  171SAPE  H17R19381   3.552   2.921   8.147 -1.1939 -0.4869 -0.7076
  171SAPE  H17S19382   3.454   3.050   8.046  0.3751  1.8345 -0.6752
  171SAPE  C21819383   3.594   3.128   8.173  0.0534 -0.2273 -0.3167
  171SAPE  H18R19384   3.619   3.226   8.125 -0.4375 -0.2404 -0.6176
  171SAPE  H18S19385   3.690   3.095   8.216 -1.0387 -1.1677  1.5100
  171SAPE  C21919386   3.499   3.157   8.286  0.1009  0.2263 -0.7555
  171SAPE  H19R19387   3.502   3.069   8.353  1.4564  1.9488  1.5837
  171SAPE  H19S19388   3.397   3.160   8.243 -0.6434 -0.5604  0.9012
  171SAPE  C22019389   3.522   3.297   8.348 -0.1069 -0.3408  0.3279
  171SAPE  H20R19390   3.618   3.297   8.404 -0.2059 -2.1947  0.5757
  171SAPE  H20S19391   3.446   3.316   8.427  1.0131  2.0413  0.9311
  171SAPE  H20T19392   3.518   3.385   8.281 -0.1768  1.5707  2.6886
  171SAPE   C3319393   3.248   2.414   7.176 -0.0355  0.5103  0.4499
  171SAPE   H3X19394   3.221   2.306   7.172 -0.0076  0.5347 -0.7628
  171SAPE   H3Y19395   3.153   2.472   7.172  0.2206  0.9975  1.1454
  171SAPE   C3419396   3.298   2.440   7.319 -0.3517 -0.3354 -0.2371
  171SAPE   H4X19397   3.314   2.549   7.332  1.4923 -0.1790 -3.0936
  171SAPE   H4Y19398   3.401   2.398   7.325 -0.2270 -0.3092 -1.8174
  171SAPE   C3519399   3.212   2.416   7.441 -0.7061 -0.1906 -0.1867
  171SAPE   H5X19400   3.175   2.312   7.433  0.3296 -0.6667  0.9167
  171SAPE   H5Y19401   3.124   2.485   7.442 -0.6226 -0.0576 -1.0411
  171SAPE   C3619402   3.300   2.435   7.568  0.5518  0.0963 -0.5061
  171SAPE   H6X19403   3.302   2.538   7.610 -0.4062 -0.7034  1.6417
  171SAPE   H6Y19404   3.398   2.387   7.549  0.3130 -2.2454  3.1943
  171SAPE   C3719405   3.237   2.344   7.680  1.0079 -0.1912 -0.0399
  171SAPE   H7X19406   3.221   2.247   7.629 -1.0407  0.3665 -0.5520
  171SAPE   H7Y19407   3.141   2.386   7.718  0.0721 -1.6030 -0.7971
  171SAPE   C3819408   3.326   2.318   7.807  0.0017  0.0736  0.3970
  171SAPE   H8X19409   3.380   2.411   7.834  1.2734 -0.2592 -0.8961
  171SAPE   H8Y19410   3.405   2.245   7.779 -2.4156 -2.7644  0.4676
  171SAPE   C3919411   3.248   2.253   7.927  0.0844  0.0799 -0.2792
  171SAPE   H9X19412   3.322   2.214   8.001 -0.0357 -0.2475 -0.3271
  171SAPE   H9Y19413   3.187   2.166   7.894 -1.2756  0.9880 -0.1995
  171SAPE  C31019414   3.165   2.359   8.008 -0.0377  1.0961  1.5900
  171SAPE  H10X19415   3.089   2.391   7.933  1.0385  0.0683 -0.0030
  171SAPE  H10Y19416   3.222   2.453   8.020 -0.6311  1.4153  1.9781
  171SAPE  C31119417   3.115   2.299   8.145 -0.0689 -0.2347 -0.0001
  171SAPE  H11X19418   3.200   2.303   8.216  0.8577 -0.5406 -1.0662
  171SAPE  H11Y19419   3.086   2.195   8.115 -2.0478  0.8976 -2.4223
  171SAPE  C31219420   2.999   2.375   8.196  0.2566  0.2200 -0.1307
  171SAPE  H12X19421   2.910   2.356   8.133  0.5864  1.2389 -0.9393
  171SAPE  H12Y19422   3.028   2.482   8.206  1.3483 -0.1231  0.6265
  171SAPE  C31319423   2.953   2.344   8.339  0.1780  0.4531  0.0095
  171SAPE  H13X19424   2.863   2.408   8.356 -1.1758 -0.8541 -1.7788
  171SAPE  H13Y19425   3.027   2.367   8.418 -1.4501 -2.7499  2.7232
  171SAPE  C31419426   2.904   2.202   8.372 -0.0216 -0.9255  0.2033
  171SAPE  H14X19427   2.993   2.137   8.363  0.7732  0.0170  1.0968
  171SAPE  H14Y19428   2.826   2.166   8.301 -0.4218 -0.8309  0.5905
  171SAPE  C31519429   2.841   2.198   8.511  0.3208  0.3676  0.7966
  171SAPE  H15X19430   2.748   2.259   8.511  0.9292  1.3116  0.9398
  171SAPE  H15Y19431   2.912   2.243   8.584 -0.0146  2.6676 -0.2020
  171SAPE  C31619432   2.800   2.053   8.538  0.5139  1.2464  0.1544
  171SAPE  H16X19433   2.875   1.980   8.503  0.2115 -0.0266  2.0293
  171SAPE  H16Y19434   2.719   2.020   8.470  0.4021  1.0437  0.3841
  171SAPE  C31719435   2.756   2.031   8.677  0.2504 -0.0534 -0.2297
  171SAPE  H17X19436   2.712   1.929   8.684 -0.1846  0.0720 -1.0030
  171SAPE  H17Y19437   2.673   2.096   8.710  1.0486  0.1962  1.4067
  171SAPE  C31819438   2.872   2.050   8.774 -0.2096 -0.1756  0.2842
  171SAPE  H18X19439   2.920   2.150   8.769  1.2454 -0.6516  2.9976
  171SAPE  H18Y19440   2.939   1.966   8.747 -1.3522 -0.2354 -2.8689
  171SAPE  H18Z19441   2.834   2.027   8.876 -1.2816 -0.0183 -0.0628
  172SAPE     N19442   3.791   2.157   6.210 -0.1334  0.1127 -0.4166
  172SAPE   HN119443   3.798   2.195   6.307  2.0580 -0.2906 -0.3765
  172SAPE   HN219444   3.887   2.135   6.177 -0.4798 -1.7123 -0.3483
  172SAPE   HN319445   3.757   2.234   6.149 -1.3363  0.9087  1.1825
  172SAPE   C1219446   3.698   2.042   6.220 -0.0071  0.2475 -0.0887
  172SAPE  H12A19447   3.668   2.010   6.118  2.8724  0.9416 -1.2536
  172SAPE  H12B19448   3.604   2.083   6.262 -0.8896  0.5439 -2.2275
  172SAPE   C1119449   3.736   1.915   6.291 -0.5106  0.8406 -0.0392
  172SAPE  H11A19450   3.647   1.850   6.278 -1.2713  2.0041 -0.9176
  172SAPE  H11B19451   3.745   1.948   6.397  0.6897  2.4161 -0.5804
  172SAPE     P19452   3.873   1.725   6.179  0.2623 -0.3840  0.1241
  172SAPE   O1319453   3.756   1.691   6.092 -0.0039  0.0911  0.0305
  172SAPE   O1419454   4.005   1.713   6.114  0.0418  0.3155 -0.0837
  172SAPE   O1219455   3.858   1.865   6.241  0.1099 -0.1320 -0.4864
  172SAPE   O1119456   3.883   1.626   6.297  0.5623  0.4155  0.1848
  172SAPE    C119457   3.942   1.658   6.428  0.0976 -0.0977  0.2894
  172SAPE    HA19458   4.032   1.596   6.445  0.4060  0.6674  1.5710
  172SAPE    HB19459   3.965   1.766   6.424  0.2286 -0.1153  0.5477
  172SAPE    C219460   3.847   1.611   6.545 -0.3113 -0.0696  0.1957
  172SAPE    HS19461   3.819   1.503   6.538 -1.9562  0.2956  0.6284
  172SAPE   O2119462   3.718   1.683   6.528  0.1598 -0.1587 -1.1279
  172SAPE   C2119463   3.610   1.614   6.566  0.1678  0.6723 -1.1474
  172SAPE   O2219464   3.622   1.510   6.635  0.4882  0.3647  0.0601
  172SAPE   C2219465   3.483   1.679   6.515 -0.2248 -0.4075 -0.6636
  172SAPE   H2R19466   3.508   1.720   6.415 -1.2617 -1.2174 -1.2739
  172SAPE   H2S19467   3.401   1.604   6.507 -1.3802 -0.0154  4.1915
  172SAPE    C319468   3.903   1.652   6.685 -0.9302 -0.0855 -0.2200
  172SAPE    HX19469   3.943   1.756   6.694  0.0929 -0.5874  1.6267
  172SAPE    HY19470   3.992   1.594   6.717 -2.3162 -1.2881  1.6615
  172SAPE   O3119471   3.807   1.650   6.787  0.0678 -0.2439 -0.0694
  172SAPE   C3119472   3.793   1.546   6.867 -0.3080  0.3701 -0.6234
  172SAPE   O3219473   3.845   1.438   6.854  0.3272  0.0530  0.3479
  172SAPE   C3219474   3.690   1.582   6.970 -0.5380 -0.4621 -0.0799
  172SAPE   H2X19475   3.589   1.557   6.934 -0.7430  0.2677 -0.0289
  172SAPE   H2Y19476   3.675   1.690   6.994 -0.6959 -0.6689  0.7954
  172SAPE   C2319477   3.442   1.804   6.599 -0.5250  0.2386 -0.5137
  172SAPE   H3R19478   3.360   1.858   6.547 -1.0542  0.6047  0.6533
  172SAPE   H3S19479   3.531   1.870   6.600  1.2996 -1.9915  2.5070
  172SAPE   C2419480   3.398   1.775   6.743  0.0396 -0.1496  0.0370
  172SAPE   H4R19481   3.368   1.866   6.799 -0.4678 -1.7850  2.5800
  172SAPE   H4S19482   3.486   1.744   6.802  2.3838  4.9621 -0.2095
  172SAPE   C2519483   3.276   1.692   6.749 -0.3361  0.2840  0.0571
  172SAPE   H5R19484   3.209   1.698   6.661  1.6186  1.0681 -1.4647
  172SAPE   C2619485   3.229   1.623   6.858  0.2861 -0.5613  0.3881
  172SAPE   H6R19486   3.134   1.569   6.853 -0.4353  0.4823  1.9622
  172SAPE   C2719487   3.311   1.615   6.983 -0.3472 -0.1457 -0.5214
  172SAPE   H7R19488   3.352   1.714   7.013 -1.3252 -0.5094  2.4003
  172SAPE   H7S19489   3.395   1.547   6.959 -3.1032 -3.7014 -0.9348
  172SAPE   C2819490   3.252   1.537   7.097  0.0049 -0.2298  0.3398
  172SAPE   H8R19491   3.235   1.428   7.090 -1.2948 -0.2206  2.3029
  172SAPE   C2919492   3.225   1.585   7.224 -0.5215  0.8252 -0.4637
  172SAPE   H9R19493   3.167   1.518   7.289  1.0879  0.4794  0.6636
  172SAPE  C21019494   3.229   1.723   7.281 -0.1137  0.1939 -0.3085
  172SAPE  H10R19495   3.244   1.798   7.201 -0.9546  0.9413  0.2190
  172SAPE  H10S19496   3.325   1.735   7.335  0.6424 -3.0338 -0.7277
  172SAPE  C21119497   3.110   1.763   7.367 -0.5797  0.2517 -0.3848
  172SAPE  H11R19498   3.028   1.802   7.305 -1.2539 -1.2736 -0.5016
  172SAPE  C21219499   3.094   1.747   7.503  0.0212 -0.3762  0.4865
  172SAPE  H12R19500   3.001   1.786   7.549  0.3485 -0.2676  1.0620
  172SAPE  C21319501   3.200   1.693   7.601  0.0544 -0.9308 -0.1864
  172SAPE  H13R19502   3.298   1.672   7.553  0.1595 -0.7414 -0.0528
  172SAPE  H13S19503   3.169   1.599   7.653  0.9123 -0.2951  1.5357
  172SAPE  C21419504   3.217   1.799   7.706 -0.3621  0.5697 -0.0635
  172SAPE  H14R19505   3.310   1.857   7.696 -0.6748  1.2438  0.8339
  172SAPE  C21519506   3.144   1.815   7.817  0.2746 -1.3213 -0.3131
  172SAPE  H15R19507   3.146   1.913   7.867 -3.4790 -1.3344  0.1585
  172SAPE  C21619508   3.029   1.726   7.861  0.4586 -0.0563 -0.6930
  172SAPE  H16R19509   3.062   1.625   7.830 -0.8762 -0.5502 -0.5716
  172SAPE  H16S19510   2.939   1.746   7.799 -0.1840  1.0135  0.5431
  172SAPE  C21719511   3.008   1.702   8.011 -0.0769  0.4939  0.3219
  172SAPE  H17R19512   3.106   1.686   8.061 -1.4447 -3.3816  2.1270
  172SAPE  H17S19513   2.949   1.609   8.021  0.3199  0.2431  0.3789
  172SAPE  C21819514   2.934   1.818   8.076  0.3339 -0.1310 -0.0678
  172SAPE  H18R19515   2.827   1.798   8.056  0.0107 -0.0728  1.4498
  172SAPE  H18S19516   2.958   1.916   8.029 -0.4449 -0.9475 -2.2576
  172SAPE  C21919517   2.954   1.820   8.226 -0.3737 -0.2602 -0.7648
  172SAPE  H19R19518   2.912   1.916   8.263 -1.6173 -1.0885  0.0821
  172SAPE  H19S19519   3.059   1.804   8.258 -1.0822 -1.4433  1.1829
  172SAPE  C22019520   2.876   1.710   8.301  0.0009 -0.2301  0.1984
  172SAPE  H20R19521   2.919   1.611   8.273  1.6684  0.2794  0.8828
  172SAPE  H20S19522   2.771   1.711   8.264  0.1078  0.3460 -0.0905
  172SAPE  H20T19523   2.875   1.729   8.410 -1.6484  0.2630  0.1247
  172SAPE   C3319524   3.708   1.493   7.100 -0.0926  0.5911  0.8989
  172SAPE   H3X19525   3.817   1.486   7.121 -0.3289 -1.2682  1.6568
  172SAPE   H3Y19526   3.677   1.391   7.070 -1.1558  1.3120 -0.5997
  172SAPE   C3419527   3.630   1.537   7.222 -0.1023 -0.1956  0.7595
  172SAPE   H4X19528   3.540   1.599   7.199  1.2916  2.3138  1.6620
  172SAPE   H4Y19529   3.683   1.607   7.289 -2.3783  1.4364  0.9705
  172SAPE   C3519530   3.585   1.416   7.309  0.1353 -0.6789 -0.9216
  172SAPE   H5X19531   3.675   1.353   7.327  0.1578 -1.0007 -2.0716
  172SAPE   H5Y19532   3.519   1.352   7.247  0.1796 -1.1769 -0.4653
  172SAPE   C3619533   3.525   1.461   7.444 -0.0303 -0.2428  0.5055
  172SAPE   H6X19534   3.449   1.541   7.433  0.9724  0.7725  0.7988
  172SAPE   H6Y19535   3.610   1.504   7.501 -0.6696 -0.0078  1.2976
  172SAPE   C3719536   3.470   1.347   7.532 -0.0589 -0.7475  0.4080
  172SAPE   H7X19537   3.497   1.250   7.487 -3.0280 -1.5650  0.1589
  172SAPE   H7Y19538   3.359   1.345   7.525 -0.0644 -1.8352  0.6940
  172SAPE   C3819539   3.509   1.349   7.673 -0.5832  0.1423  0.4510
  172SAPE   H8X19540   3.616   1.378   7.669 -0.7019  0.5057 -0.2677
  172SAPE   H8Y19541   3.519   1.254   7.731 -0.5051 -0.3069 -0.2896
  172SAPE   C3919542   3.435   1.457   7.749  0.0703 -0.5263  0.1901
  172SAPE   H9X19543   3.326   1.446   7.735 -0.0037  1.2255 -0.9475
  172SAPE   H9Y19544   3.452   1.553   7.694  0.1886 -0.8132 -0.2793
  172SAPE  C31019545   3.465   1.469   7.897 -0.0367  0.1794 -0.2794
  172SAPE  H10X19546   3.563   1.519   7.914 -0.6680  1.2898  0.1852
  172SAPE  H10Y19547   3.493   1.365   7.923 -0.6659 -0.1501 -0.9014
  172SAPE  C31119548   3.369   1.532   7.989  0.2622  0.1245 -1.6318
  172SAPE  H11X19549   3.261   1.506   7.987  0.1248  0.6722 -1.4626
  172SAPE  H11Y19550   3.379   1.640   7.968 -1.0004  0.1956 -1.9933
  172SAPE  C31219551   3.397   1.490   8.137 -0.2909  0.2785  0.1858
  172SAPE  H12X19552   3.507   1.503   8.150 -0.3153  1.1511 -0.4319
  172SAPE  H12Y19553   3.381   1.382   8.161  2.1297  0.0111  0.9318
  172SAPE  C31319554   3.322   1.569   8.239  0.3842 -0.2224  0.2126
  172SAPE  H13X19555   3.214   1.583   8.217 -0.1180 -2.6721  0.8342
  172SAPE  H13Y19556   3.376   1.665   8.252  0.7372 -0.2085 -1.1387
  172SAPE  C31419557   3.328   1.500   8.384 -0.3608 -0.1460  0.1118
  172SAPE  H14X19558   3.274   1.565   8.456 -0.6183  0.0123 -0.2223
  172SAPE  H14Y19559   3.438   1.488   8.398 -0.6001 -0.9086  1.5331
  172SAPE  C31519560   3.241   1.368   8.388 -0.1327 -0.3319  0.4377
  172SAPE  H15X19561   3.289   1.281   8.338  0.8749 -0.2419  1.2105
  172SAPE  H15Y19562   3.145   1.387   8.335  0.4066 -0.7954 -0.7523
  172SAPE  C31619563   3.208   1.340   8.529 -0.5397  0.1283 -0.3644
  172SAPE  H16X19564   3.121   1.399   8.563 -0.5301 -0.3980  0.6357
  172SAPE  H16Y19565   3.302   1.351   8.587 -0.8580  0.1002  0.1615
  172SAPE  C31719566   3.170   1.192   8.556  0.4634  0.2588  0.2777
  172SAPE  H17X19567   3.154   1.177   8.665 -0.8301  0.6899  0.1635
  172SAPE  H17Y19568   3.248   1.123   8.516 -1.2170 -0.3657 -2.1319
  172SAPE  C31819569   3.042   1.153   8.481  0.5746  0.4458 -0.1971
  172SAPE  H18X19570   3.060   1.146   8.372 -1.4032  1.8000 -0.6433
  172SAPE  H18Y19571   2.958   1.223   8.496 -0.4520 -1.3270  3.7782
  172SAPE  H18Z19572   3.005   1.055   8.519  0.7231  0.1273 -0.8646
  173SOPE     N19573   3.244   5.254  11.151 -0.1942 -0.2028 -0.0494
  173SOPE   HN119574   3.301   5.332  11.189 -0.7759  0.6302 -0.8398
  173SOPE   HN219575   3.270   5.165  11.197 -0.0590 -1.2271 -1.9952
  173SOPE   HN319576   3.267   5.247  11.050  1.6379 -2.5540  0.4657
  173SOPE   C1219577   3.106   5.257  11.183 -0.4862  0.6881 -0.2321
  173SOPE  H12A19578   3.102   5.261  11.294  2.5601 -0.3325 -0.0015
  173SOPE  H12B19579   3.067   5.158  11.151 -0.5151  0.9292 -0.9620
  173SOPE   C1119580   3.034   5.375  11.115 -0.3238 -0.1285  0.0534
  173SOPE  H11A19581   3.065   5.464  11.173 -0.6514 -0.6979  1.1425
  173SOPE  H11B19582   2.929   5.345  11.133 -0.2112 -0.9031 -0.5129
  173SOPE     P19583   2.990   5.492  10.891  0.1490  0.0285 -0.0693
  173SOPE   O1319584   3.060   5.516  10.758 -0.2797 -0.3782  0.4326
  173SOPE   O1419585   2.958   5.610  10.967 -0.5334  0.0773 -0.2132
  173SOPE   O1219586   3.072   5.395  10.975 -0.1239 -0.3144 -0.2697
  173SOPE   O1119587   2.857   5.414  10.861  0.2620  0.7599  0.1440
  173SOPE    C119588   2.864   5.269  10.844  0.6949  0.5696  0.7211
  173SOPE    HA19589   2.806   5.219  10.925 -1.1443 -0.4213 -1.0930
  173SOPE    HB19590   2.970   5.236  10.840  0.9808  1.5339 -0.1663
  173SOPE    C219591   2.792   5.220  10.718 -0.0002 -0.3816 -0.2337
  173SOPE    HS19592   2.812   5.113  10.698  0.7607 -0.0452 -1.3576
  173SOPE   O2119593   2.815   5.298  10.596 -0.2866  0.0417 -0.0327
  173SOPE   C2119594   2.933   5.287  10.548 -0.0741  0.0861 -0.4521
  173SOPE   O2219595   3.024   5.223  10.595 -0.4695 -1.0652 -0.4361
  173SOPE   C2219596   2.955   5.368  10.423  0.0465 -0.2612 -0.3405
  173SOPE   H2R19597   3.025   5.447  10.458 -1.2143  0.3795  0.8254
  173SOPE   H2S19598   2.857   5.404  10.385 -0.0204 -1.3808 -1.3010
  173SOPE    C319599   2.642   5.224  10.737  1.0273 -0.0310 -0.0777
  173SOPE    HX19600   2.618   5.332  10.734  0.1716 -0.1047 -5.2374
  173SOPE    HY19601   2.594   5.192  10.832 -1.1054 -1.5431 -1.5796
  173SOPE   O3119602   2.564   5.164  10.624  0.2918 -0.0580 -0.2193
  173SOPE   C3119603   2.560   5.030  10.637  0.4709  0.2910 -0.7185
  173SOPE   O3219604   2.599   4.962  10.731  0.4227  0.0945 -0.1736
  173SOPE   C3219605   2.490   4.974  10.508 -0.1304 -0.0532 -0.2045
  173SOPE   H2X19606   2.477   4.864  10.522  1.5900 -0.0771  1.6384
  173SOPE   H2Y19607   2.561   4.992  10.425  0.3595 -1.8137 -0.2064
  173SOPE   C2319608   3.026   5.279  10.322  0.6016 -0.0254  0.5113
  173SOPE   H3R19609   2.973   5.182  10.313  0.5248  0.1066 -0.7018
  173SOPE   H3S19610   3.133   5.261  10.346  0.9980  2.4337  0.9188
  173SOPE   C2419611   3.024   5.346  10.180 -0.5454  0.1876 -0.9151
  173SOPE   H4R19612   2.916   5.341  10.153 -1.1048 -0.2625  1.1460
  173SOPE   H4S19613   3.066   5.448  10.194 -1.0803  0.1074  1.9565
  173SOPE   C2519614   3.087   5.260  10.066 -0.3816  0.1871 -0.0319
  173SOPE   H5R19615   3.191   5.235  10.094 -0.1567 -0.3534 -1.2762
  173SOPE   H5S19616   3.028   5.166  10.069  2.1359 -1.7596 -3.5769
  173SOPE   C2619617   3.091   5.330   9.926  0.2475  0.3466 -0.2344
  173SOPE   H6R19618   2.992   5.377   9.911 -0.4184 -1.0798 -0.5077
  173SOPE   H6S19619   3.180   5.396   9.922  1.7061 -1.5198 -0.3889
  173SOPE   C2719620   3.105   5.227   9.817 -0.5853 -0.0729  0.5170
  173SOPE   H7R19621   3.196   5.164   9.820 -0.9853 -0.7426 -0.7255
  173SOPE   H7S19622   3.030   5.147   9.834 -0.6721 -0.0375  0.3065
  173SOPE   C2819623   3.085   5.277   9.670  0.5507 -0.4200 -0.8670
  173SOPE   H8R19624   3.041   5.196   9.607 -0.7403 -1.8524  1.7048
  173SOPE   H8S19625   3.003   5.351   9.674  1.0637  0.1078  1.0544
  173SOPE   C2919626   3.211   5.349   9.629  0.2410 -0.2927  0.4304
  173SOPE   H9119627   3.287   5.286   9.581  0.6887  0.6609 -0.1421
  173SOPE  C21019628   3.230   5.480   9.640  0.2356 -0.7673 -0.0064
  173SOPE  H10119629   3.322   5.523   9.598 -0.9774  0.7775 -1.2174
  173SOPE  C21119630   3.154   5.593   9.711  0.2299  0.5181  0.0532
  173SOPE  H11R19631   3.158   5.577   9.821  0.9162 -2.2780 -0.2923
  173SOPE  H11S19632   3.048   5.581   9.682  0.3088  0.5098 -0.2420
  173SOPE  C21219633   3.200   5.735   9.673  0.3614  0.3787  0.0171
  173SOPE  H12R19634   3.310   5.753   9.673  0.3767  0.5859  2.2232
  173SOPE  H12S19635   3.165   5.816   9.741  0.3365  0.6743 -0.3433
  173SOPE  C21319636   3.145   5.774   9.533 -0.0857  0.0718  0.3892
  173SOPE  H13R19637   3.041   5.805   9.560 -0.6550 -0.9253 -0.5997
  173SOPE  H13S19638   3.147   5.694   9.457  0.3309  2.0520 -1.7998
  173SOPE  C21419639   3.218   5.895   9.461 -0.3838  0.6942 -0.0173
  173SOPE  H14R19640   3.320   5.858   9.436 -0.4103  1.1534 -0.8436
  173SOPE  H14S19641   3.225   5.989   9.521  0.6481  0.0521  0.8976
  173SOPE  C21519642   3.136   5.941   9.334  0.4919 -0.4033 -0.2738
  173SOPE  H15R19643   3.037   5.967   9.377  0.7509  0.5699 -0.2334
  173SOPE  H15S19644   3.119   5.856   9.264 -2.5024  1.2690 -1.7829
  173SOPE  C21619645   3.196   6.059   9.260 -0.2184  0.5628 -0.1548
  173SOPE  H16R19646   3.306   6.050   9.269 -0.0674  1.0489 -1.3660
  173SOPE  H16S19647   3.170   6.154   9.312 -0.8036  1.1937 -1.5453
  173SOPE  C21719648   3.151   6.073   9.117 -0.7713  0.3719 -0.3927
  173SOPE  H17R19649   3.040   6.066   9.117 -0.7551 -0.5773  1.5161
  173SOPE  H17S19650   3.186   5.989   9.054  1.5282  2.2021 -1.6943
  173SOPE  C21819651   3.196   6.203   9.057 -0.2746  0.3080 -0.8718
  173SOPE  H18R19652   3.307   6.199   9.057 -0.1783 -1.2021  2.6481
  173SOPE  H18S19653   3.155   6.280   9.126 -2.7921 -0.3571 -1.5160
  173SOPE  H18T19654   3.149   6.218   8.957  0.9079  1.5419 -1.2662
  173SOPE   C3319655   2.354   5.040  10.470 -0.4248  0.6447 -0.1011
  173SOPE   H3X19656   2.360   5.151  10.468  1.1762  0.5714 -0.1514
  173SOPE   H3Y19657   2.276   5.019  10.547  0.5014  0.3566  0.7749
  173SOPE   C3419658   2.295   4.991  10.337  0.0078  0.0629 -0.1481
  173SOPE   H4X19659   2.188   5.018  10.341 -0.3555 -1.1025 -1.4305
  173SOPE   H4Y19660   2.305   4.881  10.336  2.7908  0.2327 -0.4308
  173SOPE   C3519661   2.373   5.037  10.218  1.3977  1.2917 -0.4495
  173SOPE   H5X19662   2.484   5.028  10.226  1.2282  0.1977  0.9569
  173SOPE   H5Y19663   2.337   5.141  10.204  1.9044  2.1666  3.6487
  173SOPE   C3619664   2.331   4.949  10.095 -1.1720 -0.3167  0.3814
  173SOPE   H6X19665   2.222   4.949  10.076 -1.5152  2.6682  1.7171
  173SOPE   H6Y19666   2.362   4.844  10.115  1.2800  0.2278 -0.1473
  173SOPE   C3719667   2.410   4.994   9.971  0.3076 -0.0622  0.0102
  173SOPE   H7X19668   2.442   4.906   9.912 -1.2522 -0.4193 -0.3516
  173SOPE   H7Y19669   2.507   5.038  10.004  0.3640 -0.0107 -0.2196
  173SOPE   C3819670   2.331   5.091   9.887 -0.2380  0.0805 -0.6627
  173SOPE   H8X19671   2.401   5.131   9.811  1.1034 -0.5524  0.2188
  173SOPE   H8Y19672   2.308   5.179   9.952  2.6398  0.5225 -0.1299
  173SOPE   C3919673   2.221   5.034   9.797 -0.0717 -0.4709 -0.9087
  173SOPE   H9X19674   2.158   4.964   9.856  2.1579  0.2859  2.6756
  173SOPE   H9Y19675   2.275   4.972   9.722 -0.1309 -1.0683 -0.4580
  173SOPE  C31019676   2.132   5.140   9.742  0.0895 -0.9417 -0.1257
  173SOPE  H10X19677   2.080   5.204   9.817 -3.2124 -0.3015 -2.7372
  173SOPE  H10Y19678   2.052   5.089   9.685  0.3336  1.0904 -2.4830
  173SOPE  C31119679   2.192   5.247   9.642  0.2929  0.4861 -0.2166
  173SOPE  H11X19680   2.292   5.277   9.680 -1.1532  1.9077  2.8435
  173SOPE  H11Y19681   2.130   5.339   9.651  0.5356  0.5491  1.0590
  173SOPE  C31219682   2.200   5.190   9.497  0.5092  0.2679  0.5869
  173SOPE  H12X19683   2.142   5.265   9.438  0.2973  0.4949  1.0723
  173SOPE  H12Y19684   2.159   5.087   9.496  2.3100 -0.5077 -1.5163
  173SOPE  C31319685   2.342   5.182   9.443 -0.2209 -0.3461 -0.5924
  173SOPE  H13X19686   2.396   5.117   9.515  0.7193  1.1958  0.1448
  173SOPE  H13Y19687   2.394   5.280   9.451 -0.6144 -0.2308  0.8098
  173SOPE  C31419688   2.347   5.126   9.304  0.3045  0.5810  0.1826
  173SOPE  H14X19689   2.267   5.181   9.248  1.2053 -0.1123 -1.8858
  173SOPE  H14Y19690   2.328   5.017   9.295 -0.1359  0.6248  0.5618
  173SOPE  C31519691   2.482   5.157   9.238 -0.3243  0.4808 -0.6594
  173SOPE  H15X19692   2.498   5.267   9.246 -2.9320  0.8094  1.0912
  173SOPE  H15Y19693   2.469   5.148   9.128  2.0933  0.1712 -0.9720
  173SOPE  C31619694   2.597   5.061   9.287  0.3622  0.1601  0.2712
  173SOPE  H16X19695   2.563   4.956   9.282  1.2219 -0.0958 -0.4173
  173SOPE  H16Y19696   2.607   5.099   9.391  0.8361  1.4665 -0.2187
  173SOPE  C31719697   2.726   5.073   9.212 -0.6841 -0.4947 -0.1361
  173SOPE  H17X19698   2.748   5.179   9.184  1.8892 -0.2448  2.3680
  173SOPE  H17Y19699   2.700   5.017   9.120 -0.8614 -0.6574  0.0107
  173SOPE  C31819700   2.840   4.989   9.274  0.0745 -0.4386 -0.0011
  173SOPE  H18X19701   2.812   4.882   9.257 -1.5026 -0.0580  0.0958
  173SOPE  H18Y19702   2.851   5.009   9.383 -0.6121  0.0775 -0.0259
  173SOPE  H18Z19703   2.937   5.006   9.222 -0.3258 -1.4030 -1.0912
  174SOPE     N19704   2.535   4.776  10.898 -0.1469 -0.4541 -0.3003
  174SOPE   HN119705   2.562   4.838  10.819 -3.4473 -0.5168 -1.6229
  174SOPE   HN219706   2.442   4.809  10.933 -1.1239 -0.7913 -2.4053
  174SOPE   HN319707   2.599   4.789  10.979 -2.6222  1.9167  1.4851
  174SOPE   C1219708   2.539   4.632  10.858 -0.3890 -0.3583  0.2475
  174SOPE  H12A19709   2.449   4.615  10.795  0.1378  3.3628 -1.7927
  174SOPE  H12B19710   2.538   4.575  10.954  0.5742  0.6523  0.8701
  174SOPE   C1119711   2.658   4.609  10.760  0.5783  0.5681 -0.2828
  174SOPE  H11A19712   2.626   4.656  10.664 -0.4305 -1.0297 -0.7511
  174SOPE  H11B19713   2.664   4.499  10.749 -2.4959 -0.2143  3.6630
  174SOPE     P19714   2.900   4.579  10.876  0.3054 -0.1133 -0.0286
  174SOPE   O1319715   2.853   4.501  10.990  0.1301 -0.3010  0.0082
  174SOPE   O1419716   3.023   4.670  10.889  0.1458  0.6243  0.1463
  174SOPE   O1219717   2.779   4.665  10.808  0.4035 -0.0168  0.3270
  174SOPE   O1119718   2.925   4.467  10.761 -0.0540 -0.8019 -0.1461
  174SOPE    C119719   3.045   4.469  10.687 -0.6818 -0.4649 -0.5066
  174SOPE    HA19720   3.096   4.370  10.695  3.0342  1.4331  2.2902
  174SOPE    HB19721   3.126   4.534  10.727 -0.5572 -1.1249  0.3502
  174SOPE    C219722   3.022   4.494  10.533 -0.6965  0.2323  0.4882
  174SOPE    HS19723   3.121   4.503  10.484 -0.5195 -3.2775 -0.0997
  174SOPE   O2119724   2.935   4.608  10.508 -0.0497  0.0051  0.1152
  174SOPE   C2119725   2.992   4.718  10.558 -0.3048 -0.1827  0.3388
  174SOPE   O2219726   3.114   4.729  10.593  1.1582  0.0616  0.4665
  174SOPE   C2219727   2.891   4.831  10.549 -0.1358  0.4843  0.0167
  174SOPE   H2R19728   2.910   4.909  10.625  0.7355  0.3286 -0.0238
  174SOPE   H2S19729   2.788   4.789  10.552  0.0170 -0.0889 -1.5179
  174SOPE    C319730   2.951   4.374  10.471  0.0429  0.2496 -0.0632
  174SOPE    HX19731   2.844   4.381  10.501  0.2078 -1.5009  1.0637
  174SOPE    HY19732   2.990   4.275  10.501 -2.7759 -0.5166  1.4596
  174SOPE   O3119733   2.946   4.388  10.328  0.0984  0.5553  0.0686
  174SOPE   C3119734   3.049   4.383  10.248  0.0938  0.0922  0.2293
  174SOPE   O3219735   3.160   4.342  10.277  0.5762  0.3916 -0.3465
  174SOPE   C3219736   3.009   4.427  10.105  0.1853 -0.6195  0.6673
  174SOPE   H2X19737   2.948   4.520  10.106  0.6037 -0.2881 -1.1407
  174SOPE   H2Y19738   2.937   4.347  10.078 -2.5621  1.3914  1.6443
  174SOPE   C2319739   2.914   4.922  10.423  0.1225  0.0583 -0.2597
  174SOPE   H3R19740   3.016   4.966  10.425 -0.6378  1.8990  1.0419
  174SOPE   H3S19741   2.847   5.010  10.430 -0.6975 -0.6616  2.7101
  174SOPE   C2419742   2.867   4.854  10.287  0.5837 -0.2385 -0.0583
  174SOPE   H4R19743   2.934   4.767  10.270  3.5247  1.7789  0.5003
  174SOPE   H4S19744   2.767   4.812  10.307  0.5789 -0.8759 -1.2831
  174SOPE   C2519745   2.866   4.952  10.169  0.2688 -0.7061  1.5436
  174SOPE   H5R19746   2.798   5.037  10.193  0.4939 -0.3788  1.0452
  174SOPE   H5S19747   2.968   4.985  10.140 -0.6995  0.2304 -1.1690
  174SOPE   C2619748   2.810   4.872  10.042 -0.4175 -0.1848 -1.1735
  174SOPE   H6R19749   2.884   4.790  10.030  0.8449  0.9884 -1.7396
  174SOPE   H6S19750   2.717   4.823  10.077 -0.5417  1.0898  0.3949
  174SOPE   C2719751   2.810   4.946   9.913 -0.0721 -0.1035 -0.4685
  174SOPE   H7R19752   2.737   5.028   9.930  0.0084 -0.0670 -0.2918
  174SOPE   H7S19753   2.910   4.992   9.896  0.8412 -2.3325 -1.5159
  174SOPE   C2819754   2.775   4.847   9.791  0.1293  0.0043  0.1282
  174SOPE   H8R19755   2.874   4.810   9.756  0.2613  1.4798 -1.1301
  174SOPE   H8S19756   2.721   4.758   9.831  0.8703 -0.2479  0.5979
  174SOPE   C2919757   2.700   4.934   9.690 -0.2114  0.1130 -0.4978
  174SOPE   H9119758   2.761   5.021   9.660 -0.2251  0.2817 -0.0397
  174SOPE  C21019759   2.578   4.904   9.636  0.7502  0.0594 -1.0697
  174SOPE  H10119760   2.530   4.957   9.553 -1.7737  0.0187  0.2519
  174SOPE  C21119761   2.501   4.778   9.668  0.1753 -0.0540 -0.6288
  174SOPE  H11R19762   2.414   4.788   9.737  1.0848 -0.3860  0.6191
  174SOPE  H11S19763   2.566   4.695   9.704  0.5112  0.4750  0.0138
  174SOPE  C21219764   2.444   4.725   9.532 -0.3919  0.2124  0.1034
  174SOPE  H12R19765   2.367   4.797   9.495 -2.5808 -2.6303 -1.3228
  174SOPE  H12S19766   2.385   4.632   9.548 -0.7569  0.6683  1.5782
  174SOPE  C21319767   2.552   4.686   9.422 -0.0799  0.2289 -0.3088
  174SOPE  H13R19768   2.599   4.590   9.455 -0.5595 -0.0975 -0.5549
  174SOPE  H13S19769   2.626   4.767   9.409 -1.0046  1.3550  1.0725
  174SOPE  C21419770   2.474   4.660   9.284  0.1637  0.8236 -0.0343
  174SOPE  H14R19771   2.422   4.754   9.257  1.2137  2.0617  2.0047
  174SOPE  H14S19772   2.399   4.580   9.303  0.3042  0.3035 -1.5148
  174SOPE  C21519773   2.562   4.615   9.163 -0.4311 -0.8898 -0.1520
  174SOPE  H15R19774   2.604   4.520   9.200 -0.1451 -0.8339 -0.3334
  174SOPE  H15S19775   2.642   4.691   9.151  1.3342 -2.6736 -0.1532
  174SOPE  C21619776   2.480   4.590   9.042 -0.0532 -0.2604 -0.4247
  174SOPE  H16R19777   2.424   4.685   9.023  0.3677 -0.0358 -0.5583
  174SOPE  H16S19778   2.401   4.520   9.078  0.3747  0.5710  2.3607
  174SOPE  C21719779   2.557   4.548   8.920  0.5074  0.1567  0.0488
  174SOPE  H17R19780   2.638   4.479   8.952 -0.0349 -0.9573 -0.8969
  174SOPE  H17S19781   2.606   4.639   8.878  0.6131 -0.0501 -0.2762
  174SOPE  C21819782   2.464   4.467   8.821 -0.1589 -0.3946  0.0508
  174SOPE  H18R19783   2.424   4.374   8.866 -0.1596  0.0098  0.9046
  174SOPE  H18S19784   2.530   4.431   8.739  2.5110 -0.8040  2.2739
  174SOPE  H18T19785   2.382   4.529   8.780 -0.1668 -0.2246  0.3222
  174SOPE   C3319786   3.116   4.438   9.993 -0.0857 -0.0620  0.3227
  174SOPE   H3X19787   3.162   4.337   9.992 -2.6080 -1.2760  0.2143
  174SOPE   H3Y19788   3.192   4.512  10.026  0.9221  0.6754 -3.2673
  174SOPE   C3419789   3.068   4.465   9.850  0.1715  0.4435  0.4204
  174SOPE   H4X19790   3.153   4.462   9.778 -0.9766 -2.5410 -0.9925
  174SOPE   H4Y19791   3.025   4.567   9.848  1.0674  0.8303  0.5224
  174SOPE   C3519792   2.948   4.385   9.812 -0.2709  0.1961 -0.8184
  174SOPE   H5X19793   2.864   4.402   9.883 -0.9020 -0.8355 -1.2972
  174SOPE   H5Y19794   2.975   4.278   9.816  1.9675  0.7142 -0.7797
  174SOPE   C3619795   2.892   4.421   9.677  0.0680  0.1624  0.9195
  174SOPE   H6X19796   2.821   4.506   9.683  1.1857  1.0237  2.2126
  174SOPE   H6Y19797   2.829   4.333   9.650 -0.8181  0.8481  0.7261
  174SOPE   C3719798   2.999   4.436   9.564  0.8449  0.6360  0.4409
  174SOPE   H7X19799   3.059   4.345   9.584  0.5486  0.6388  1.3732
  174SOPE   H7Y19800   3.071   4.518   9.582  1.4825 -0.0656  1.1200
  174SOPE   C3819801   2.937   4.445   9.427 -0.1161 -0.4517 -0.0595
  174SOPE   H8X19802   2.902   4.550   9.419  1.2167  0.0948  0.7824
  174SOPE   H8Y19803   2.853   4.373   9.417 -0.3875  0.1700 -3.3538
  174SOPE   C3919804   3.042   4.405   9.313  0.8005 -0.1180 -0.3275
  174SOPE   H9X19805   3.062   4.298   9.333  1.8543 -0.0638 -1.0637
  174SOPE   H9Y19806   3.132   4.469   9.320  1.2849 -0.5152 -2.3671
  174SOPE  C31019807   2.959   4.410   9.188 -0.6379 -0.1467 -0.0384
  174SOPE  H10X19808   2.896   4.501   9.176 -2.7980 -1.5985 -0.3356
  174SOPE  H10Y19809   2.875   4.337   9.189 -3.3268  2.6114 -3.0111
  174SOPE  C31119810   3.037   4.388   9.058  0.1096 -0.1856  0.5091
  174SOPE  H11X19811   3.096   4.293   9.055  0.1395 -0.2288  1.7141
  174SOPE  H11Y19812   3.114   4.467   9.073  1.1828 -1.3112  1.1495
  174SOPE  C31219813   2.952   4.397   8.925 -0.6798  0.0231 -0.0085
  174SOPE  H12X19814   2.855   4.438   8.960 -0.0089  1.0353  0.7295
  174SOPE  H12Y19815   2.932   4.294   8.889 -0.2295  0.4978 -1.7250
  174SOPE  C31319816   3.026   4.485   8.826  1.0368 -0.3225  0.3753
  174SOPE  H13X19817   3.124   4.439   8.799  3.5024  3.1742  2.5122
  174SOPE  H13Y19818   3.057   4.575   8.883  1.7638  0.1421 -0.6995
  174SOPE  C31419819   2.941   4.511   8.698  0.5419 -0.2960  1.0913
  174SOPE  H14X19820   2.846   4.560   8.728  1.0624  0.5716  1.3579
  174SOPE  H14Y19821   2.918   4.413   8.651  1.9261 -0.3276  0.4480
  174SOPE  C31519822   3.001   4.602   8.594  0.1153 -0.8725 -0.0817
  174SOPE  H15X19823   3.100   4.562   8.561 -1.0371 -1.2995 -3.3934
  174SOPE  H15Y19824   3.016   4.701   8.642  0.9897 -0.8045 -0.4816
  174SOPE  C31619825   2.913   4.626   8.468  0.3191  0.8474 -0.0624
  174SOPE  H16X19826   2.957   4.711   8.410  3.0269 -0.1997  0.3220
  174SOPE  H16Y19827   2.807   4.646   8.492  0.6430  1.1401  1.1904
  174SOPE  C31719828   2.929   4.495   8.382  1.2323 -0.7750 -0.3520
  174SOPE  H17X19829   2.893   4.407   8.439  1.0905 -0.3193  0.2704
  174SOPE  H17Y19830   3.037   4.468   8.376  0.7799 -2.3329 -2.3259
  174SOPE  C31819831   2.870   4.491   8.241  0.0908 -0.1977  0.6211
  174SOPE  H18X19832   2.871   4.390   8.194 -2.5658  0.0456 -0.0947
  174SOPE  H18Y19833   2.916   4.556   8.163 -1.1686 -3.4013 -3.1138
  174SOPE  H18Z19834   2.763   4.520   8.243 -0.4026 -1.9325  1.5396
  175SOPE     N19835   5.238   6.601  10.566 -0.7186  0.0547 -0.2611
  175SOPE   HN119836   5.167   6.633  10.496 -0.0292  0.9784 -0.5534
  175SOPE   HN219837   5.327   6.576  10.519 -1.0706  2.8208 -2.7341
  175SOPE   HN319838   5.208   6.515  10.617  0.3983 -0.9500 -1.2464
  175SOPE   C1219839   5.280   6.712  10.658  0.1074 -0.0044 -0.1159
  175SOPE  H12A19840   5.331   6.661  10.742 -1.9938 -1.4294  0.3882
  175SOPE  H12B19841   5.198   6.768  10.707  0.0649  0.1281 -0.3381
  175SOPE   C1119842   5.364   6.825  10.593 -0.5828  0.3308  0.1958
  175SOPE  H11A19843   5.454   6.777  10.547 -2.1667  0.7610 -3.7558
  175SOPE  H11B19844   5.401   6.900  10.665 -0.1663 -1.6133  2.1230
  175SOPE     P19845   5.223   7.019  10.499 -0.0870  0.2280 -0.3895
  175SOPE   O1319846   5.328   7.125  10.513  0.1123  0.7046 -0.2699
  175SOPE   O1419847   5.117   7.011  10.604  0.2449  0.1554  0.3291
  175SOPE   O1219848   5.298   6.888  10.483 -0.6080 -0.1850 -0.0689
  175SOPE   O1119849   5.152   7.029  10.365 -0.3867 -0.5439  0.3932
  175SOPE    C119850   5.194   6.959  10.246  0.3714 -0.2551 -0.1587
  175SOPE    HA19851   5.191   6.850  10.267  1.7342 -0.0995  0.9931
  175SOPE    HB19852   5.294   6.997  10.217  0.2844  0.4927  0.4987
  175SOPE    C219853   5.104   6.995  10.128  0.1455  0.3485  0.2154
  175SOPE    HS19854   5.004   6.949  10.144  0.1599  0.3243  0.2338
  175SOPE   O2119855   5.164   6.971   9.995 -0.1334  0.5795 -0.3237
  175SOPE   C2119856   5.080   6.910   9.910 -0.0058  0.5619 -0.1131
  175SOPE   O2219857   4.975   6.854   9.938  0.3035  0.4872  0.2767
  175SOPE   C2219858   5.135   6.940   9.765  0.7101  0.4580 -0.2237
  175SOPE   H2R19859   5.237   6.895   9.768 -0.3676 -2.2428 -0.8781
  175SOPE   H2S19860   5.134   7.050   9.750  0.1608  0.3431 -1.1092
  175SOPE    C319861   5.066   7.154  10.123 -0.8174 -0.4931  0.4537
  175SOPE    HX19862   5.158   7.215  10.112 -0.9678 -0.5226 -1.3277
  175SOPE    HY19863   5.018   7.187  10.218 -3.4757 -1.7341 -0.3537
  175SOPE   O3119864   4.976   7.191  10.019  0.0914  0.1123  0.2849
  175SOPE   C3119865   4.847   7.159  10.031 -0.8359  0.4537 -0.2738
  175SOPE   O3219866   4.807   7.084  10.119 -0.4165  0.1604  0.3798
  175SOPE   C3219867   4.769   7.230   9.931  0.0580 -0.0412 -1.0326
  175SOPE   H2X19868   4.665   7.198   9.951  0.4424  1.1733  4.5865
  175SOPE   H2Y19869   4.805   7.203   9.830  1.2744  1.7099 -1.1209
  175SOPE   C2319870   5.046   6.873   9.660  0.1487 -0.1519  0.1777
  175SOPE   H3R19871   4.951   6.931   9.668  1.5537  2.7433 -2.1934
  175SOPE   H3S19872   5.036   6.765   9.685 -0.3436  0.2997  2.1288
  175SOPE   C2419873   5.096   6.882   9.518 -0.8655  0.6130 -0.8434
  175SOPE   H4R19874   5.103   6.987   9.482 -0.8419  1.3156  1.0964
  175SOPE   H4S19875   5.198   6.841   9.512 -1.0946 -0.3803  1.3762
  175SOPE   C2519876   5.001   6.800   9.426  0.2019  0.5706  0.3377
  175SOPE   H5R19877   4.964   6.712   9.482 -2.1753  1.0370 -0.3647
  175SOPE   H5S19878   4.908   6.854   9.397 -0.2016 -1.7926 -3.4785
  175SOPE   C2619879   5.061   6.768   9.288 -0.1908  0.4077 -0.0181
  175SOPE   H6R19880   5.143   6.697   9.315 -0.4053 -0.4291 -1.5026
  175SOPE   H6S19881   4.994   6.705   9.226  2.1902 -1.2715 -1.0446
  175SOPE   C2719882   5.103   6.884   9.200 -0.6661 -0.3284 -0.2351
  175SOPE   H7R19883   5.067   6.974   9.254  2.6076  0.9535  0.0166
  175SOPE   H7S19884   5.214   6.880   9.200 -0.5986  1.1181  0.2079
  175SOPE   C2819885   5.069   6.888   9.056  0.2488 -0.1572  0.4290
  175SOPE   H8R19886   5.140   6.960   9.010 -1.3317  2.2001  1.5398
  175SOPE   H8S19887   5.097   6.789   9.013  0.3131 -0.1475  0.4477
  175SOPE   C2919888   4.929   6.936   9.015 -1.0617  0.0193 -0.6475
  175SOPE   H9119889   4.911   7.042   9.038  0.9811  0.6485 -1.7170
  175SOPE  C21019890   4.834   6.863   8.974 -0.3450  0.5800  0.4439
  175SOPE  H10119891   4.742   6.920   8.958 -0.7588  0.4133  2.0930
  175SOPE  C21119892   4.839   6.714   8.933  0.6213  0.1607  0.2583
  175SOPE  H11R19893   4.771   6.652   8.995  1.3788 -3.3597 -2.1682
  175SOPE  H11S19894   4.940   6.668   8.947  1.5624  2.2705  0.8153
  175SOPE  C21219895   4.791   6.679   8.786 -0.0492  0.1475  1.1133
  175SOPE  H12R19896   4.861   6.720   8.710  0.6815 -3.3812 -0.2917
  175SOPE  H12S19897   4.688   6.722   8.788 -0.3410 -0.5525  1.9473
  175SOPE  C21319898   4.769   6.532   8.770 -0.3240  0.2342 -0.5655
  175SOPE  H13R19899   4.693   6.507   8.848 -1.2049  1.8224 -0.8668
  175SOPE  H13S19900   4.869   6.490   8.793 -0.3338 -0.6690 -2.0674
  175SOPE  C21419901   4.719   6.486   8.636  0.7120 -0.3340  0.2074
  175SOPE  H14R19902   4.803   6.517   8.570 -0.1869 -0.4475 -1.0242
  175SOPE  H14S19903   4.626   6.535   8.601  1.4688  1.5073  0.6557
  175SOPE  C21519904   4.704   6.335   8.650  0.4397 -0.0626 -0.7220
  175SOPE  H15R19905   4.616   6.298   8.708 -1.2047  0.2222 -2.9048
  175SOPE  H15S19906   4.794   6.305   8.708  0.4877 -1.3411 -1.4325
  175SOPE  C21619907   4.702   6.270   8.508  0.2276 -0.6902  0.1477
  175SOPE  H16R19908   4.712   6.161   8.526  0.5156 -0.7515 -0.3626
  175SOPE  H16S19909   4.773   6.313   8.434 -2.0745  1.1248 -1.1468
  175SOPE  C21719910   4.562   6.288   8.443  0.5448  0.9393  0.5573
  175SOPE  H17R19911   4.555   6.398   8.431 -1.1335  1.0208  1.9177
  175SOPE  H17S19912   4.475   6.258   8.505  1.3553  0.4306  1.4844
  175SOPE  C21819913   4.537   6.210   8.310  0.9637  0.4653 -0.5645
  175SOPE  H18R19914   4.618   6.225   8.236  0.3227 -0.7976 -1.5761
  175SOPE  H18S19915   4.442   6.247   8.266  0.5802  1.9560  1.4135
  175SOPE  H18T19916   4.536   6.100   8.324  0.5514  0.5368 -0.0203
  175SOPE   C3319917   4.783   7.383   9.936  0.4221 -0.1128  0.7874
  175SOPE   H3X19918   4.891   7.404   9.945  0.1351  1.1635  1.3835
  175SOPE   H3Y19919   4.731   7.425  10.024 -1.6056 -3.6764  1.5049
  175SOPE   C3419920   4.730   7.462   9.815 -0.1823 -1.2331 -0.4847
  175SOPE   H4X19921   4.763   7.412   9.722  0.5653 -0.9270 -0.3849
  175SOPE   H4Y19922   4.788   7.557   9.819  2.0523 -2.5604  0.9694
  175SOPE   C3519923   4.584   7.490   9.820 -0.2874  0.1433 -0.3471
  175SOPE   H5X19924   4.566   7.555   9.909 -1.0213 -1.3687  0.6722
  175SOPE   H5Y19925   4.512   7.405   9.823 -2.1249  1.6285  0.1481
  175SOPE   C3619926   4.535   7.585   9.710 -0.6147 -0.2873  0.1740
  175SOPE   H6X19927   4.595   7.678   9.719  0.8491 -1.3053  1.4052
  175SOPE   H6Y19928   4.427   7.608   9.722 -0.4667  0.1975  0.6600
  175SOPE   C3719929   4.546   7.520   9.570 -0.3920 -0.2934 -0.1284
  175SOPE   H7X19930   4.496   7.422   9.560 -0.8167 -0.0258 -0.6539
  175SOPE   H7Y19931   4.655   7.501   9.557 -0.3916 -0.4032  0.0388
  175SOPE   C3819932   4.507   7.622   9.466 -0.9372  0.4979  0.5656
  175SOPE   H8X19933   4.401   7.651   9.480 -1.4434 -1.9320  2.6244
  175SOPE   H8Y19934   4.507   7.560   9.374  4.3419 -0.5901  0.9440
  175SOPE   C3919935   4.592   7.743   9.440 -0.3190 -0.1827  0.2428
  175SOPE   H9X19936   4.701   7.727   9.458  0.4622  4.1207  0.5489
  175SOPE   H9Y19937   4.572   7.824   9.514  0.1427  0.0651  0.1015
  175SOPE  C31019938   4.585   7.809   9.299 -0.7702 -1.0986 -0.4281
  175SOPE  H10X19939   4.654   7.896   9.304 -2.4396  0.2925 -0.2842
  175SOPE  H10Y19940   4.480   7.847   9.299  0.9455  4.7765 -1.6978
  175SOPE  C31119941   4.606   7.714   9.176 -0.1684 -1.2238  0.6560
  175SOPE  H11X19942   4.536   7.627   9.176 -1.0224 -0.5918 -1.4530
  175SOPE  H11Y19943   4.709   7.672   9.172  0.1388 -0.4569 -2.4898
  175SOPE  C31219944   4.579   7.789   9.042  0.5720 -0.2055 -0.0837
  175SOPE  H12X19945   4.655   7.868   9.026  0.2281  0.5327  1.6700
  175SOPE  H12Y19946   4.482   7.841   9.053  1.8095  2.2204 -0.0764
  175SOPE  C31319947   4.575   7.695   8.916  0.3309 -0.7557 -0.2200
  175SOPE  H13X19948   4.547   7.749   8.823 -0.0569  0.2736  0.4739
  175SOPE  H13Y19949   4.494   7.620   8.935 -0.9379  0.7501  0.6168
  175SOPE  C31419950   4.699   7.606   8.896  0.0651 -0.0881 -0.2006
  175SOPE  H14X19951   4.724   7.543   8.984  0.0868  0.9586  0.5720
  175SOPE  H14Y19952   4.781   7.679   8.880  0.6113 -0.9255 -1.3674
  175SOPE  C31519953   4.680   7.525   8.774 -0.0470  0.1991  1.0045
  175SOPE  H15X19954   4.660   7.581   8.680 -0.2884 -1.6140 -0.0937
  175SOPE  H15Y19955   4.597   7.452   8.784  1.3676 -1.5643  0.3859
  175SOPE  C31619956   4.799   7.424   8.764  0.2673  0.5363 -0.7888
  175SOPE  H16X19957   4.812   7.379   8.865  0.5722 -1.3957 -1.6294
  175SOPE  H16Y19958   4.888   7.488   8.747  1.8442 -0.9104  1.3804
  175SOPE  C31719959   4.790   7.310   8.662  0.2500  0.0223 -0.1873
  175SOPE  H17X19960   4.813   7.360   8.566 -0.1179 -1.1887 -0.9244
  175SOPE  H17Y19961   4.694   7.254   8.656  2.0480 -3.5160  1.3310
  175SOPE  C31819962   4.908   7.206   8.685 -0.6732  0.2464 -0.4272
  175SOPE  H18X19963   4.886   7.120   8.618 -1.7836 -0.2046  0.4933
  175SOPE  H18Y19964   4.913   7.159   8.785  0.8402  0.3057 -0.4515
  175SOPE  H18Z19965   5.006   7.250   8.656 -0.9983  2.1751  1.1962
  176SOPE     N19966   3.947   6.014  10.996  0.5473  0.8527 -0.4127
  176SOPE   HN119967   3.950   5.955  11.081 -0.6343 -0.1059 -1.0037
  176SOPE   HN219968   3.992   5.956  10.922  0.3372 -1.3610  1.1037
  176SOPE   HN319969   4.004   6.098  11.018 -0.4040  1.6028 -0.7653
  176SOPE   C1219970   3.806   6.070  10.969  0.6804 -0.6715  0.0617
  176SOPE  H12A19971   3.775   6.125  11.060  1.6309  0.1831 -0.1054
  176SOPE  H12B19972   3.736   5.988  10.941  0.5531 -1.5533  2.6494
  176SOPE   C1119973   3.819   6.168  10.850  0.9246  0.3162  0.5022
  176SOPE  H11A19974   3.737   6.242  10.860 -0.3914 -0.7426 -1.6765
  176SOPE  H11B19975   3.813   6.108  10.757 -0.2832  1.2944 -0.0787
  176SOPE     P19976   3.962   6.365  10.768  0.0002  0.9655  0.4176
  176SOPE   O1319977   4.108   6.389  10.738 -0.0821  0.2379 -0.3938
  176SOPE   O1419978   3.900   6.481  10.830  0.2225 -0.2936 -0.4637
  176SOPE   O1219979   3.947   6.238  10.861 -0.1403  0.0526 -0.3701
  176SOPE   O1119980   3.885   6.329  10.640  0.5327  0.8300 -0.3187
  176SOPE    C119981   3.935   6.242  10.540  0.2361 -0.2386  0.5840
  176SOPE    HA19982   3.973   6.147  10.583  0.2467 -1.5589 -2.1152
  176SOPE    HB19983   4.016   6.291  10.482 -0.2521  0.5472  0.5353
  176SOPE    C219984   3.826   6.204  10.435 -0.0288 -0.2508  0.6470
  176SOPE    HS19985   3.878   6.143  10.358  1.2049  0.9111  0.5173
  176SOPE   O2119986   3.763   6.324  10.384  0.5821  0.6554 -0.2311
  176SOPE   C2119987   3.807   6.364  10.269  0.7228 -0.0251  0.5646
  176SOPE   O2219988   3.882   6.302  10.197 -0.4420  0.7569 -0.2721
  176SOPE   C2219989   3.740   6.501  10.220 -0.3090 -0.1075  0.0888
  176SOPE   H2R19990   3.803   6.582  10.262  2.9829 -1.8851 -1.0393
  176SOPE   H2S19991   3.639   6.501  10.266 -0.1631  0.8912  0.4304
  176SOPE    C319992   3.713   6.110  10.473  0.5019 -0.3198 -0.1034
  176SOPE    HX19993   3.645   6.167  10.540 -0.3572  0.3847 -1.5288
  176SOPE    HY19994   3.745   6.030  10.544  0.1671 -0.7865 -0.4729
  176SOPE   O3119995   3.645   6.064  10.353  0.3328 -0.3515 -0.1217
  176SOPE   C3119996   3.689   5.962  10.297  0.6283  0.1577  0.1057
  176SOPE   O3219997   3.764   5.878  10.349  0.1211  0.8854 -0.5573
  176SOPE   C3219998   3.639   5.952  10.159 -0.3012  0.9110 -0.5462
  176SOPE   H2X19999   3.651   6.049  10.106 -0.9153  1.0784 -0.3982
  176SOPE   H2Y20000   3.530   5.929  10.160 -0.5267  1.9228  0.0610
  176SOPE   C2320001   3.725   6.522  10.068  0.0614  0.3410  0.5802
  176SOPE   H3R20002   3.823   6.509  10.018  0.9807  2.5750  1.6843
  176SOPE   H3S20003   3.696   6.628  10.050  0.7637  0.2649 -1.2358
  176SOPE   C2420004   3.634   6.439   9.993  0.8807 -0.1557 -0.1920
  176SOPE   H4R20005   3.667   6.333   9.997 -2.5706 -1.3395  1.0720
  176SOPE   H4S20006   3.533   6.450  10.037 -0.4115 -2.8196 -2.2169
  176SOPE   C2520007   3.622   6.482   9.845 -0.4322  0.3337  0.3923
  176SOPE   H5R20008   3.584   6.586   9.848  2.6637  1.5933  0.2786
  176SOPE   H5S20009   3.722   6.489   9.797 -0.7184 -0.1073 -0.2917
  176SOPE   C2620010   3.552   6.389   9.756 -0.0867  0.4921 -0.9761
  176SOPE   H6R20011   3.601   6.289   9.765  2.9424  2.0524  2.9484
  176SOPE   H6S20012   3.450   6.373   9.797 -0.5810  0.1909 -2.2798
  176SOPE   C2720013   3.562   6.449   9.608  0.8038  0.0735  0.5956
  176SOPE   H7R20014   3.508   6.546   9.606 -1.4245 -1.0728 -2.3497
  176SOPE   H7S20015   3.669   6.476   9.599  0.9730 -1.2210 -2.4050
  176SOPE   C2820016   3.519   6.349   9.491 -0.9758  0.6755  0.3964
  176SOPE   H8R20017   3.544   6.389   9.390 -2.7828 -0.9092 -0.7351
  176SOPE   H8S20018   3.580   6.257   9.493  0.6589  1.6568 -0.8294
  176SOPE   C2920019   3.376   6.312   9.494  0.1795  0.0881  0.3054
  176SOPE   H9120020   3.343   6.222   9.548 -2.4991  1.0988  0.4884
  176SOPE  C21020021   3.270   6.383   9.446 -0.3996  0.5504  0.2898
  176SOPE  H10120022   3.170   6.338   9.433  0.6968 -1.6588 -1.1604
  176SOPE  C21120023   3.290   6.515   9.374 -0.0507 -0.2245  0.6875
  176SOPE  H11R20024   3.364   6.576   9.429 -0.9711  0.1749  1.5182
  176SOPE  H11S20025   3.196   6.575   9.368 -0.1808 -0.5161 -0.4465
  176SOPE  C21220026   3.324   6.492   9.224 -0.0638  0.1750 -0.2190
  176SOPE  H12R20027   3.230   6.493   9.164 -1.0429 -1.5344  1.1917
  176SOPE  H12S20028   3.376   6.396   9.204  0.5645  0.6077 -0.7080
  176SOPE  C21320029   3.424   6.591   9.167 -0.2457 -1.0317  0.0585
  176SOPE  H13R20030   3.510   6.596   9.236 -0.2058  1.7469 -0.1078
  176SOPE  H13S20031   3.365   6.684   9.180  0.1791 -0.8580  0.7464
  176SOPE  C21420032   3.472   6.563   9.023 -1.0939 -0.1875 -0.2794
  176SOPE  H14R20033   3.489   6.454   9.010  2.4403  0.2084  0.1908
  176SOPE  H14S20034   3.565   6.624   9.032 -0.9112 -0.3056 -1.2775
  176SOPE  C21520035   3.382   6.617   8.901 -1.0003  0.1509 -0.3327
  176SOPE  H15R20036   3.361   6.726   8.910 -1.6000 -0.0983  1.7689
  176SOPE  H15S20037   3.295   6.551   8.922 -0.7830  0.2232  0.8750
  176SOPE  C21620038   3.450   6.596   8.762  0.7181 -0.4174 -0.6397
  176SOPE  H16R20039   3.366   6.575   8.692 -2.2728 -2.5088  3.1402
  176SOPE  H16S20040   3.490   6.493   8.758 -0.8180 -1.0663 -0.0600
  176SOPE  C21720041   3.555   6.696   8.712 -0.2459  0.0347 -0.1563
  176SOPE  H17R20042   3.513   6.799   8.703  2.7585  1.2805 -1.3400
  176SOPE  H17S20043   3.590   6.663   8.612 -2.8045 -1.7371 -0.5555
  176SOPE  C21820044   3.679   6.702   8.805 -0.1885  0.0863  0.2244
  176SOPE  H18R20045   3.649   6.755   8.898  0.6669  1.1216 -0.0705
  176SOPE  H18S20046   3.766   6.750   8.756 -0.1227 -1.7298 -1.5381
  176SOPE  H18T20047   3.705   6.598   8.834  0.4572  0.4013  0.8130
  176SOPE   C3320048   3.711   5.847  10.073  0.4729 -0.3995 -0.3509
  176SOPE   H3X20049   3.690   5.750  10.122 -0.1065 -0.1429 -0.0794
  176SOPE   H3Y20050   3.819   5.857  10.050  0.2819  0.1357 -1.0587
  176SOPE   C3420051   3.639   5.821   9.936  0.7068 -0.1665 -0.5011
  176SOPE   H4X20052   3.644   5.910   9.870  0.9811  0.5070  0.4087
  176SOPE   H4Y20053   3.532   5.807   9.964  1.1241 -0.0874  1.2468
  176SOPE   C3520054   3.678   5.694   9.861 -0.5862 -0.4495 -0.5010
  176SOPE   H5X20055   3.658   5.605   9.924 -2.2047 -0.5954 -1.1662
  176SOPE   H5Y20056   3.787   5.700   9.843 -0.5718  0.1109 -0.2212
  176SOPE   C3620057   3.620   5.669   9.716  0.1973  0.0964 -0.7931
  176SOPE   H6X20058   3.510   5.680   9.719  0.3283  1.4090  1.0852
  176SOPE   H6Y20059   3.644   5.567   9.681  1.4549 -0.2146  0.8491
  176SOPE   C3720060   3.670   5.786   9.623  0.4950  0.8147 -0.5161
  176SOPE   H7X20061   3.779   5.804   9.634 -0.0360  4.2436  0.4129
  176SOPE   H7Y20062   3.619   5.877   9.661 -2.9761 -0.3405 -2.0239
  176SOPE   C3820063   3.631   5.766   9.479  0.4498  0.1593  0.1912
  176SOPE   H8X20064   3.521   5.766   9.462  0.6858  1.0399 -1.4994
  176SOPE   H8Y20065   3.682   5.677   9.435 -1.5004 -0.0796 -1.7859
  176SOPE   C3920066   3.682   5.881   9.396 -0.1250 -0.0842  0.4992
  176SOPE   H9X20067   3.789   5.896   9.422 -0.8315  0.6787  3.3958
  176SOPE   H9Y20068   3.635   5.981   9.409 -0.0991 -0.0468  0.3079
  176SOPE  C31020069   3.673   5.836   9.239 -0.3789  0.2197 -0.3329
  176SOPE  H10X20070   3.571   5.821   9.198 -0.2530 -1.2616 -0.1312
  176SOPE  H10Y20071   3.726   5.740   9.222 -1.5922 -0.8653  1.6990
  176SOPE  C31120072   3.726   5.941   9.143  0.5144  0.0230  0.9389
  176SOPE  H11X20073   3.731   5.892   9.044  1.1165 -1.3677  1.6345
  176SOPE  H11Y20074   3.829   5.968   9.174  0.7358  0.9998 -0.5246
  176SOPE  C31220075   3.637   6.057   9.135 -0.8501  0.1420  0.3925
  176SOPE  H12X20076   3.581   6.077   9.229  0.4624 -0.9772  1.4555
  176SOPE  H12Y20077   3.556   6.035   9.063 -1.4742  0.7145  0.8997
  176SOPE  C31320078   3.691   6.190   9.087 -0.6868 -0.7941  0.5219
  176SOPE  H13X20079   3.753   6.225   9.173  0.0349  0.9058 -0.6231
  176SOPE  H13Y20080   3.605   6.261   9.085  1.0550  1.4499  0.4778
  176SOPE  C31420081   3.771   6.184   8.954 -0.4101 -0.0024  0.0586
  176SOPE  H14X20082   3.853   6.109   8.967  0.3637  1.0897  1.8253
  176SOPE  H14Y20083   3.817   6.281   8.926 -0.5324  1.5479  4.3968
  176SOPE  C31520084   3.678   6.135   8.841 -0.1813  0.4811 -0.7862
  176SOPE  H15X20085   3.589   6.201   8.848 -0.7062 -0.3304  1.0371
  176SOPE  H15Y20086   3.656   6.027   8.859 -1.9308  0.5956 -1.9381
  176SOPE  C31620087   3.734   6.153   8.705 -0.2992 -0.2297 -0.2196
  176SOPE  H16X20088   3.681   6.079   8.642 -2.2103  2.0101 -1.3782
  176SOPE  H16Y20089   3.843   6.135   8.720 -0.5055  0.3615  2.4705
  176SOPE  C31720090   3.730   6.294   8.648  0.1937  0.7305 -0.4452
  176SOPE  H17X20091   3.800   6.355   8.711  1.4825 -1.3730  0.2491
  176SOPE  H17Y20092   3.626   6.332   8.642 -0.6701 -1.3026  0.7716
  176SOPE  C31820093   3.792   6.289   8.506  0.5243 -0.3525 -0.8247
  176SOPE  H18X20094   3.790   6.386   8.452  0.7983 -1.2659 -2.5509
  176SOPE  H18Y20095   3.741   6.219   8.437 -1.4367 -0.5799  0.7768
  176SOPE  H18Z20096   3.897   6.255   8.520  1.1921  2.0670  0.6346
  177SOPE     N20097   3.176   4.699  11.125 -0.1756  0.1588 -0.2867
  177SOPE   HN120098   3.117   4.701  11.039  0.2923  0.8035 -0.6080
  177SOPE   HN220099   3.152   4.781  11.184 -0.0568 -1.2239  1.7690
  177SOPE   HN320100   3.276   4.701  11.096  0.2082  0.9923  1.0595
  177SOPE   C1220101   3.180   4.570  11.199 -0.1015  0.0569  0.0001
  177SOPE  H12A20102   3.080   4.544  11.239 -0.1340  0.7895  0.4212
  177SOPE  H12B20103   3.255   4.579  11.280  0.5571  1.0267 -0.6915
  177SOPE   C1120104   3.218   4.452  11.101 -0.0470 -0.5324 -0.1459
  177SOPE  H11A20105   3.124   4.425  11.050 -0.2044  2.0028 -1.3879
  177SOPE  H11B20106   3.242   4.362  11.160  0.9249 -0.0258  0.2641
  177SOPE     P20107   3.458   4.408  11.014  0.2490 -0.0516 -0.0589
  177SOPE   O1320108   3.515   4.407  11.155  0.4433 -0.1501  0.3352
  177SOPE   O1420109   3.551   4.436  10.905 -0.2439  0.2591  0.3254
  177SOPE   O1220110   3.322   4.494  11.012  0.3044 -0.0455  0.1812
  177SOPE   O1120111   3.411   4.259  10.987  0.0238 -0.5756  0.1147
  177SOPE    C120112   3.291   4.220  10.909  0.6232  0.0533 -0.0581
  177SOPE    HA20113   3.209   4.295  10.913  1.9946  1.5598  1.1908
  177SOPE    HB20114   3.251   4.130  10.961  0.5465  0.6997  1.0448
  177SOPE    C220115   3.324   4.195  10.765 -0.7041 -0.0878  0.3073
  177SOPE    HS20116   3.424   4.148  10.776 -0.9654 -0.3045  2.0847
  177SOPE   O2120117   3.327   4.326  10.694  0.1382 -0.1281  0.3339
  177SOPE   C2120118   3.426   4.331  10.612  0.1902 -0.7492  0.6462
  177SOPE   O2220119   3.513   4.250  10.594 -0.3969 -0.6189  0.3182
  177SOPE   C2220120   3.411   4.459  10.525 -0.1490 -0.8799  0.4537
  177SOPE   H2R20121   3.413   4.537  10.604  1.9159  0.3825 -0.7392
  177SOPE   H2S20122   3.313   4.461  10.473  0.8077 -0.4170 -1.4104
  177SOPE    C320123   3.227   4.096  10.691 -1.1694 -0.2892 -0.2314
  177SOPE    HX20124   3.121   4.131  10.691 -1.4108 -0.9753  0.7430
  177SOPE    HY20125   3.241   3.998  10.742 -1.8084  1.1580  2.9529
  177SOPE   O3120126   3.254   4.077  10.553 -0.7194  0.0190 -0.4762
  177SOPE   C3120127   3.169   4.024  10.476  0.4038 -0.1917  0.9030
  177SOPE   O3220128   3.051   4.001  10.504 -0.3768  0.2210  0.1462
  177SOPE   C3220129   3.236   4.016  10.338 -0.5029  0.2304 -0.7742
  177SOPE   H2X20130   3.293   3.921  10.341 -0.0515  0.5218  0.3113
  177SOPE   H2Y20131   3.303   4.104  10.323 -0.7390  0.3467 -1.1576
  177SOPE   C2320132   3.522   4.480  10.421 -0.2657 -0.1421  0.4059
  177SOPE   H3R20133   3.614   4.495  10.482 -0.3448  2.4006  0.0284
  177SOPE   H3S20134   3.499   4.571  10.362  0.0602 -0.8135 -0.7718
  177SOPE   C2420135   3.539   4.371  10.319 -0.9111 -0.0981  0.0192
  177SOPE   H4R20136   3.570   4.278  10.372  0.2786  0.5617  0.5200
  177SOPE   H4S20137   3.442   4.354  10.268 -0.7058  2.2879 -1.3102
  177SOPE   C2520138   3.637   4.415  10.198 -0.0430  0.5551  0.4193
  177SOPE   H5R20139   3.704   4.490  10.247 -1.8480  2.5702 -0.0351
  177SOPE   H5S20140   3.678   4.318  10.164 -3.7627 -0.7930 -0.7192
  177SOPE   C2620141   3.567   4.494  10.088  0.5858  0.1472 -0.5342
  177SOPE   H6R20142   3.466   4.450  10.087  0.0862  1.1105  1.4494
  177SOPE   H6S20143   3.544   4.600  10.111  0.1308 -0.3698  1.6324
  177SOPE   C2720144   3.638   4.500   9.951 -0.0904  1.0708  0.2934
  177SOPE   H7R20145   3.599   4.584   9.889  0.6563 -0.5990 -2.6277
  177SOPE   H7S20146   3.746   4.501   9.974  0.4139 -0.8509 -1.5875
  177SOPE   C2820147   3.622   4.371   9.864 -0.8332  0.4009  0.3723
  177SOPE   H8R20148   3.675   4.389   9.768  1.3528 -2.7548  0.8362
  177SOPE   H8S20149   3.679   4.289   9.913  0.2805 -0.2446 -1.8377
  177SOPE   C2920150   3.479   4.333   9.849  0.1880  0.0672 -0.1923
  177SOPE   H9120151   3.440   4.277   9.936  0.0319  0.8987  0.2801
  177SOPE  C21020152   3.403   4.371   9.743 -0.2987  0.5103  0.2265
  177SOPE  H10120153   3.298   4.338   9.737 -0.0590 -0.1603 -0.3782
  177SOPE  C21120154   3.454   4.448   9.622  0.3821 -0.3408 -0.1817
  177SOPE  H11R20155   3.543   4.510   9.645 -1.1642  1.9597 -0.0014
  177SOPE  H11S20156   3.378   4.527   9.603  0.0432 -0.2534  1.4442
  177SOPE  C21220157   3.500   4.372   9.493  0.0350  0.0375 -0.5018
  177SOPE  H12R20158   3.413   4.327   9.440 -1.5967  1.4138  0.8829
  177SOPE  H12S20159   3.569   4.288   9.509 -2.4449 -1.9473  0.4145
  177SOPE  C21320160   3.564   4.465   9.391  0.1997 -0.3797  0.0503
  177SOPE  H13R20161   3.617   4.550   9.440  3.0746 -1.8394 -0.3074
  177SOPE  H13S20162   3.493   4.519   9.325  0.4285  1.6148  1.3355
  177SOPE  C21420163   3.667   4.391   9.296  0.3453 -0.5453  0.2279
  177SOPE  H14R20164   3.750   4.340   9.348  1.3547 -1.0210 -1.7315
  177SOPE  H14S20165   3.716   4.469   9.233  0.1569 -2.6475 -2.7593
  177SOPE  C21520166   3.609   4.279   9.221  0.6713 -0.2186  0.3027
  177SOPE  H15R20167   3.580   4.192   9.284 -0.8341 -0.8459 -1.1685
  177SOPE  H15S20168   3.682   4.227   9.154  0.8140 -1.1718  1.1657
  177SOPE  C21620169   3.479   4.319   9.141  0.2039 -0.2886  0.4670
  177SOPE  H16R20170   3.395   4.343   9.210 -0.6184 -2.2344  0.1816
  177SOPE  H16S20171   3.462   4.226   9.083  2.2171  1.3707 -3.1242
  177SOPE  C21720172   3.499   4.431   9.039  0.2845 -0.5133  0.4612
  177SOPE  H17R20173   3.537   4.525   9.085 -2.5094 -0.2145  2.4034
  177SOPE  H17S20174   3.398   4.463   9.005 -0.4262 -2.9637  0.1073
  177SOPE  C21820175   3.579   4.398   8.918 -0.4931 -0.4389  0.2070
  177SOPE  H18R20176   3.532   4.338   8.837  0.9102  0.4744 -1.3563
  177SOPE  H18S20177   3.669   4.337   8.942 -0.4976 -0.7560 -0.5326
  177SOPE  H18T20178   3.625   4.486   8.867 -1.4046  0.4193  0.8339
  177SOPE   C3320179   3.143   4.011  10.222 -0.0413 -0.1889  0.7161
  177SOPE   H3X20180   3.072   4.095  10.234  0.8086  0.6288  0.1869
  177SOPE   H3Y20181   3.081   3.919  10.225 -0.0107 -0.2581 -0.2625
  177SOPE   C3420182   3.229   4.019  10.092  0.4304 -0.1347 -0.2282
  177SOPE   H4X20183   3.305   3.938  10.094 -0.3514 -0.8686 -0.2615
  177SOPE   H4Y20184   3.285   4.116  10.091 -0.0141  0.1532  0.8491
  177SOPE   C3520185   3.149   4.019   9.962 -0.2441 -0.3261 -0.2974
  177SOPE   H5X20186   3.097   4.117   9.955 -0.9949 -0.5316  1.7661
  177SOPE   H5Y20187   3.073   3.938   9.965 -0.3661 -0.4219 -3.2643
  177SOPE   C3620188   3.231   3.988   9.837 -0.6406  0.2078 -0.1002
  177SOPE   H6X20189   3.271   3.885   9.850 -0.8862  0.2223  0.8009
  177SOPE   H6Y20190   3.322   4.052   9.832 -0.0830 -0.1572  3.4119
  177SOPE   C3720191   3.148   4.010   9.707 -0.1305 -0.2747  0.3747
  177SOPE   H7X20192   3.105   4.112   9.720  0.9866  0.3673 -0.6968
  177SOPE   H7Y20193   3.080   3.924   9.695 -0.6717  0.1684  0.2306
  177SOPE   C3820194   3.239   4.011   9.579  0.0048 -0.5853 -0.2380
  177SOPE   H8X20195   3.307   3.925   9.594 -0.1383 -0.2290  2.9614
  177SOPE   H8Y20196   3.309   4.098   9.576  0.6783 -1.1365 -0.8382
  177SOPE   C3920197   3.170   4.017   9.444 -0.1234 -0.2971 -0.3897
  177SOPE   H9X20198   3.097   4.100   9.435  0.6440  0.5150  0.6118
  177SOPE   H9Y20199   3.116   3.921   9.435 -3.1234  1.2456 -0.0590
  177SOPE  C31020200   3.275   4.040   9.321 -0.3507  0.3769  0.4785
  177SOPE  H10X20201   3.368   4.091   9.353  0.6001 -1.7375  1.2677
  177SOPE  H10Y20202   3.224   4.107   9.248 -2.8871  0.2054  1.9798
  177SOPE  C31120203   3.305   3.911   9.251  0.0606  0.0323  0.3218
  177SOPE  H11X20204   3.218   3.861   9.203 -0.6315 -2.1222  3.4691
  177SOPE  H11Y20205   3.351   3.836   9.319 -0.2141 -0.0626  0.4037
  177SOPE  C31220206   3.410   3.922   9.135 -0.2344 -0.6103 -0.4041
  177SOPE  H12X20207   3.458   3.822   9.128  0.1112 -1.0651  4.6533
  177SOPE  H12Y20208   3.489   3.996   9.158 -0.8640 -0.1173  0.2282
  177SOPE  C31320209   3.355   3.958   8.993 -0.5709 -0.4658  0.8410
  177SOPE  H13X20210   3.311   3.866   8.948 -0.8275 -0.4832  1.1204
  177SOPE  H13Y20211   3.431   3.997   8.922  0.6446 -0.5163  2.0776
  177SOPE  C31420212   3.228   4.058   8.989 -0.8175 -0.0082 -0.1921
  177SOPE  H14X20213   3.267   4.159   9.015 -1.8253  0.8374 -1.8258
  177SOPE  H14Y20214   3.153   4.020   9.060  0.8917 -2.2613  0.5244
  177SOPE  C31520215   3.152   4.066   8.845 -0.3956 -0.4949  0.2599
  177SOPE  H15X20216   3.063   4.130   8.858 -1.0973 -1.4957  0.4587
  177SOPE  H15Y20217   3.120   3.962   8.820 -1.8337 -0.6838  2.6068
  177SOPE  C31620218   3.224   4.122   8.734 -0.3362  0.2581 -0.0362
  177SOPE  H16X20219   3.302   4.052   8.696 -0.6253  0.9527 -2.0462
  177SOPE  H16Y20220   3.281   4.214   8.763  0.5847  0.3712 -2.0239
  177SOPE  C31720221   3.127   4.160   8.620 -0.6689  0.6245  0.2971
  177SOPE  H17X20222   3.045   4.220   8.665 -0.9125  0.3154  0.2677
  177SOPE  H17Y20223   3.072   4.068   8.589  0.9068 -0.6877  1.2230
  177SOPE  C31820224   3.194   4.226   8.503 -0.3103 -0.8926 -0.4976
  177SOPE  H18X20225   3.122   4.238   8.420 -0.7070 -0.1904 -0.0601
  177SOPE  H18Y20226   3.268   4.152   8.464  1.4448 -0.4055  1.7004
  177SOPE  H18Z20227   3.248   4.318   8.533 -1.1844 -1.3802  2.9957
  178SOPE     N20228   1.729   2.713  10.754 -0.0570 -0.4901  0.6549
  178SOPE   HN120229   1.805   2.642  10.752  0.8863  0.5121 -1.0934
  178SOPE   HN220230   1.673   2.711  10.666  0.1782  1.7369  0.3873
  178SOPE   HN320231   1.780   2.803  10.747 -1.0377  0.4053  3.6473
  178SOPE   C1220232   1.649   2.707  10.876 -0.8352  0.5529  0.6204
  178SOPE  H12A20233   1.650   2.810  10.918  0.5063  0.4870  0.8083
  178SOPE  H12B20234   1.701   2.636  10.944  2.1039  0.9051 -1.0500
  178SOPE   C1120235   1.503   2.662  10.847 -0.3269 -0.0744  0.5223
  178SOPE  H11A20236   1.458   2.734  10.777  1.5712 -0.8657 -1.6454
  178SOPE  H11B20237   1.449   2.671  10.944  0.6274  1.0971  0.9721
  178SOPE     P20238   1.398   2.416  10.827 -0.3706 -0.0312 -0.2919
  178SOPE   O1320239   1.264   2.469  10.871  0.0909 -0.6123  0.6441
  178SOPE   O1420240   1.454   2.317  10.922  0.1218 -0.6759 -0.2424
  178SOPE   O1220241   1.504   2.523  10.795  0.1354 -0.4800  0.1253
  178SOPE   O1120242   1.376   2.347  10.681 -0.2227 -0.6595  0.0739
  178SOPE    C120243   1.401   2.408  10.554 -0.1141  0.6599  0.5030
  178SOPE    HA20244   1.451   2.507  10.558  1.0716  0.3112 -2.7157
  178SOPE    HB20245   1.300   2.419  10.507 -0.7185  0.3213  1.6922
  178SOPE    C220246   1.472   2.317  10.452 -0.8742  0.3869  0.1133
  178SOPE    HS20247   1.435   2.219  10.487 -0.8131  0.4179  0.2661
  178SOPE   O2120248   1.610   2.340  10.482 -0.5145  0.2450  0.1610
  178SOPE   C2120249   1.698   2.260  10.436 -0.7981 -0.4202 -0.1101
  178SOPE   O2220250   1.680   2.142  10.404  0.0123  0.0481 -0.1053
  178SOPE   C2220251   1.835   2.327  10.437 -0.5826 -0.0631 -0.0899
  178SOPE   H2R20252   1.884   2.295  10.532 -0.7414 -1.7983 -0.5625
  178SOPE   H2S20253   1.819   2.437  10.442  1.0465  0.3543 -2.4314
  178SOPE    C320254   1.423   2.329  10.300 -0.3863  0.3567 -0.4500
  178SOPE    HX20255   1.443   2.435  10.273  1.6227 -0.0936 -0.8818
  178SOPE    HY20256   1.313   2.315  10.294 -0.3643 -0.4751  0.7585
  178SOPE   O3120257   1.501   2.250  10.207 -1.1004  0.7717 -0.2735
  178SOPE   C3120258   1.457   2.122  10.186  0.2788  0.3592 -0.1703
  178SOPE   O3220259   1.347   2.083  10.223  0.3535 -0.1184 -0.0948
  178SOPE   C3220260   1.562   2.038  10.106  0.6106  0.5321  0.1215
  178SOPE   H2X20261   1.521   1.940  10.073  0.7620  0.3534  0.4666
  178SOPE   H2Y20262   1.646   2.021  10.176 -0.1501 -0.7825  0.7544
  178SOPE   C2320263   1.918   2.295  10.311  0.5481  0.1741 -0.4287
  178SOPE   H3R20264   1.897   2.191  10.278 -0.6887  1.0056 -2.4706
  178SOPE   H3S20265   2.025   2.315  10.331  0.6410  0.0056 -0.7468
  178SOPE   C2420266   1.872   2.386  10.196  0.1477  0.6806  0.2037
  178SOPE   H4R20267   1.762   2.375  10.188  0.4994 -3.2141 -1.8349
  178SOPE   H4S20268   1.901   2.491  10.219 -1.7869  1.3423 -0.2679
  178SOPE   C2520269   1.923   2.328  10.061 -0.2051 -0.6388 -0.3665
  178SOPE   H5R20270   2.033   2.315  10.071 -0.3936 -0.8061  1.8528
  178SOPE   H5S20271   1.876   2.229  10.042 -0.0204 -0.8462  0.2482
  178SOPE   C2620272   1.898   2.426   9.947  0.2714 -0.2178  0.4438
  178SOPE   H6R20273   1.794   2.464   9.952 -0.2636 -1.7314  1.2143
  178SOPE   H6S20274   1.960   2.516   9.972  0.2986  0.5953 -2.2102
  178SOPE   C2720275   1.933   2.364   9.809  0.2045  0.0301 -0.2902
  178SOPE   H7R20276   2.041   2.337   9.817 -0.1191 -0.8057  2.0688
  178SOPE   H7S20277   1.882   2.268   9.789 -0.2645  0.4444 -1.1336
  178SOPE   C2820278   1.911   2.468   9.692  0.4092 -0.1363 -0.2457
  178SOPE   H8R20279   1.982   2.550   9.714  0.2619 -0.3575  1.1184
  178SOPE   H8S20280   1.946   2.427   9.594  1.0999  2.3240 -1.0953
  178SOPE   C2920281   1.764   2.515   9.673  0.4225 -0.6340 -0.0922
  178SOPE   H9120282   1.731   2.599   9.736 -1.1036 -0.0508 -1.6030
  178SOPE  C21020283   1.680   2.462   9.581  0.7449 -1.2235 -0.2056
  178SOPE  H10120284   1.579   2.505   9.580  1.6399  1.0390 -2.8977
  178SOPE  C21120285   1.712   2.356   9.482  0.6274  0.8750 -0.2280
  178SOPE  H11R20286   1.618   2.297   9.475  1.6938 -1.2308  1.7396
  178SOPE  H11S20287   1.786   2.290   9.533 -0.9487 -0.4428  0.4524
  178SOPE  C21220288   1.786   2.423   9.359 -0.5846  0.5826  0.7806
  178SOPE  H12R20289   1.868   2.490   9.395  0.9103 -0.1993 -1.0129
  178SOPE  H12S20290   1.718   2.483   9.296  1.7689  1.2599 -1.2823
  178SOPE  C21320291   1.842   2.326   9.250 -0.4409 -0.5780  0.2151
  178SOPE  H13R20292   1.888   2.254   9.321  0.5990  0.8591  1.0564
  178SOPE  H13S20293   1.925   2.371   9.192  1.2948 -4.2251 -0.4238
  178SOPE  C21420294   1.737   2.254   9.173 -0.6118  0.0945  0.4377
  178SOPE  H14R20295   1.694   2.335   9.110 -1.5221 -0.3457  0.4656
  178SOPE  H14S20296   1.653   2.223   9.240 -0.0189  0.8537  1.5683
  178SOPE  C21520297   1.804   2.147   9.092 -0.9166  0.5392  0.6204
  178SOPE  H15R20298   1.860   2.076   9.155  0.6880  0.7338 -0.5346
  178SOPE  H15S20299   1.877   2.209   9.036  0.8821 -0.8956  1.2809
  178SOPE  C21620300   1.706   2.081   8.999 -0.4829 -0.0530 -0.4845
  178SOPE  H16R20301   1.646   2.161   8.948  1.6109  1.1206 -1.2417
  178SOPE  H16S20302   1.634   2.023   9.060 -0.1843 -0.1628 -0.2366
  178SOPE  C21720303   1.764   2.004   8.887 -0.0010 -0.2012 -0.1627
  178SOPE  H17R20304   1.740   1.898   8.908 -1.5900  0.1548 -0.0529
  178SOPE  H17S20305   1.872   2.031   8.896 -0.6675  2.3554  1.2724
  178SOPE  C21820306   1.710   2.037   8.748 -0.0340  0.3475  0.2404
  178SOPE  H18R20307   1.608   1.994   8.740 -0.3001  1.3004 -3.1961
  178SOPE  H18S20308   1.766   1.976   8.674 -1.8964 -1.0411 -0.1181
  178SOPE  H18T20309   1.705   2.146   8.729 -1.7018  0.1154 -0.8954
  178SOPE   C3320310   1.599   2.125   9.983 -0.4709 -0.0572  0.3358
  178SOPE   H3X20311   1.659   2.070   9.907 -1.4895  1.1884 -1.4559
  178SOPE   H3Y20312   1.661   2.211  10.014 -1.6710  1.3434 -0.9920
  178SOPE   C3420313   1.475   2.177   9.903  0.5967  0.6470 -0.4118
  178SOPE   H4X20314   1.513   2.210   9.804  1.7427  1.6923  0.3496
  178SOPE   H4Y20315   1.416   2.255   9.956 -2.2556 -2.1233  0.8017
  178SOPE   C3520316   1.359   2.075   9.881 -0.1453 -0.2077 -0.0925
  178SOPE   H5X20317   1.276   2.077   9.954 -0.4221  1.1669 -0.4148
  178SOPE   H5Y20318   1.399   1.972   9.886  2.6051  0.6453 -1.9246
  178SOPE   C3620319   1.300   2.081   9.738 -0.6512 -0.3388  0.2448
  178SOPE   H6X20320   1.293   2.179   9.686 -0.2532 -1.6307 -2.4043
  178SOPE   H6Y20321   1.198   2.035   9.744 -1.2830  1.0381  0.4866
  178SOPE   C3720322   1.375   1.997   9.633 -0.0888  0.4973 -0.5358
  178SOPE   H7X20323   1.389   1.898   9.681  2.0178  0.9077 -0.2165
  178SOPE   H7Y20324   1.478   2.038   9.619 -0.6760  2.9135  1.5290
  178SOPE   C3820325   1.283   1.995   9.505  0.4990 -0.1710 -0.0370
  178SOPE   H8X20326   1.280   2.101   9.471 -2.5961 -0.6035 -1.4741
  178SOPE   H8Y20327   1.179   1.971   9.536  1.4275 -1.7920  2.0644
  178SOPE   C3920328   1.318   1.912   9.389  0.3398  0.1791 -0.4719
  178SOPE   H9X20329   1.316   1.803   9.407  0.0570  0.1410 -0.7332
  178SOPE   H9Y20330   1.416   1.939   9.343  1.3676 -2.1164  0.2504
  178SOPE  C31020331   1.206   1.938   9.281  0.5442 -0.3476 -0.4983
  178SOPE  H10X20332   1.209   2.045   9.251 -0.7561 -0.0609  0.3046
  178SOPE  H10Y20333   1.110   1.921   9.334 -0.2465  1.0590 -1.3964
  178SOPE  C31120334   1.209   1.847   9.164  0.2849 -0.4511 -0.1272
  178SOPE  H11X20335   1.178   1.745   9.192 -1.7325  0.1193 -0.1527
  178SOPE  H11Y20336   1.314   1.834   9.129  0.0720  0.4360 -1.1681
  178SOPE  C31220337   1.134   1.896   9.034 -0.0524  0.0126 -0.0235
  178SOPE  H12X20338   1.188   1.987   9.001 -0.8151  0.2223 -0.7136
  178SOPE  H12Y20339   1.034   1.938   9.059 -1.6757 -0.4886 -4.7227
  178SOPE  C31320340   1.127   1.790   8.928 -0.3009  0.0142  0.0243
  178SOPE  H13X20341   1.089   1.695   8.971  3.1727 -1.0253  1.1460
  178SOPE  H13Y20342   1.226   1.765   8.885  0.4797 -1.4030  2.4534
  178SOPE  C31420343   1.041   1.840   8.812 -0.5136  0.2128 -0.2636
  178SOPE  H14X20344   1.078   1.942   8.788  0.1784 -0.0105 -0.1764
  178SOPE  H14Y20345   0.937   1.859   8.843  0.2360  3.1428  0.7172
  178SOPE  C31520346   1.053   1.758   8.677 -0.0803  0.0014  0.6543
  178SOPE  H15X20347   1.010   1.657   8.695  0.6768 -1.4595 -4.2377
  178SOPE  H15Y20348   1.161   1.737   8.661 -0.0573  1.2788 -1.2286
  178SOPE  C31620349   0.973   1.819   8.558  0.1949  0.3341  0.1888
  178SOPE  H16X20350   1.002   1.922   8.526 -2.1834  1.0162  0.0870
  178SOPE  H16Y20351   0.866   1.817   8.587 -0.0866  0.3204 -0.8133
  178SOPE  C31720352   0.985   1.732   8.431 -0.4548  0.6594 -0.8783
  178SOPE  H17X20353   1.087   1.746   8.389 -0.7167  0.7331 -1.5069
  178SOPE  H17Y20354   0.916   1.764   8.350 -0.2394 -1.9467 -2.1975
  178SOPE  C31820355   0.964   1.577   8.448  0.2315  0.4142  0.3072
  178SOPE  H18X20356   0.864   1.569   8.496 -0.3882  1.1919 -0.7957
  178SOPE  H18Y20357   1.041   1.521   8.504  0.8313  2.0904  1.2293
  178SOPE  H18Z20358   0.951   1.528   8.349 -1.3846  0.3098  0.5432
  179SOPE     N20359   0.090   3.775   6.556 -0.0433  0.0298  0.0907
  179SOPE   HN120360   0.024   3.762   6.477 -1.0451 -2.8538  1.2576
  179SOPE   HN220361   0.135   3.864   6.528  1.6957 -1.4666 -2.2694
  179SOPE   HN320362   0.163   3.701   6.562 -0.5791 -0.3976  1.9861
  179SOPE   C1220363   0.025   3.758   6.694 -0.1354  0.3269  0.4414
  179SOPE  H12A20364  -0.010   3.653   6.703 -1.2438  0.3889 -2.1990
  179SOPE  H12B20365  -0.062   3.827   6.695  0.8674  1.6879 -0.7739
  179SOPE   C1120366   0.138   3.790   6.802  0.6216  0.4699  0.3008
  179SOPE  H11A20367   0.095   3.746   6.895 -1.0281 -0.1451 -0.6998
  179SOPE  H11B20368   0.131   3.900   6.813 -3.4855  0.7373 -2.6516
  179SOPE     P20369   0.329   3.601   6.779 -0.1348 -0.2206 -0.2814
  179SOPE   O1320370   0.471   3.600   6.747 -0.5388  0.0338 -0.1625
  179SOPE   O1420371   0.240   3.519   6.688  0.3523 -0.0729 -0.7189
  179SOPE   O1220372   0.271   3.747   6.756  0.1812 -0.6674 -0.1591
  179SOPE   O1120373   0.312   3.566   6.939 -0.0808 -0.3813 -0.4535
  179SOPE    C120374   0.378   3.647   7.042  0.8649 -0.2580  0.1398
  179SOPE    HA20375   0.301   3.648   7.122 -1.1015 -1.4731 -1.6654
  179SOPE    HB20376   0.393   3.753   7.010  0.6664 -0.3667 -0.3222
  179SOPE    C220377   0.512   3.584   7.095 -0.0188  0.1529  0.4551
  179SOPE    HS20378   0.527   3.496   7.029 -0.4220  0.5470 -0.1688
  179SOPE   O2120379   0.484   3.539   7.227 -0.9595  0.2089 -0.0637
  179SOPE   C2120380   0.565   3.445   7.272  0.8224  0.4296 -0.2778
  179SOPE   O2220381   0.650   3.393   7.209 -0.0348  0.1313  0.3244
  179SOPE   C2220382   0.524   3.406   7.419  0.3337 -0.1873  0.0682
  179SOPE   H2R20383   0.440   3.336   7.432 -0.4022  1.0672  2.5171
  179SOPE   H2S20384   0.492   3.503   7.462 -3.0006 -0.4673 -1.5018
  179SOPE    C320385   0.633   3.684   7.097 -0.1400 -0.2040 -0.2107
  179SOPE    HX20386   0.654   3.720   6.994 -0.5740  1.4973  0.2620
  179SOPE    HY20387   0.731   3.640   7.125 -0.5848 -0.9482  0.2198
  179SOPE   O3120388   0.605   3.809   7.173 -0.7034 -0.0311 -0.1976
  179SOPE   C3120389   0.635   3.795   7.304  0.4888  0.0019  0.2055
  179SOPE   O3220390   0.684   3.699   7.353 -0.4027 -0.6807 -0.0855
  179SOPE   C3220391   0.575   3.910   7.380 -0.1578  0.2868  0.4119
  179SOPE   H2X20392   0.576   4.001   7.315 -1.1414  1.3311  1.8011
  179SOPE   H2Y20393   0.641   3.936   7.466  0.5012  0.3124 -0.0939
  179SOPE   C2320394   0.645   3.349   7.492  0.3548 -0.2969  0.3565
  179SOPE   H3R20395   0.723   3.428   7.486 -2.0803  2.1556 -2.0604
  179SOPE   H3S20396   0.686   3.257   7.444  1.7358  1.0043 -1.0536
  179SOPE   C2420397   0.611   3.331   7.640  0.7523 -0.2034  0.3123
  179SOPE   H4R20398   0.574   3.427   7.683  1.2610 -0.2753  0.9310
  179SOPE   H4S20399   0.537   3.250   7.657 -0.7055  0.8395 -0.7424
  179SOPE   C2520400   0.739   3.294   7.720  0.1321  0.3460 -0.0358
  179SOPE   H5R20401   0.768   3.193   7.685 -0.4314  0.2469 -0.2278
  179SOPE   H5S20402   0.828   3.356   7.694 -0.4571  0.8766 -0.8349
  179SOPE   C2620403   0.729   3.321   7.870  1.1369  0.5785 -0.7381
  179SOPE   H6R20404   0.728   3.431   7.882  3.4594  0.5517  0.1704
  179SOPE   H6S20405   0.632   3.281   7.907  2.2494 -1.6018  0.0347
  179SOPE   C2720406   0.843   3.255   7.947 -0.2267  0.3969 -0.0176
  179SOPE   H7R20407   0.833   3.145   7.935 -1.8069  0.6267 -1.1833
  179SOPE   H7S20408   0.941   3.286   7.903 -0.8843  0.9874 -1.1006
  179SOPE   C2820409   0.854   3.294   8.098  0.3670  0.4826  0.7934
  179SOPE   H8R20410   0.769   3.236   8.141 -0.3748  0.7628 -0.2414
  179SOPE   H8S20411   0.937   3.237   8.144  0.6902  0.4039  0.1187
  179SOPE   C2920412   0.870   3.445   8.118  0.1423  0.0426  0.1312
  179SOPE   H9120413   0.856   3.502   8.025 -2.3426  0.6610  0.8101
  179SOPE  C21020414   0.896   3.509   8.227 -0.2722 -0.1645  0.4395
  179SOPE  H10120415   0.908   3.619   8.223 -1.3421 -0.0711 -1.5944
  179SOPE  C21120416   0.903   3.439   8.358 -1.6259  0.5921 -0.2494
  179SOPE  H11R20417   1.007   3.399   8.355 -1.0708  1.9903 -1.8252
  179SOPE  H11S20418   0.835   3.353   8.367  0.2047 -0.9778 -0.7219
  179SOPE  C21220419   0.878   3.535   8.475 -0.0814 -0.0357 -0.1676
  179SOPE  H12R20420   0.963   3.606   8.484 -1.5754  1.8066 -0.1882
  179SOPE  H12S20421   0.862   3.476   8.568  0.5987 -0.2543 -0.1826
  179SOPE  C21320422   0.739   3.603   8.460  0.3980  0.1619  0.5838
  179SOPE  H13R20423   0.660   3.527   8.445 -0.0746  0.1889  2.7166
  179SOPE  H13S20424   0.741   3.669   8.371 -1.0716 -0.7611 -0.1755
  179SOPE  C21420425   0.705   3.703   8.576 -0.3971 -0.1064 -0.6068
  179SOPE  H14R20426   0.794   3.764   8.600 -1.1919  1.2186 -0.9155
  179SOPE  H14S20427   0.697   3.631   8.661  2.5001 -1.3555 -1.3033
  179SOPE  C21520428   0.582   3.795   8.545 -0.4675 -0.2200  0.0285
  179SOPE  H15R20429   0.494   3.742   8.503  0.9546 -1.0590 -2.0277
  179SOPE  H15S20430   0.611   3.879   8.480 -2.4717 -0.2034 -0.9261
  179SOPE  C21620431   0.524   3.851   8.676 -0.0324  0.2023 -0.1841
  179SOPE  H16R20432   0.507   3.759   8.736 -0.3198  1.4316  1.6945
  179SOPE  H16S20433   0.426   3.902   8.665 -1.2647 -1.4609  2.2135
  179SOPE  C21720434   0.632   3.936   8.740 -0.1751  0.1365 -0.5969
  179SOPE  H17R20435   0.668   4.002   8.658  0.0821  0.0455 -0.5601
  179SOPE  H17S20436   0.729   3.884   8.758 -0.0201  1.3536  2.7935
  179SOPE  C21820437   0.594   4.023   8.865  0.6520 -0.6540  0.1608
  179SOPE  H18R20438   0.576   3.954   8.950  2.6905 -0.0241  1.1612
  179SOPE  H18S20439   0.503   4.080   8.835  0.8691  0.8274  2.0675
  179SOPE  H18T20440   0.679   4.092   8.885  1.4059 -1.1269 -1.2987
  179SOPE   C3320441   0.431   3.876   7.419  0.0935 -0.3492 -0.1096
  179SOPE   H3X20442   0.439   3.802   7.501  0.2965  0.2709  0.4406
  179SOPE   H3Y20443   0.370   3.842   7.333 -1.3674  0.1286  0.7024
  179SOPE   C3420444   0.355   3.999   7.472 -0.4246 -0.2879 -0.1907
  179SOPE   H4X20445   0.247   3.971   7.477 -0.6554  0.2088 -1.7482
  179SOPE   H4Y20446   0.371   4.081   7.399  1.5507 -0.2225  0.2833
  179SOPE   C3520447   0.421   4.046   7.603 -0.1017  0.3092 -0.1883
  179SOPE   H5X20448   0.532   4.038   7.605 -0.1588 -2.1281 -1.6567
  179SOPE   H5Y20449   0.379   3.982   7.683 -1.8462  1.7123  0.0585
  179SOPE   C3620450   0.384   4.188   7.642 -0.5972  0.4297 -0.1715
  179SOPE   H6X20451   0.288   4.210   7.590  0.1975 -1.6463 -2.7575
  179SOPE   H6Y20452   0.468   4.256   7.614 -1.4849  0.7029 -2.4003
  179SOPE   C3720453   0.340   4.196   7.789  0.0761  0.3055  0.1172
  179SOPE   H7X20454   0.279   4.108   7.820  1.4292 -1.7564 -2.6288
  179SOPE   H7Y20455   0.273   4.281   7.814  1.0819  0.9335  0.7216
  179SOPE   C3820456   0.459   4.193   7.884 -0.4261 -0.1392 -0.6490
  179SOPE   H8X20457   0.496   4.292   7.918  1.8718 -1.3181  0.4812
  179SOPE   H8Y20458   0.548   4.147   7.835 -1.4822 -0.2047 -2.6372
  179SOPE   C3920459   0.445   4.107   8.010 -0.0749 -0.4682  0.1134
  179SOPE   H9X20460   0.535   4.102   8.075 -0.9366 -0.4381  1.3394
  179SOPE   H9Y20461   0.418   4.002   7.989  0.7511 -0.9330  1.3084
  179SOPE  C31020462   0.334   4.166   8.104  0.6240 -0.3437 -0.0424
  179SOPE  H10X20463   0.240   4.186   8.049  0.2843 -1.6313  0.0301
  179SOPE  H10Y20464   0.381   4.260   8.140 -0.2974 -0.4665  1.6100
  179SOPE  C31120465   0.312   4.089   8.235 -0.2702 -0.3338  0.0655
  179SOPE  H11X20466   0.415   4.074   8.276 -0.6918  1.2719  1.8341
  179SOPE  H11Y20467   0.275   3.988   8.206 -0.6247  0.0766 -0.9420
  179SOPE  C31220468   0.222   4.151   8.336  0.3474  0.5779 -1.0173
  179SOPE  H12X20469   0.167   4.227   8.277 -1.9697 -0.8940 -0.8897
  179SOPE  H12Y20470   0.272   4.205   8.419 -0.0041  0.3968 -0.6826
  179SOPE  C31320471   0.114   4.059   8.390  0.5078 -0.7318 -0.4668
  179SOPE  H13X20472   0.066   4.025   8.296 -0.5528  0.3346 -0.3309
  179SOPE  H13Y20473   0.047   4.122   8.452  0.7765 -2.5797  1.8511
  179SOPE  C31420474   0.165   3.931   8.458 -0.0839  0.4244  0.2625
  179SOPE  H14X20475   0.197   3.970   8.557 -1.4217  0.5454  0.6722
  179SOPE  H14Y20476   0.251   3.891   8.401  1.7099  1.1018  2.3175
  179SOPE  C31520477   0.050   3.825   8.482  0.3953  0.0337 -0.3936
  179SOPE  H15X20478  -0.047   3.876   8.501  1.2302  2.1416 -1.4511
  179SOPE  H15Y20479   0.091   3.785   8.577 -2.2216  0.6623  1.1089
  179SOPE  C31620480   0.039   3.715   8.378 -0.2816  0.2025 -0.4165
  179SOPE  H16X20481  -0.030   3.639   8.420 -2.0433  1.1705 -1.4662
  179SOPE  H16Y20482   0.133   3.656   8.368 -0.8554 -0.6113 -1.1579
  179SOPE  C31720483   0.018   3.764   8.234  0.0484 -0.6688 -0.1878
  179SOPE  H17X20484   0.105   3.824   8.199 -0.3764 -0.4042 -0.8113
  179SOPE  H17Y20485  -0.073   3.828   8.233  2.0272  2.3500 -0.8285
  179SOPE  C31820486  -0.009   3.656   8.128 -0.1669  0.1799 -0.5632
  179SOPE  H18X20487   0.087   3.600   8.121  0.1323  0.6223 -0.0594
  179SOPE  H18Y20488  -0.044   3.687   8.028 -0.2156 -0.7370 -0.8443
  179SOPE  H18Z20489  -0.088   3.586   8.162 -1.8979  1.8132 -1.0656
  180SOPE     N20490   4.900   3.964   6.283  0.2681  0.2435 -0.0727
  180SOPE   HN120491   4.806   3.990   6.247  0.2056  0.3643  0.1764
  180SOPE   HN220492   4.965   4.045   6.287 -0.7942  1.0590  2.5547
  180SOPE   HN320493   4.938   3.899   6.211  0.9968 -0.3160  0.8074
  180SOPE   C1220494   4.887   3.884   6.410 -0.2745 -0.1266  0.1661
  180SOPE  H12A20495   4.818   3.936   6.481 -1.7679 -1.6320 -0.1233
  180SOPE  H12B20496   4.981   3.874   6.467 -0.9004  0.6292  1.3905
  180SOPE   C1120497   4.841   3.741   6.367 -0.3071  0.0264 -0.0780
  180SOPE  H11A20498   4.760   3.734   6.292 -0.4180 -1.3871  0.1476
  180SOPE  H11B20499   4.810   3.685   6.458  0.6044  0.7861  0.7230
  180SOPE     P20500   4.917   3.528   6.247 -0.2970 -0.1580  0.1441
  180SOPE   O1320501   5.035   3.445   6.227 -0.2978 -0.0809 -0.1098
  180SOPE   O1420502   4.848   3.552   6.121  0.0259 -0.3907  0.1787
  180SOPE   O1220503   4.953   3.674   6.307 -0.0415 -0.4952 -0.4965
  180SOPE   O1120504   4.817   3.463   6.352  0.2492  0.4655 -0.0297
  180SOPE    C120505   4.842   3.339   6.416 -0.0018 -0.1046  0.3123
  180SOPE    HA20506   4.906   3.272   6.353  0.5001 -0.3621  1.0769
  180SOPE    HB20507   4.752   3.275   6.411  0.7133 -1.0519 -1.4176
  180SOPE    C220508   4.897   3.361   6.555 -0.6542  0.2443  0.2593
  180SOPE    HS20509   4.917   3.262   6.602 -2.8826  0.0835  0.9643
  180SOPE   O2120510   4.793   3.428   6.638 -0.5504  0.5324 -0.0418
  180SOPE   C2120511   4.691   3.351   6.669 -0.6383  0.2072 -0.0106
  180SOPE   O2220512   4.675   3.237   6.638 -0.3024  0.7793 -0.2732
  180SOPE   C2220513   4.602   3.428   6.757 -0.4728 -1.2083  0.0561
  180SOPE   H2R20514   4.517   3.367   6.792 -1.6752  1.8306  2.9432
  180SOPE   H2S20515   4.555   3.511   6.699  0.4833 -0.0991  0.8069
  180SOPE    C320516   5.031   3.443   6.558 -0.0355 -0.4019 -0.0982
  180SOPE    HX20517   5.014   3.545   6.519  0.6307 -0.6337 -1.0514
  180SOPE    HY20518   5.091   3.377   6.492 -0.7441 -1.8270  0.6255
  180SOPE   O3120519   5.089   3.438   6.692  0.6359 -0.0983 -0.1791
  180SOPE   C3120520   5.103   3.551   6.758  0.2854  0.3613 -0.2921
  180SOPE   O3220521   5.081   3.659   6.713  0.0026 -0.1041 -0.2024
  180SOPE   C3220522   5.146   3.511   6.895  0.0105  0.1503 -0.3086
  180SOPE   H2X20523   5.241   3.453   6.897  1.5414  2.4817  0.0465
  180SOPE   H2Y20524   5.068   3.443   6.934 -0.6186  0.6047 -0.7538
  180SOPE   C2320525   4.673   3.472   6.891  0.6083 -0.0952 -0.2618
  180SOPE   H3R20526   4.591   3.513   6.954 -0.1221 -1.7374 -0.0668
  180SOPE   H3S20527   4.742   3.555   6.866  0.2542  0.2788 -0.0075
  180SOPE   C2420528   4.734   3.347   6.954 -0.2113  0.4064  0.3641
  180SOPE   H4R20529   4.668   3.259   6.939 -0.5776  0.8902 -1.0253
  180SOPE   H4S20530   4.830   3.329   6.902 -0.3666 -0.5320  0.3820
  180SOPE   C2520531   4.762   3.376   7.104  0.8484  0.9424  0.4741
  180SOPE   H5R20532   4.806   3.477   7.117 -0.5053  1.5635  0.4051
  180SOPE   H5S20533   4.661   3.373   7.150  1.3597 -2.1392  1.6167
  180SOPE   C2620534   4.854   3.277   7.176 -0.2270  0.1133  0.5975
  180SOPE   H6R20535   4.810   3.177   7.193  0.1235 -0.2800 -0.6755
  180SOPE   H6S20536   4.949   3.271   7.119 -0.2403 -2.2600  0.7246
  180SOPE   C2720537   4.885   3.339   7.311  0.2517  0.2330 -0.1346
  180SOPE   H7R20538   4.909   3.448   7.303 -1.5743  0.8452  1.9110
  180SOPE   H7S20539   4.794   3.335   7.374 -0.9130 -2.9119 -1.8362
  180SOPE   C2820540   4.994   3.259   7.389 -0.1914  0.2849 -0.0913
  180SOPE   H8R20541   4.954   3.158   7.409 -0.8471  0.4992 -0.2975
  180SOPE   H8S20542   5.085   3.252   7.324  0.6008 -0.2591  1.0494
  180SOPE   C2920543   5.033   3.329   7.521  0.2070 -0.0921 -0.1519
  180SOPE   H9120544   5.097   3.415   7.497  0.4452 -0.1425  0.2971
  180SOPE  C21020545   5.000   3.293   7.644  0.3995 -0.0150  0.0587
  180SOPE  H10120546   5.046   3.347   7.729 -0.5756 -0.9534  1.2201
  180SOPE  C21120547   4.911   3.170   7.678 -0.4871 -0.1350 -0.1249
  180SOPE  H11R20548   4.880   3.110   7.590 -0.5928 -1.7426  0.9784
  180SOPE  H11S20549   4.824   3.214   7.730 -0.1049  1.3797 -0.7064
  180SOPE  C21220550   4.985   3.076   7.776  0.1822  0.4284  0.0116
  180SOPE  H12R20551   5.080   3.042   7.731  1.3588  1.4691  1.5964
  180SOPE  H12S20552   4.927   2.982   7.792  0.4898 -0.0223 -1.3884
  180SOPE  C21320553   5.008   3.127   7.918 -0.2308 -0.3256 -0.2704
  180SOPE  H13R20554   4.919   3.165   7.972  0.6780  1.9297 -0.2606
  180SOPE  H13S20555   5.082   3.210   7.911  1.5933 -1.5141  2.7267
  180SOPE  C21420556   5.091   3.031   8.011  0.0013 -0.9959  0.3463
  180SOPE  H14R20557   5.199   3.041   7.989 -0.6179  1.3058 -2.1321
  180SOPE  H14S20558   5.060   2.927   7.990  1.8531 -1.0380 -2.6230
  180SOPE  C21520559   5.072   3.068   8.157 -0.1748  0.6363 -0.7039
  180SOPE  H15R20560   4.966   3.083   8.189  0.7922  2.5729  1.8430
  180SOPE  H15S20561   5.103   3.174   8.163 -1.4762  0.9878  0.2542
  180SOPE  C21620562   5.153   2.978   8.253  0.3225 -0.6683  0.3833
  180SOPE  H16R20563   5.260   2.970   8.225 -0.2187 -1.5719 -1.6231
  180SOPE  H16S20564   5.116   2.873   8.250  2.2320 -1.5088  2.9705
  180SOPE  C21720565   5.144   3.036   8.397  0.8038 -0.0202  0.7602
  180SOPE  H17R20566   5.035   3.044   8.416  0.5844 -1.8346  0.4403
  180SOPE  H17S20567   5.166   3.145   8.393 -1.4287  0.4486 -2.5735
  180SOPE  C21820568   5.199   2.956   8.515  0.0916 -0.0005  0.4788
  180SOPE  H18R20569   5.153   3.001   8.606 -2.5580  1.5356 -1.4716
  180SOPE  H18S20570   5.310   2.964   8.510  0.5009 -3.7970  0.3022
  180SOPE  H18T20571   5.178   2.847   8.512  1.1596 -0.2328  0.7591
  180SOPE   C3320572   5.170   3.625   6.997  0.5503  0.3376  0.0357
  180SOPE   H3X20573   5.096   3.707   6.998  0.6136  0.3916  0.9560
  180SOPE   H3Y20574   5.264   3.683   6.987  1.1030 -0.2679  1.4339
  180SOPE   C3420575   5.181   3.554   7.141 -0.7559 -0.0599  0.0637
  180SOPE   H4X20576   5.120   3.462   7.142 -3.9135  1.8801  0.4418
  180SOPE   H4Y20577   5.141   3.621   7.221  1.9812  2.2111 -0.2798
  180SOPE   C3520578   5.327   3.526   7.188 -0.4407 -0.2082  0.4267
  180SOPE   H5X20579   5.391   3.617   7.184 -0.6868  0.0357  1.7019
  180SOPE   H5Y20580   5.386   3.460   7.121  0.6379  1.7379 -0.6489
  180SOPE   C3620581   5.341   3.476   7.334  0.0434 -0.2401 -0.4947
  180SOPE   H6X20582   5.306   3.371   7.330  0.0872 -0.3211  0.8261
  180SOPE   H6Y20583   5.280   3.541   7.402 -0.6202 -2.3642  1.0492
  180SOPE   C3720584   5.490   3.468   7.386 -0.1563 -0.5272  0.1229
  180SOPE   H7X20585   5.537   3.569   7.389 -2.7631  0.7769  1.0883
  180SOPE   H7Y20586   5.540   3.403   7.312 -0.0088  1.5625 -1.7267
  180SOPE   C3820587   5.504   3.409   7.526  0.7286  1.1932 -0.6037
  180SOPE   H8X20588   5.612   3.384   7.538  0.9155  2.3062  0.1402
  180SOPE   H8Y20589   5.432   3.324   7.525  0.3740  1.4022  1.6691
  180SOPE   C3920590   5.448   3.488   7.646 -0.1321  0.4185  0.3675
  180SOPE   H9X20591   5.338   3.506   7.638 -0.2736 -0.9136 -1.5923
  180SOPE   H9Y20592   5.489   3.591   7.643  0.9192 -0.0006 -0.9671
  180SOPE  C31020593   5.479   3.422   7.787  0.2500 -0.9440  1.2976
  180SOPE  H10X20594   5.431   3.322   7.789 -1.7387 -0.1561 -1.2899
  180SOPE  H10Y20595   5.444   3.481   7.874  1.7542  1.1215  0.5762
  180SOPE  C31120596   5.631   3.402   7.808  0.3645  0.0568 -0.5617
  180SOPE  H11X20597   5.681   3.501   7.807  1.1668 -0.3320 -0.1350
  180SOPE  H11Y20598   5.669   3.344   7.722  2.1308  1.0706 -0.4992
  180SOPE  C31220599   5.661   3.324   7.938 -0.8042  0.1426 -0.1354
  180SOPE  H12X20600   5.654   3.214   7.922 -3.9243 -0.1131  1.9397
  180SOPE  H12Y20601   5.590   3.358   8.017  0.4740  0.9422  0.6879
  180SOPE  C31320602   5.803   3.355   7.981 -0.3139  0.9586 -0.0950
  180SOPE  H13X20603   5.809   3.465   7.999 -0.7843  0.9416  0.1763
  180SOPE  H13Y20604   5.876   3.325   7.903 -1.2423 -1.8605  0.0249
  180SOPE  C31420605   5.852   3.275   8.097  0.4138 -0.0752 -0.1899
  180SOPE  H14X20606   5.791   3.306   8.184  1.3246  0.2110  0.3660
  180SOPE  H14Y20607   5.960   3.298   8.109  0.2582 -0.1598  1.5120
  180SOPE  C31520608   5.835   3.125   8.084 -0.6458 -0.1753 -0.0837
  180SOPE  H15X20609   5.864   3.083   7.985  1.1374 -0.1988  0.4188
  180SOPE  H15Y20610   5.730   3.097   8.110 -0.6172  1.1055  1.6518
  180SOPE  C31620611   5.919   3.054   8.192  0.6265  0.3575 -0.2367
  180SOPE  H16X20612   6.025   3.087   8.199  0.3409  1.1679  0.4011
  180SOPE  H16Y20613   5.920   2.949   8.155  0.0259  0.2586  0.0275
  180SOPE  C31720614   5.866   3.064   8.337  0.2547 -0.1906  0.2575
  180SOPE  H17X20615   5.768   3.016   8.358  0.4089 -0.7569 -0.2606
  180SOPE  H17Y20616   5.856   3.166   8.378 -2.0162 -0.7266  1.1936
  180SOPE  C31820617   5.972   3.001   8.426 -0.0562  0.2302 -0.2389
  180SOPE  H18X20618   5.964   2.999   8.536  0.2422  1.7295 -0.1691
  180SOPE  H18Y20619   6.056   3.073   8.419  0.0740 -0.0773 -3.0907
  180SOPE  H18Z20620   6.009   2.905   8.384  1.8362 -0.2896  2.3684
  181SOPE     N20621   6.392   1.575   6.140  0.3789  0.2255 -0.0953
  181SOPE   HN120622   6.294   1.558   6.171  0.3491  3.5943  2.2315
  181SOPE   HN220623   6.441   1.516   6.211 -1.0202 -0.1554  0.5810
  181SOPE   HN320624   6.412   1.673   6.170  0.7929  0.6732 -1.7338
  181SOPE   C1220625   6.412   1.547   5.998  0.3414  0.1890 -0.3410
  181SOPE  H12A20626   6.486   1.465   5.983 -0.7596 -0.8466 -0.2204
  181SOPE  H12B20627   6.452   1.638   5.949 -1.0192  0.4518 -1.0263
  181SOPE   C1120628   6.273   1.519   5.928 -0.3616 -0.1159  0.2393
  181SOPE  H11A20629   6.296   1.522   5.819 -1.8190 -2.2249 -0.1895
  181SOPE  H11B20630   6.196   1.596   5.945 -2.2887 -1.7976 -0.4705
  181SOPE     P20631   6.119   1.349   6.066  0.4771 -0.1272  0.2847
  181SOPE   O1320632   6.169   1.226   6.136 -0.3854 -0.2837  0.7951
  181SOPE   O1420633   5.997   1.342   5.989  0.5805  0.1526 -0.3387
  181SOPE   O1220634   6.235   1.381   5.964 -0.7522  0.1905 -0.5059
  181SOPE   O1120635   6.126   1.464   6.170 -0.0090  0.2704  0.3555
  181SOPE    C120636   6.031   1.472   6.277  0.2513  0.2957 -0.0019
  181SOPE    HA20637   6.080   1.502   6.372 -1.8959  0.0669  1.2466
  181SOPE    HB20638   5.976   1.377   6.297  0.6980  0.5147  2.6997
  181SOPE    C220639   5.933   1.587   6.252  0.1006 -0.0998 -0.8780
  181SOPE    HS20640   5.911   1.601   6.144 -1.0955 -0.5450 -0.7027
  181SOPE   O2120641   5.976   1.715   6.310  0.0038  0.0221  0.1384
  181SOPE   C2120642   6.086   1.772   6.255 -0.0643  0.8023 -0.1602
  181SOPE   O2220643   6.150   1.739   6.160  0.2084  0.1424  0.2788
  181SOPE   C2220644   6.109   1.890   6.337 -0.5566  0.6777  0.8190
  181SOPE   H2R20645   6.187   1.951   6.285  0.5916 -2.6918 -1.8106
  181SOPE   H2S20646   6.143   1.856   6.437 -0.3140 -0.7937  0.2619
  181SOPE    C320647   5.792   1.552   6.316  0.3656 -0.3912 -0.0260
  181SOPE    HX20648   5.749   1.462   6.268 -0.8679  0.5296 -0.6900
  181SOPE    HY20649   5.732   1.637   6.276  0.7615  0.5638  1.3410
  181SOPE   O3120650   5.792   1.544   6.463  0.4160 -0.3201  0.1239
  181SOPE   C3120651   5.680   1.580   6.523 -0.3715  0.4009  0.0318
  181SOPE   O3220652   5.568   1.606   6.478  0.0117 -0.2366  0.6108
  181SOPE   C3220653   5.709   1.595   6.667 -0.5132 -0.3449 -0.8150
  181SOPE   H2X20654   5.779   1.517   6.704 -0.3332  0.1139 -0.1816
  181SOPE   H2Y20655   5.617   1.577   6.727  1.1836  0.5483  2.2181
  181SOPE   C2320656   5.985   1.968   6.364 -0.5126 -0.5404  0.3476
  181SOPE   H3R20657   5.932   1.935   6.456 -0.2391  0.5144  0.8998
  181SOPE   H3S20658   5.911   1.951   6.283  0.6391  1.0512 -1.0872
  181SOPE   C2420659   6.017   2.122   6.374 -0.4490 -0.4532 -0.8262
  181SOPE   H4R20660   6.079   2.156   6.289  1.5108 -0.2091  0.6371
  181SOPE   H4S20661   5.921   2.177   6.359 -0.0552  0.4313 -0.1824
  181SOPE   C2520662   6.085   2.153   6.505 -0.2236  0.2110 -0.6708
  181SOPE   H5R20663   6.056   2.063   6.564  0.9489 -0.2870 -0.8326
  181SOPE   H5S20664   6.196   2.149   6.502 -0.2401 -0.1497 -0.8400
  181SOPE   C2620665   6.026   2.283   6.577  0.3725  0.4954 -0.1763
  181SOPE   H6R20666   6.085   2.281   6.671 -1.7997 -1.5611  1.2502
  181SOPE   H6S20667   6.049   2.376   6.521  1.5491  1.5007  1.8487
  181SOPE   C2720668   5.879   2.277   6.603  0.0844  0.3988 -0.4735
  181SOPE   H7R20669   5.821   2.290   6.509 -1.9553 -0.2082  0.6421
  181SOPE   H7S20670   5.848   2.186   6.657  1.4687 -1.9650 -3.3468
  181SOPE   C2820671   5.829   2.402   6.688  0.4407  0.7183 -0.1989
  181SOPE   H8R20672   5.898   2.388   6.774 -0.3230 -0.0073  0.3084
  181SOPE   H8S20673   5.848   2.500   6.638 -2.7725  0.2451 -2.6391
  181SOPE   C2920674   5.688   2.384   6.748 -0.2861  0.7916  0.4556
  181SOPE   H9120675   5.604   2.385   6.677  0.9951 -1.1200 -1.2431
  181SOPE  C21020676   5.666   2.365   6.879  0.1117  0.0764 -0.1068
  181SOPE  H10120677   5.560   2.364   6.907  0.2174  1.6877  0.4489
  181SOPE  C21120678   5.763   2.354   6.990 -0.7260 -0.2191 -0.0827
  181SOPE  H11R20679   5.810   2.455   6.999 -1.1849  0.3336 -2.8498
  181SOPE  H11S20680   5.837   2.277   6.961  0.9916  0.9222  1.0901
  181SOPE  C21220681   5.696   2.324   7.128  0.0628 -0.2841  0.4243
  181SOPE  H12R20682   5.616   2.250   7.105 -2.7175  2.9088 -1.0995
  181SOPE  H12S20683   5.633   2.413   7.154  0.4616 -0.5583  2.5182
  181SOPE  C21320684   5.790   2.297   7.251  0.3608 -0.0582  0.1148
  181SOPE  H13R20685   5.838   2.396   7.260 -1.5339  0.8765  0.3682
  181SOPE  H13S20686   5.875   2.232   7.219 -0.4036 -0.2688 -1.5803
  181SOPE  C21420687   5.711   2.250   7.370 -0.0514  0.2664  0.4969
  181SOPE  H14R20688   5.629   2.320   7.397  0.3168  0.4336  1.2157
  181SOPE  H14S20689   5.785   2.251   7.453  1.6161 -1.0649 -0.8814
  181SOPE  C21520690   5.659   2.115   7.354  0.1655 -0.0900  1.0965
  181SOPE  H15R20691   5.743   2.050   7.320 -0.6476 -0.2792 -0.6787
  181SOPE  H15S20692   5.598   2.099   7.263  1.2821 -2.0345  0.6151
  181SOPE  C21620693   5.594   2.057   7.473 -0.2443  0.4848  0.4610
  181SOPE  H16R20694   5.590   1.946   7.466 -0.1669  0.5776 -1.5112
  181SOPE  H16S20695   5.489   2.094   7.475 -0.5134 -0.2124 -0.2949
  181SOPE  C21720696   5.663   2.077   7.608 -0.2156  0.0383 -0.6282
  181SOPE  H17R20697   5.632   2.179   7.639 -0.1542 -0.1075 -0.0790
  181SOPE  H17S20698   5.774   2.077   7.600 -0.2353 -0.6859 -0.9606
  181SOPE  C21820699   5.620   1.976   7.715 -0.3768 -0.7713  0.1433
  181SOPE  H18R20700   5.644   1.871   7.686 -2.6788 -1.9171  2.0460
  181SOPE  H18S20701   5.511   1.976   7.736 -0.5913 -1.7707 -0.8889
  181SOPE  H18T20702   5.677   1.996   7.808  1.7407 -1.3519 -0.9506
  181SOPE   C3320703   5.761   1.738   6.703 -0.3809  0.1023  0.0067
  181SOPE   H3X20704   5.710   1.813   6.638 -2.1320  0.5784  1.8193
  181SOPE   H3Y20705   5.870   1.741   6.686 -0.4217  0.0277 -0.2668
  181SOPE   C3420706   5.728   1.778   6.847 -0.3580 -0.7177 -0.1446
  181SOPE   H4X20707   5.797   1.724   6.916 -0.0566 -2.7272 -1.9103
  181SOPE   H4Y20708   5.626   1.741   6.875 -0.5780 -0.1487 -0.1876
  181SOPE   C3520709   5.749   1.926   6.875  0.7020  0.0638 -0.1053
  181SOPE   H5X20710   5.690   1.961   6.962  0.8805  1.3275 -0.4749
  181SOPE   H5Y20711   5.711   1.980   6.786  0.7014  0.2255 -0.0063
  181SOPE   C3620712   5.903   1.949   6.901  0.3445  0.2714  0.3245
  181SOPE   H6X20713   5.928   2.047   6.854  0.4608  1.1031  2.0362
  181SOPE   H6Y20714   5.960   1.873   6.843 -0.2925 -0.8285  1.0997
  181SOPE   C3720715   5.941   1.945   7.046 -0.4309 -0.3305 -0.5147
  181SOPE   H7X20716   5.899   1.853   7.092 -1.4272  0.5064  0.2734
  181SOPE   H7Y20717   5.897   2.033   7.097 -0.1068 -1.0348  1.0265
  181SOPE   C3820718   6.093   1.944   7.071  0.3133  0.1111 -0.6887
  181SOPE   H8X20719   6.125   1.845   7.032 -1.0996 -0.3883 -0.6245
  181SOPE   H8Y20720   6.116   1.961   7.178 -0.6880 -1.0036 -0.2770
  181SOPE   C3920721   6.173   2.058   7.006  0.2762 -0.3244 -0.1636
  181SOPE   H9X20722   6.163   2.160   7.050  0.9117 -0.1925 -0.3220
  181SOPE   H9Y20723   6.136   2.063   6.901 -2.1755 -0.2278  0.6241
  181SOPE  C31020724   6.323   2.030   7.007 -0.3316  0.3771  0.2264
  181SOPE  H10X20725   6.349   1.922   7.002 -0.1268  0.3564  1.4435
  181SOPE  H10Y20726   6.362   2.065   7.105  0.0187 -1.0882  0.6354
  181SOPE  C31120727   6.388   2.116   6.897 -0.0940  0.2833 -0.0945
  181SOPE  H11X20728   6.495   2.090   6.908 -0.3915 -0.3305  1.6539
  181SOPE  H11Y20729   6.382   2.219   6.937  0.5509  0.5906 -0.7582
  181SOPE  C31220730   6.336   2.077   6.761 -0.5934  0.0243 -0.4847
  181SOPE  H12X20731   6.388   2.150   6.695  0.6730 -0.1435  0.2953
  181SOPE  H12Y20732   6.233   2.111   6.739 -0.1041  1.2968 -0.8934
  181SOPE  C31320733   6.362   1.938   6.710  0.2013  0.2520 -0.0216
  181SOPE  H13X20734   6.472   1.924   6.723  0.5882  1.4554 -1.6013
  181SOPE  H13Y20735   6.359   1.949   6.599  0.1798 -2.0112 -0.2980
  181SOPE  C31420736   6.272   1.826   6.754 -0.2015  0.0165  0.1479
  181SOPE  H14X20737   6.167   1.855   6.734 -0.2809 -0.9445 -0.9750
  181SOPE  H14Y20738   6.257   1.810   6.863 -0.7666  1.7519  0.3549
  181SOPE  C31520739   6.297   1.693   6.683  1.1833 -0.0554 -0.5634
  181SOPE  H15X20740   6.382   1.645   6.736 -0.9532 -0.6890  2.5236
  181SOPE  H15Y20741   6.323   1.711   6.576  0.5226 -2.1969 -1.1435
  181SOPE  C31620742   6.180   1.593   6.677  0.5338  0.6246  0.3432
  181SOPE  H16X20743   6.128   1.597   6.579  0.4822  0.5801  0.3689
  181SOPE  H16Y20744   6.119   1.625   6.764 -0.7060 -1.3905  0.2803
  181SOPE  C31720745   6.232   1.456   6.712 -0.2109 -0.5555  0.0930
  181SOPE  H17X20746   6.301   1.449   6.799 -0.5972  1.3028  0.6060
  181SOPE  H17Y20747   6.286   1.416   6.624 -1.3907  0.2710 -1.0446
  181SOPE  C31820748   6.124   1.360   6.735  0.2361 -0.3093  0.7896
  181SOPE  H18X20749   6.173   1.264   6.765  2.2986  0.7757  1.0658
  181SOPE  H18Y20750   6.067   1.351   6.640  2.5532 -0.6581 -0.6722
  181SOPE  H18Z20751   6.057   1.396   6.815  3.3728  2.7844  2.2741
  182SOPE     N20752   0.154   3.279   6.637 -0.2104  0.8587  0.3117
  182SOPE   HN120753   0.088   3.300   6.561  0.4524  0.2871 -0.4410
  182SOPE   HN220754   0.115   3.218   6.712  3.6750 -2.6411 -0.0922
  182SOPE   HN320755   0.180   3.371   6.679  0.2455  0.6306  0.5491
  182SOPE   C1220756   0.280   3.232   6.574 -0.6344 -0.1297 -0.3885
  182SOPE  H12A20757   0.350   3.196   6.652  1.8337  3.7749 -0.5586
  182SOPE  H12B20758   0.334   3.324   6.544  0.7346 -0.3484  1.2533
  182SOPE   C1120759   0.262   3.132   6.461  0.7760  0.1721  0.9842
  182SOPE  H11A20760   0.364   3.112   6.422  0.6592  0.9087  0.2523
  182SOPE  H11B20761   0.199   3.167   6.376 -1.1238 -2.0470  1.3772
  182SOPE     P20762   0.192   2.879   6.429 -0.1438 -0.5177 -0.6143
  182SOPE   O1320763   0.285   2.893   6.312 -0.0555  0.1972  0.4527
  182SOPE   O1420764   0.052   2.848   6.389 -0.2623  0.4473 -0.5198
  182SOPE   O1220765   0.196   3.013   6.510 -0.2768  0.1204 -0.3717
  182SOPE   O1120766   0.248   2.770   6.531  0.1421 -0.2364 -0.1914
  182SOPE    C120767   0.278   2.800   6.670 -0.0536 -0.0825 -0.2782
  182SOPE    HA20768   0.280   2.911   6.679  0.7994 -0.1476  0.4588
  182SOPE    HB20769   0.372   2.751   6.703  0.1975 -0.3809 -1.3836
  182SOPE    C220770   0.180   2.743   6.771 -0.3018 -0.2293 -0.0042
  182SOPE    HS20771   0.189   2.633   6.756 -1.0681 -0.3666  0.5197
  182SOPE   O2120772   0.054   2.790   6.739 -0.0645 -0.1261 -0.2020
  182SOPE   C2120773  -0.014   2.703   6.654 -0.6753 -0.7305 -0.1027
  182SOPE   O2220774   0.030   2.593   6.621 -0.2520 -0.4573  0.5366
  182SOPE   C2220775  -0.141   2.763   6.606  0.3780  0.4444 -0.5066
  182SOPE   H2R20776  -0.167   2.735   6.502 -1.0035 -2.6653  0.5564
  182SOPE   H2S20777  -0.131   2.872   6.629  0.5775 -0.0334  1.9073
  182SOPE    C320778   0.228   2.777   6.919  0.1673  0.8800  0.1836
  182SOPE    HX20779   0.245   2.886   6.922 -1.9407  1.2348  1.1924
  182SOPE    HY20780   0.325   2.724   6.929 -0.5598 -0.3932  0.7864
  182SOPE   O3120781   0.130   2.720   7.006 -0.3498  0.0289 -0.2896
  182SOPE   C3120782   0.023   2.796   7.020 -0.0072 -0.7036  0.1401
  182SOPE   O3220783  -0.001   2.903   6.967 -0.6380 -0.5978 -0.4440
  182SOPE   C3220784  -0.067   2.725   7.120 -0.0720 -0.2968  0.1124
  182SOPE   H2X20785  -0.157   2.692   7.065 -2.4498  2.7277  1.8867
  182SOPE   H2Y20786  -0.100   2.806   7.188 -0.2271  2.0484 -2.5773
  182SOPE   C2320787  -0.250   2.709   6.701 -0.8994  0.0875 -0.2210
  182SOPE   H3R20788  -0.338   2.771   6.673  1.2099  2.6050 -1.7879
  182SOPE   H3S20789  -0.237   2.740   6.807 -3.2111 -2.5232  0.9499
  182SOPE   C2420790  -0.284   2.557   6.708 -0.3415 -1.0192 -0.2863
  182SOPE   H4R20791  -0.291   2.515   6.605 -4.4141  0.6706 -0.8805
  182SOPE   H4S20792  -0.200   2.508   6.761 -1.6646 -2.4561  0.5899
  182SOPE   C2520793  -0.415   2.524   6.778  0.2570  0.5071  0.4895
  182SOPE   H5R20794  -0.505   2.571   6.734  0.6645  3.3003  2.3665
  182SOPE   H5S20795  -0.422   2.414   6.771  1.1619  0.5274 -1.5154
  182SOPE   C2620796  -0.416   2.579   6.924  0.0751  0.1708 -0.3865
  182SOPE   H6R20797  -0.322   2.561   6.981 -0.9683 -3.0159  0.5833
  182SOPE   H6S20798  -0.437   2.686   6.906  0.1064  0.1598 -0.4884
  182SOPE   C2720799  -0.529   2.510   7.008  0.0580 -0.3295 -0.1074
  182SOPE   H7R20800  -0.625   2.519   6.952 -0.4883 -2.8106  0.3219
  182SOPE   H7S20801  -0.510   2.401   7.017  1.6104 -0.0894 -0.3382
  182SOPE   C2820802  -0.538   2.580   7.143  1.0785 -0.2676 -0.3202
  182SOPE   H8R20803  -0.438   2.571   7.191  0.4210  0.1994  1.2097
  182SOPE   H8S20804  -0.539   2.688   7.118  2.1038 -0.4560 -1.2614
  182SOPE   C2920805  -0.663   2.537   7.221  0.4412 -0.0771 -0.4152
  182SOPE   H9120806  -0.755   2.545   7.161 -0.6531  4.8961  1.4669
  182SOPE  C21020807  -0.663   2.495   7.349 -0.6700 -0.0814  0.1745
  182SOPE  H10120808  -0.760   2.468   7.393 -0.1772 -1.4550  0.5024
  182SOPE  C21120809  -0.550   2.492   7.446 -0.2716  0.3002  0.1469
  182SOPE  H11R20810  -0.579   2.524   7.548  1.2098 -0.2311  0.7599
  182SOPE  H11S20811  -0.461   2.540   7.400  1.8286 -1.8141  1.7924
  182SOPE  C21220812  -0.497   2.343   7.470  0.6273 -0.2203 -0.1809
  182SOPE  H12R20813  -0.405   2.352   7.531 -0.1730  3.0044  0.7720
  182SOPE  H12S20814  -0.467   2.294   7.375 -0.1336 -0.5355 -0.2677
  182SOPE  C21320815  -0.592   2.241   7.532  0.7865 -0.2291 -0.1318
  182SOPE  H13R20816  -0.543   2.142   7.545  3.1860  0.8455 -0.5580
  182SOPE  H13S20817  -0.681   2.222   7.469 -1.5508  2.1674  2.1545
  182SOPE  C21420818  -0.656   2.280   7.664 -0.0410 -0.0446 -0.4233
  182SOPE  H14R20819  -0.733   2.358   7.644 -0.5658  0.1198  1.9030
  182SOPE  H14S20820  -0.580   2.318   7.735 -0.7726  0.6723  0.0016
  182SOPE  C21520821  -0.711   2.165   7.745  0.1817  0.2145 -0.5274
  182SOPE  H15R20822  -0.634   2.090   7.774  1.5650  1.4511 -0.8675
  182SOPE  H15S20823  -0.780   2.120   7.671 -0.6285  0.7971 -0.1369
  182SOPE  C21620824  -0.788   2.210   7.872 -0.6704 -0.3046 -0.1737
  182SOPE  H16R20825  -0.857   2.289   7.834 -0.0576 -0.8014 -2.5082
  182SOPE  H16S20826  -0.719   2.256   7.946 -1.9670 -2.0848  2.2429
  182SOPE  C21720827  -0.873   2.097   7.932  0.3424 -0.3636 -0.4863
  182SOPE  H17R20828  -0.913   2.032   7.852 -1.2687  0.4644 -0.3796
  182SOPE  H17S20829  -0.952   2.158   7.980  0.4824  0.1624 -0.9273
  182SOPE  C21820830  -0.793   2.020   8.041 -0.4947  0.5736 -0.6348
  182SOPE  H18R20831  -0.848   1.932   8.080  0.3389  0.6024  0.6793
  182SOPE  H18S20832  -0.783   2.090   8.127  0.4380  2.3778 -2.1321
  182SOPE  H18T20833  -0.689   1.994   8.012 -0.1594 -0.2970  1.1923
  182SOPE   C3320834   0.000   2.612   7.207  0.7114 -0.2242 -0.8571
  182SOPE   H3X20835   0.087   2.652   7.265  0.3579  0.3440 -0.7122
  182SOPE   H3Y20836   0.049   2.552   7.127  1.3891  1.9916 -2.2011
  182SOPE   C3420837  -0.092   2.524   7.292 -0.4209 -0.5529 -0.4904
  182SOPE   H4X20838  -0.034   2.434   7.319 -0.0609  0.1210  1.1189
  182SOPE   H4Y20839  -0.178   2.487   7.232 -1.1295  2.1568 -1.2937
  182SOPE   C3520840  -0.158   2.591   7.417  0.0889  0.1405 -0.3576
  182SOPE   H5X20841  -0.208   2.504   7.466  1.2151 -1.5332 -2.0253
  182SOPE   H5Y20842  -0.229   2.669   7.383 -1.9174 -1.1775  0.6030
  182SOPE   C3620843  -0.061   2.659   7.509  0.5636  0.3436 -0.9039
  182SOPE   H6X20844   0.002   2.736   7.459  2.4343 -1.2497 -1.1038
  182SOPE   H6Y20845   0.007   2.584   7.554  0.1841  0.9008  0.6954
  182SOPE   C3720846  -0.128   2.717   7.639 -0.5258  1.2116  0.3271
  182SOPE   H7X20847  -0.199   2.799   7.617 -2.1450 -0.2416 -0.1152
  182SOPE   H7Y20848  -0.044   2.739   7.707  0.4828 -1.1137 -0.0494
  182SOPE   C3820849  -0.203   2.602   7.706 -0.4437 -0.0165  0.3728
  182SOPE   H8X20850  -0.144   2.509   7.693  2.4782  1.7804 -0.0266
  182SOPE   H8Y20851  -0.300   2.591   7.652 -0.6324  1.4843  0.3776
  182SOPE   C3920852  -0.235   2.643   7.849 -0.2196 -0.1567  0.0447
  182SOPE   H9X20853  -0.297   2.735   7.851 -0.7920 -0.2130 -4.1717
  182SOPE   H9Y20854  -0.142   2.674   7.900 -0.6663 -0.1311  0.8474
  182SOPE  C31020855  -0.308   2.536   7.934  0.1543  0.2809  0.7650
  182SOPE  H10X20856  -0.414   2.560   7.909 -0.3312 -0.2836  2.1466
  182SOPE  H10Y20857  -0.294   2.546   8.044 -0.6964 -0.7809  0.9976
  182SOPE  C31120858  -0.276   2.388   7.893 -0.1715  0.0349  0.3271
  182SOPE  H11X20859  -0.168   2.372   7.877 -0.0514  1.8190 -0.9320
  182SOPE  H11Y20860  -0.327   2.373   7.796  1.0190 -0.8947 -0.1747
  182SOPE  C31220861  -0.327   2.293   7.997  0.5134  0.2523 -0.5050
  182SOPE  H12X20862  -0.433   2.320   8.013  1.5083  3.6469  1.4456
  182SOPE  H12Y20863  -0.285   2.310   8.099 -1.5875 -0.1074  0.4688
  182SOPE  C31320864  -0.318   2.142   7.949  0.0668  0.2030  0.8622
  182SOPE  H13X20865  -0.217   2.096   7.938 -0.4791 -0.5878 -1.5703
  182SOPE  H13Y20866  -0.368   2.136   7.850  0.6968 -0.5002  0.5725
  182SOPE  C31420867  -0.395   2.053   8.053  1.1789 -1.1952 -0.3305
  182SOPE  H14X20868  -0.417   1.950   8.016 -1.6379 -2.1025  3.3015
  182SOPE  H14Y20869  -0.494   2.101   8.066  1.8372  0.1119  0.0125
  182SOPE  C31520870  -0.337   2.034   8.186  0.1567 -0.6486 -0.3185
  182SOPE  H15X20871  -0.342   2.128   8.245  1.0377 -1.2820  0.8305
  182SOPE  H15Y20872  -0.229   2.007   8.185  0.4162 -0.7100  4.3959
  182SOPE  C31620873  -0.413   1.934   8.272  0.2362 -0.8489 -0.0061
  182SOPE  H16X20874  -0.381   1.831   8.246  2.1442 -0.6282  1.2557
  182SOPE  H16Y20875  -0.517   1.955   8.240  1.0741  3.0391 -0.6270
  182SOPE  C31720876  -0.393   1.948   8.425 -0.0063 -1.0285 -0.4190
  182SOPE  H17X20877  -0.403   2.053   8.459 -2.0705 -1.2397 -0.2800
  182SOPE  H17Y20878  -0.290   1.907   8.441 -0.5417 -2.0017  0.7355
  182SOPE  C31820879  -0.488   1.861   8.504  0.4212 -0.0703  0.0219
  182SOPE  H18X20880  -0.512   1.764   8.455 -1.2119  1.0453 -1.5327
  182SOPE  H18Y20881  -0.588   1.910   8.504  1.1123  1.4075 -0.2299
  182SOPE  H18Z20882  -0.446   1.846   8.606 -0.4859  0.8812  0.5547
  183SOPE     N20883   2.914   1.919   6.524  0.9285  0.0138 -0.0228
  183SOPE   HN120884   2.831   1.923   6.461  2.5223 -0.3666 -2.2718
  183SOPE   HN220885   2.908   2.006   6.581  2.9236 -1.1965  2.1952
  183SOPE   HN320886   2.993   1.925   6.457  0.3345  0.7671 -0.6798
  183SOPE   C1220887   2.909   1.793   6.610  0.1751  0.1691 -0.5795
  183SOPE  H12A20888   2.881   1.821   6.714  2.4434  2.1522 -0.3946
  183SOPE  H12B20889   3.008   1.741   6.607 -0.2566 -0.6312 -1.6771
  183SOPE   C1120890   2.810   1.705   6.542  0.4927  0.8812  0.2399
  183SOPE  H11A20891   2.711   1.755   6.533 -0.1090  0.1317  2.0756
  183SOPE  H11B20892   2.793   1.614   6.604  0.7576  1.0358  0.5379
  183SOPE     P20893   2.827   1.531   6.334 -0.0787 -0.6759 -0.1456
  183SOPE   O1320894   2.940   1.502   6.244  0.3637  0.6425  0.1073
  183SOPE   O1420895   2.694   1.537   6.277  0.0626  0.1829  0.1600
  183SOPE   O1220896   2.861   1.668   6.407  0.1446  0.7536 -0.3344
  183SOPE   O1120897   2.831   1.425   6.454 -0.5633  0.9200 -0.2125
  183SOPE    C120898   2.960   1.391   6.514 -0.2691 -0.1468 -0.1189
  183SOPE    HA20899   3.022   1.478   6.545  1.3584  0.2077 -3.7756
  183SOPE    HB20900   3.031   1.349   6.439 -1.5499 -1.0597 -0.8731
  183SOPE    C220901   2.931   1.300   6.631  0.5527 -0.1366 -0.6871
  183SOPE    HS20902   2.852   1.228   6.601 -0.5765  0.7564  0.0646
  183SOPE   O2120903   2.891   1.373   6.752 -0.2211  1.0826  0.0476
  183SOPE   C2120904   2.761   1.383   6.777 -0.0027  0.3719  0.7773
  183SOPE   O2220905   2.671   1.347   6.697 -0.2176 -1.0736 -0.0737
  183SOPE   C2220906   2.738   1.440   6.915 -0.3780 -0.1367 -0.6427
  183SOPE   H2R20907   2.628   1.438   6.929 -0.5372 -1.4850 -1.8267
  183SOPE   H2S20908   2.789   1.539   6.914 -1.8213  0.6246 -0.9328
  183SOPE    C320909   3.063   1.217   6.666  0.0509  0.1444 -0.7000
  183SOPE    HX20910   3.149   1.287   6.676  2.8022 -3.0541 -0.4953
  183SOPE    HY20911   3.090   1.150   6.582  0.7436 -1.0706  0.4463
  183SOPE   O3120912   3.057   1.136   6.790  0.6401  0.1511  0.3266
  183SOPE   C3120913   2.974   1.040   6.774 -0.4462 -0.2704  0.4081
  183SOPE   O3220914   2.920   1.003   6.671 -0.0437  0.0944 -0.2262
  183SOPE   C3220915   2.975   0.943   6.897  0.3382 -0.2666  0.1227
  183SOPE   H2X20916   3.053   0.983   6.965  0.1306  3.8650 -1.7102
  183SOPE   H2Y20917   2.995   0.840   6.862  0.2157  0.0172 -0.8322
  183SOPE   C2320918   2.801   1.348   7.025 -0.0234 -0.0810  0.5230
  183SOPE   H3R20919   2.889   1.293   6.986 -0.1590  1.1805 -1.7291
  183SOPE   H3S20920   2.729   1.274   7.067  1.8190 -1.7902  0.8127
  183SOPE   C2420921   2.854   1.427   7.149  0.4705  0.8046  0.4581
  183SOPE   H4R20922   2.948   1.486   7.133  0.8150  0.1354 -0.0156
  183SOPE   H4S20923   2.776   1.495   7.190 -0.7015 -0.1359 -0.1603
  183SOPE   C2520924   2.887   1.323   7.258 -0.1723 -0.0266  0.3748
  183SOPE   H5R20925   2.805   1.248   7.264  0.3638 -0.8685 -1.7092
  183SOPE   H5S20926   2.975   1.259   7.237 -0.6459 -1.0294  1.3582
  183SOPE   C2620927   2.895   1.388   7.397 -0.1504 -0.3601 -0.3710
  183SOPE   H6R20928   2.993   1.441   7.395 -0.1946 -0.0412  2.6576
  183SOPE   H6S20929   2.817   1.459   7.429  0.3991 -0.6024  1.6427
  183SOPE   C2720930   2.904   1.286   7.511  0.1860 -0.3260  0.7478
  183SOPE   H7R20931   2.807   1.233   7.514 -0.0711 -0.4820 -3.6993
  183SOPE   H7S20932   2.981   1.211   7.482 -0.1934  0.0465 -1.4228
  183SOPE   C2820933   2.959   1.344   7.638  0.2967 -0.0391 -0.5061
  183SOPE   H8R20934   2.987   1.261   7.706  0.7935  0.6406  0.1206
  183SOPE   H8S20935   3.053   1.389   7.600  0.4682  0.0682  0.0381
  183SOPE   C2920936   2.869   1.440   7.709  0.6598  0.2404  0.2450
  183SOPE   H9120937   2.870   1.544   7.671 -2.6409  0.2620 -0.0880
  183SOPE  C21020938   2.782   1.409   7.807  0.8104  0.2120  0.1362
  183SOPE  H10120939   2.716   1.488   7.845  0.6888  0.2881 -0.2318
  183SOPE  C21120940   2.755   1.271   7.864 -0.0012 -0.1937  0.0482
  183SOPE  H11R20941   2.823   1.197   7.814 -1.3911 -1.7778  0.4008
  183SOPE  H11S20942   2.647   1.248   7.852 -0.0782 -1.4310  2.6219
  183SOPE  C21220943   2.789   1.258   8.010 -0.1763  0.6882 -0.2387
  183SOPE  H12R20944   2.897   1.277   8.025 -0.3623  2.1074 -0.5047
  183SOPE  H12S20945   2.776   1.153   8.042  0.0856  0.4036 -1.0274
  183SOPE  C21320946   2.691   1.339   8.102  0.2923  0.4431  0.5130
  183SOPE  H13R20947   2.588   1.296   8.097  0.0335  0.9679  1.1324
  183SOPE  H13S20948   2.704   1.445   8.072  0.8978  0.2397  0.0447
  183SOPE  C21420949   2.729   1.334   8.252  0.1559  0.2433  0.1665
  183SOPE  H14R20950   2.830   1.378   8.259  0.0914  0.7061 -1.3562
  183SOPE  H14S20951   2.723   1.228   8.283 -0.4318  1.1552  3.5314
  183SOPE  C21520952   2.630   1.420   8.331 -0.5432  0.6262 -0.0331
  183SOPE  H15R20953   2.526   1.385   8.313  0.2453 -1.1067 -1.6234
  183SOPE  H15S20954   2.643   1.522   8.288  2.0782 -0.4405 -2.0748
  183SOPE  C21620955   2.657   1.426   8.482 -0.4542 -0.0567  0.3203
  183SOPE  H16R20956   2.593   1.503   8.531  0.6851  0.1702  1.5018
  183SOPE  H16S20957   2.759   1.469   8.483  0.1818 -1.5337  0.9390
  183SOPE  C21720958   2.647   1.290   8.557 -0.0268 -0.3054 -0.4479
  183SOPE  H17R20959   2.683   1.212   8.487  2.9422  1.6248 -1.2325
  183SOPE  H17S20960   2.542   1.265   8.584  0.4079 -1.1236  0.5277
  183SOPE  C21820961   2.731   1.286   8.686  0.1605 -0.2553  0.1699
  183SOPE  H18R20962   2.701   1.197   8.745 -0.2748 -1.0575 -1.2155
  183SOPE  H18S20963   2.710   1.380   8.742 -1.0123 -1.0933  1.2053
  183SOPE  H18T20964   2.839   1.283   8.661  0.2700 -0.3890  0.6458
  183SOPE   C3320965   2.849   0.949   6.985 -0.2005 -0.3084 -0.1396
  183SOPE   H3X20966   2.773   0.879   6.946 -2.0928  1.5518  0.0350
  183SOPE   H3Y20967   2.805   1.050   6.972 -1.9555 -1.2187 -1.7453
  183SOPE   C3420968   2.886   0.934   7.134  0.7714 -0.0498 -0.6163
  183SOPE   H4X20969   2.964   1.012   7.145 -0.7795  1.4688  0.2083
  183SOPE   H4Y20970   2.935   0.835   7.149  1.8721 -0.0198 -3.4615
  183SOPE   C3520971   2.765   0.957   7.228  0.1955  0.2031  0.4536
  183SOPE   H5X20972   2.681   0.886   7.214 -0.4004  1.0273 -0.2978
  183SOPE   H5Y20973   2.728   1.060   7.210 -0.4787  0.3100  2.3273
  183SOPE   C3620974   2.808   0.928   7.368 -0.2091 -0.0443 -0.0332
  183SOPE   H6X20975   2.878   1.005   7.407  1.0267 -1.1433 -0.0066
  183SOPE   H6Y20976   2.858   0.829   7.363  1.0165  0.4592  1.6264
  183SOPE   C3720977   2.682   0.919   7.461  0.3897  0.1871 -0.1391
  183SOPE   H7X20978   2.629   0.824   7.437 -0.6119  0.4569  0.9150
  183SOPE   H7Y20979   2.620   1.007   7.434 -0.1241 -0.1174  0.0134
  183SOPE   C3820980   2.710   0.932   7.612  0.7514  0.4540 -0.0689
  183SOPE   H8X20981   2.608   0.946   7.654  0.8952 -0.2637  0.5215
  183SOPE   H8Y20982   2.758   1.030   7.633 -1.3315  1.8350 -1.3195
  183SOPE   C3920983   2.791   0.812   7.660 -0.2941 -0.0346  0.2039
  183SOPE   H9X20984   2.879   0.792   7.596 -1.3979 -2.1305 -0.7679
  183SOPE   H9Y20985   2.732   0.719   7.642  0.2929 -0.7346  1.8074
  183SOPE  C31020986   2.842   0.837   7.803  0.8396  0.0880  0.3373
  183SOPE  H10X20987   2.913   0.922   7.798 -0.2267  0.9440 -1.2952
  183SOPE  H10Y20988   2.907   0.754   7.839  1.5552  0.9069  0.9629
  183SOPE  C31120989   2.737   0.885   7.899 -0.4843 -0.5692  0.0394
  183SOPE  H11X20990   2.643   0.828   7.882 -0.3306 -0.6869 -0.4256
  183SOPE  H11Y20991   2.715   0.994   7.895  2.1827  0.0505  0.4168
  183SOPE  C31220992   2.776   0.848   8.046  0.0206 -0.3203  0.1798
  183SOPE  H12X20993   2.848   0.923   8.083 -1.4668  1.5232 -0.5296
  183SOPE  H12Y20994   2.823   0.748   8.056 -0.9765 -0.8002  0.2531
  183SOPE  C31320995   2.659   0.856   8.148 -0.0525  0.4446  0.2795
  183SOPE  H13X20996   2.609   0.757   8.152 -0.7250  0.7802  0.3307
  183SOPE  H13Y20997   2.585   0.930   8.112  0.4842 -0.5694 -3.2454
  183SOPE  C31420998   2.687   0.879   8.299  0.3135  0.1727  0.7832
  183SOPE  H14X20999   2.734   0.980   8.305  1.5775 -0.1496 -2.2791
  183SOPE  H14Y21000   2.771   0.814   8.334  0.7525  1.3313  1.9959
  183SOPE  C31521001   2.560   0.881   8.382  0.3951  0.4130 -0.1161
  183SOPE  H15X21002   2.495   0.797   8.349 -0.7486  0.7016  1.2669
  183SOPE  H15Y21003   2.496   0.970   8.360  2.3500  1.5934 -1.2398
  183SOPE  C31621004   2.582   0.871   8.535 -0.4920  0.1225 -0.5886
  183SOPE  H16X21005   2.661   0.941   8.570 -0.0693 -1.0395  0.8706
  183SOPE  H16Y21006   2.594   0.765   8.567 -1.7576 -0.2796 -1.3960
  183SOPE  C31721007   2.451   0.919   8.603 -0.6542 -0.5335  1.0241
  183SOPE  H17X21008   2.375   0.840   8.583  1.0106 -1.5038 -2.2223
  183SOPE  H17Y21009   2.419   1.015   8.558  0.9946 -0.7324 -0.6969
  183SOPE  C31821010   2.461   0.926   8.751  0.1132  1.1809 -0.2453
  183SOPE  H18X21011   2.475   0.821   8.785 -0.5468  0.1319 -2.9483
  183SOPE  H18Y21012   2.363   0.958   8.792 -0.1189 -1.4752  1.5363
  183SOPE  H18Z21013   2.544   0.991   8.785 -0.8555  2.8628 -0.9845
  184SOPE     N21014   1.910   0.832   6.337 -0.2794 -0.7657 -0.2940
  184SOPE   HN121015   1.960   0.760   6.394 -0.3101 -0.0046  0.7296
  184SOPE   HN221016   1.827   0.796   6.286  1.3454 -1.6624 -2.4515
  184SOPE   HN321017   1.983   0.858   6.268 -1.2333 -1.6715 -1.6872
  184SOPE   C1221018   1.886   0.951   6.425  0.5965 -0.5034 -0.9340
  184SOPE  H12A21019   1.812   0.914   6.500  0.4159  1.0680 -0.2862
  184SOPE  H12B21020   1.833   1.031   6.368 -1.9457 -0.1706  1.6722
  184SOPE   C1121021   2.015   0.993   6.505 -0.2327 -0.1315 -0.2014
  184SOPE  H11A21022   2.037   0.911   6.577 -0.7595  0.0528  0.1717
  184SOPE  H11B21023   1.996   1.082   6.569  0.0251  0.7844 -1.3493
  184SOPE     P21024   2.157   1.131   6.350 -0.3253  0.2630 -0.3291
  184SOPE   O1321025   2.035   1.186   6.297 -0.2519 -0.5665 -0.3829
  184SOPE   O1421026   2.273   1.129   6.258  0.3797  0.8728 -0.1538
  184SOPE   O1221027   2.134   0.996   6.428 -0.1231 -0.7054  0.5491
  184SOPE   O1121028   2.197   1.209   6.481 -0.4460  0.3381  0.2018
  184SOPE    C121029   2.245   1.346   6.484 -0.6657 -0.4808 -0.4730
  184SOPE    HA21030   2.178   1.411   6.424 -1.8339 -0.8029  0.4424
  184SOPE    HB21031   2.345   1.354   6.436 -0.3411 -0.7489  0.1463
  184SOPE    C221032   2.230   1.404   6.633 -0.1369  0.1980 -0.4763
  184SOPE    HS21033   2.268   1.508   6.631  2.0131 -0.5235  0.0015
  184SOPE   O2121034   2.300   1.320   6.723 -0.0675  0.7074  0.1129
  184SOPE   C2121035   2.329   1.380   6.835 -0.0178  0.5278 -0.0602
  184SOPE   O2221036   2.314   1.499   6.861  0.4808  0.0650 -0.3857
  184SOPE   C2221037   2.395   1.277   6.920 -0.6804  0.4429 -0.1043
  184SOPE   H2R21038   2.490   1.242   6.875 -0.6418 -1.2134  1.1483
  184SOPE   H2S21039   2.321   1.194   6.929  0.3006 -0.2644  2.3971
  184SOPE    C321040   2.078   1.396   6.668 -0.1366 -0.2480  0.1187
  184SOPE    HX21041   2.047   1.290   6.670  2.0359 -0.9322  1.2594
  184SOPE    HY21042   2.025   1.442   6.582  1.1487 -0.4459 -0.8173
  184SOPE   O3121043   2.034   1.457   6.795 -0.5482  0.1829  0.4167
  184SOPE   C3121044   2.023   1.592   6.814 -0.2120 -0.0097 -0.0167
  184SOPE   O3221045   2.029   1.672   6.721  0.1963  0.0148 -0.3518
  184SOPE   C3221046   2.007   1.624   6.963  0.0544  0.3991  0.8485
  184SOPE   H2X21047   2.100   1.606   7.020  1.3789 -0.9220 -1.5730
  184SOPE   H2Y21048   1.919   1.564   6.992  0.8115 -0.2372  1.8768
  184SOPE   C2321049   2.427   1.331   7.061  0.1622 -0.4561 -0.1981
  184SOPE   H3R21050   2.357   1.414   7.084  2.7625  1.3830  1.6680
  184SOPE   H3S21051   2.527   1.379   7.065  0.1661 -0.4753 -0.0601
  184SOPE   C2421052   2.401   1.222   7.167  0.5219  0.1180  0.4571
  184SOPE   H4R21053   2.297   1.188   7.151  0.1250  1.2733  0.5236
  184SOPE   H4S21054   2.476   1.140   7.157  0.3348 -0.1813  1.4050
  184SOPE   C2521055   2.415   1.278   7.307  0.0429 -0.0698 -0.1535
  184SOPE   H5R21056   2.522   1.303   7.315 -0.3614  3.3663 -2.9019
  184SOPE   H5S21057   2.361   1.375   7.315  0.8092  0.3620 -0.2035
  184SOPE   C2621058   2.356   1.181   7.417  0.3192 -0.2538 -0.2655
  184SOPE   H6R21059   2.256   1.160   7.373 -0.3195  1.1799  0.4253
  184SOPE   H6S21060   2.404   1.081   7.413  2.9918  0.9258  0.1258
  184SOPE   C2721061   2.349   1.241   7.554  0.0128  0.3722  0.4317
  184SOPE   H7R21062   2.447   1.229   7.606  0.1228  1.1482  0.4182
  184SOPE   H7S21063   2.323   1.348   7.543 -1.7977  0.0031  0.8106
  184SOPE   C2821064   2.243   1.165   7.632  0.2946 -0.0211  0.2301
  184SOPE   H8R21065   2.161   1.171   7.557  0.5504  0.2529 -0.0287
  184SOPE   H8S21066   2.274   1.060   7.645  1.8334  0.4080  0.1636
  184SOPE   C2921067   2.201   1.234   7.762 -0.0315  0.5106 -0.1885
  184SOPE   H9121068   2.136   1.323   7.757  0.4987  0.8580 -1.5305
  184SOPE  C21021069   2.229   1.189   7.886 -0.1617 -0.2561 -0.8548
  184SOPE  H10121070   2.190   1.253   7.966  1.7932  2.8461 -2.2109
  184SOPE  C21121071   2.319   1.082   7.929 -0.4846  0.2358  0.0606
  184SOPE  H11R21072   2.410   1.123   7.977 -0.7347 -0.6877  1.3810
  184SOPE  H11S21073   2.358   1.031   7.838  0.5547  1.4602 -0.2000
  184SOPE  C21221074   2.259   0.973   8.023  0.2812 -0.0002 -0.2931
  184SOPE  H12R21075   2.333   0.890   8.018 -0.5975 -0.9235  1.3118
  184SOPE  H12S21076   2.161   0.946   7.980 -1.9024  4.0497  1.6082
  184SOPE  C21321077   2.253   1.022   8.165  0.2559  0.2499 -0.5886
  184SOPE  H13R21078   2.196   1.117   8.167 -0.6046 -0.2443 -0.9451
  184SOPE  H13S21079   2.353   1.047   8.208  0.0311 -0.7747  0.5786
  184SOPE  C21421080   2.204   0.924   8.268 -0.6902  0.9617  0.3241
  184SOPE  H14R21081   2.207   0.980   8.364  0.3917  2.5805 -0.6113
  184SOPE  H14S21082   2.269   0.834   8.275 -2.8088 -0.6109  0.5843
  184SOPE  C21521083   2.061   0.878   8.232  0.1089  0.4291  0.1900
  184SOPE  H15R21084   2.082   0.824   8.137  2.5086 -2.1875  2.0341
  184SOPE  H15S21085   1.987   0.959   8.217  1.3183  1.7009  0.7708
  184SOPE  C21621086   2.005   0.787   8.339  0.1461 -0.4918  0.1468
  184SOPE  H16R21087   1.994   0.845   8.433  0.7494 -2.3607  1.4401
  184SOPE  H16S21088   2.078   0.711   8.375 -0.7456 -0.6990  1.6132
  184SOPE  C21721089   1.879   0.723   8.279  0.0102  0.3814  0.9697
  184SOPE  H17R21090   1.910   0.646   8.206  1.1162  0.8288  0.9450
  184SOPE  H17S21091   1.813   0.792   8.223  0.5290  1.8226  2.0665
  184SOPE  C21821092   1.790   0.666   8.387 -0.2360  0.5619  0.5759
  184SOPE  H18R21093   1.844   0.603   8.462 -0.6216 -2.4565 -1.5041
  184SOPE  H18S21094   1.714   0.606   8.333 -0.4812  0.4581  1.0336
  184SOPE  H18T21095   1.739   0.756   8.428 -1.3785  0.2897 -0.2089
  184SOPE   C3321096   1.982   1.778   6.984  0.3459 -0.0345  0.8456
  184SOPE   H3X21097   1.889   1.811   6.932  0.3595 -1.8127 -0.4088
  184SOPE   H3Y21098   2.063   1.837   6.937 -0.2714  0.4932  0.4111
  184SOPE   C3421099   1.960   1.804   7.135 -0.1978  0.1295 -0.4784
  184SOPE   H4X21100   2.057   1.835   7.181 -0.2443  0.5039 -0.6256
  184SOPE   H4Y21101   1.936   1.708   7.185  1.3625 -0.2057 -0.2977
  184SOPE   C3521102   1.856   1.907   7.181 -0.5051  0.1208 -0.1911
  184SOPE   H5X21103   1.752   1.881   7.152 -0.2393 -0.3044 -0.7974
  184SOPE   H5Y21104   1.883   1.994   7.117  0.4258  1.1614  1.5244
  184SOPE   C3621105   1.865   1.948   7.328 -0.7936 -0.7433 -0.2313
  184SOPE   H6X21106   1.968   1.990   7.338 -0.1743 -2.0829 -0.7622
  184SOPE   H6Y21107   1.871   1.867   7.403 -0.4586  1.7645  2.6342
  184SOPE   C3721108   1.773   2.066   7.367 -0.6013 -0.1444 -0.1602
  184SOPE   H7X21109   1.669   2.027   7.359 -0.3456 -0.9179  0.2066
  184SOPE   H7Y21110   1.775   2.147   7.291  2.5086  0.2873  0.2346
  184SOPE   C3821111   1.773   2.113   7.512 -0.4991 -0.1529  0.3136
  184SOPE   H8X21112   1.874   2.157   7.530  0.1502 -1.7338  0.6912
  184SOPE   H8Y21113   1.751   2.023   7.573 -2.9728  1.2975  1.7344
  184SOPE   C3921114   1.662   2.211   7.544 -0.9921  0.1502  0.1332
  184SOPE   H9X21115   1.574   2.153   7.507 -1.1036 -0.2074  0.9247
  184SOPE   H9Y21116   1.692   2.298   7.482  0.8140  0.7539  1.7589
  184SOPE  C31021117   1.658   2.244   7.699  0.7022  0.3523 -0.1310
  184SOPE  H10X21118   1.758   2.271   7.739  1.2188 -2.1551  0.4401
  184SOPE  H10Y21119   1.621   2.147   7.738 -0.3601 -0.0210 -1.9298
  184SOPE  C31121120   1.557   2.347   7.733 -0.2409 -0.7182 -0.5944
  184SOPE  H11X21121   1.459   2.300   7.710  0.9769 -2.3383 -2.9123
  184SOPE  H11Y21122   1.573   2.444   7.682  0.4507  0.6212  2.0233
  184SOPE  C31221123   1.557   2.377   7.885  0.2178  0.3159 -0.2535
  184SOPE  H12X21124   1.655   2.418   7.918  0.8317 -2.1601  1.3406
  184SOPE  H12Y21125   1.545   2.280   7.938  1.6460  0.6912  0.8397
  184SOPE  C31321126   1.444   2.461   7.928  0.0034 -0.3265  0.3733
  184SOPE  H13X21127   1.350   2.407   7.901  0.7726 -1.1545 -0.7452
  184SOPE  H13Y21128   1.450   2.554   7.869 -1.0792 -1.7278 -2.0997
  184SOPE  C31421129   1.446   2.475   8.077 -1.3062 -0.2298  0.4572
  184SOPE  H14X21130   1.539   2.532   8.096  0.6607 -3.4551  1.2547
  184SOPE  H14Y21131   1.478   2.387   8.137  1.9325  0.0808 -0.6624
  184SOPE  C31521132   1.322   2.541   8.144  0.0939 -0.3373  0.7699
  184SOPE  H15X21133   1.227   2.506   8.100  0.9070  1.2225 -2.5873
  184SOPE  H15Y21134   1.324   2.649   8.116  1.0096 -0.6036 -0.3196
  184SOPE  C31621135   1.327   2.533   8.296  0.1222  0.2747  0.1479
  184SOPE  H16X21136   1.430   2.545   8.336  0.3853 -0.9725 -0.1204
  184SOPE  H16Y21137   1.301   2.429   8.325  0.3721 -0.4068 -1.9439
  184SOPE  C31721138   1.226   2.619   8.374  0.2699 -0.0219  0.0233
  184SOPE  H17X21139   1.255   2.723   8.352  0.8213 -0.0892  0.4071
  184SOPE  H17Y21140   1.224   2.607   8.485 -0.3935  1.1536  0.1475
  184SOPE  C31821141   1.079   2.582   8.335  0.4774  0.7254  0.5682
  184SOPE  H18X21142   0.999   2.637   8.388 -0.5774 -0.5057  0.2840
  184SOPE  H18Y21143   1.067   2.474   8.358 -1.0826  0.9924  1.1376
  184SOPE  H18Z21144   1.058   2.599   8.227  0.5372  0.0755  0.4542
  185SAPI   C1221145   4.340   5.550  10.935 -0.4859 -0.0031  0.3704
  185SAPI    H221146   4.251   5.489  10.908  0.1797  0.1075 -2.4413
  185SAPI    O221147   4.402   5.577  10.811 -0.3038  0.5640 -0.0590
  185SAPI   HO221148   4.476   5.517  10.798 -0.6788  0.1652 -0.3751
  185SAPI   C1321149   4.286   5.672  11.010 -0.3546  0.5840 -0.3299
  185SAPI    H321150   4.248   5.642  11.110  0.2036  1.6939  0.2314
  185SAPI    O321151   4.175   5.730  10.946 -0.4811  0.4257 -0.0602
  185SAPI   HO321152   4.187   5.746  10.852  1.5187 -2.7576 -0.4621
  185SAPI   C1421153   4.401   5.766  11.039  0.4151  0.1874 -0.2802
  185SAPI    H421154   4.454   5.800  10.947  1.2524 -1.1926 -0.3420
  185SAPI    O421155   4.346   5.878  11.112 -0.3851 -0.1153  0.2441
  185SAPI   HO421156   4.302   5.938  11.052 -0.9826 -0.2063  0.5790
  185SAPI   C1521157   4.505   5.698  11.124  0.1497  0.2686  0.2966
  185SAPI    H521158   4.459   5.673  11.222  0.2282  0.6140  0.4225
  185SAPI    O521159   4.615   5.785  11.160 -0.2340 -0.0129 -0.1962
  185SAPI   HO521160   4.660   5.825  11.085  1.5289 -1.6966 -0.0986
  185SAPI   C1621161   4.562   5.571  11.056  0.7883 -0.0322  0.5251
  185SAPI    H621162   4.616   5.588  10.960 -0.3608  1.3499  0.0896
  185SAPI    O621163   4.652   5.509  11.148  0.5685  0.1887 -0.8150
  185SAPI   HO621164   4.615   5.428  11.182  0.5488 -0.5862 -2.5799
  185SAPI   C1121165   4.441   5.477  11.019 -0.0373 -0.4576 -0.0799
  185SAPI    H121166   4.384   5.459  11.113 -3.9166 -0.6458 -2.2666
  185SAPI     P21167   4.401   5.220  10.963 -0.1627  0.4085  0.2187
  185SAPI   O1321168   4.304   5.205  11.076 -0.2509  0.1655 -0.7593
  185SAPI   O1421169   4.502   5.113  10.941 -0.3586  0.2594  0.1115
  185SAPI   O1221170   4.489   5.354  10.975 -0.5743  0.0934  0.1142
  185SAPI   O1121171   4.320   5.239  10.826  0.5034  0.0064 -0.2306
  185SAPI    C121172   4.383   5.237  10.705 -0.6047  0.1405  0.4041
  185SAPI    HA21173   4.477   5.296  10.701  1.5655 -3.1096 -0.6569
  185SAPI    HB21174   4.415   5.133  10.681  1.3260  0.8559 -0.3429
  185SAPI    C221175   4.288   5.289  10.596 -0.3612  0.1482  0.7421
  185SAPI    HS21176   4.254   5.393  10.614 -0.9750  0.0011  0.4485
  185SAPI   O2121177   4.178   5.201  10.570 -0.3456  0.0067 -0.0578
  185SAPI   C2121178   4.054   5.250  10.591 -0.3500 -1.0260 -0.4529
  185SAPI   O2221179   4.025   5.365  10.626  0.0984  0.9978 -0.5018
  185SAPI   C2221180   3.943   5.152  10.551  0.0903 -0.4385  0.2940
  185SAPI   H2R21181   3.980   5.075  10.480  1.3213 -1.1273  1.6122
  185SAPI   H2S21182   3.916   5.100  10.646 -2.8647  0.3510 -0.0382
  185SAPI    C321183   4.364   5.291  10.463  1.4469 -0.9948 -0.1119
  185SAPI    HX21184   4.404   5.190  10.437  0.1357 -1.1884 -1.4968
  185SAPI    HY21185   4.448   5.363  10.475  2.8143 -2.3730 -0.9963
  185SAPI   O3121186   4.277   5.335  10.351 -0.1088 -0.6713 -0.3362
  185SAPI   C3121187   4.270   5.464  10.322  0.6635  0.1927  0.0851
  185SAPI   O3221188   4.326   5.552  10.384 -0.0573  0.9621  0.1348
  185SAPI   C3221189   4.159   5.476  10.209 -0.4163 -0.0094  0.2027
  185SAPI   H2X21190   4.065   5.436  10.252 -0.3357 -0.7189 -0.2574
  185SAPI   H2Y21191   4.179   5.419  10.116 -1.5091 -1.3134  0.7404
  185SAPI   C2321192   3.810   5.202  10.502 -0.7050  0.0083  0.0612
  185SAPI   H3R21193   3.760   5.270  10.574 -1.5670 -1.1699  0.6124
  185SAPI   H3S21194   3.733   5.126  10.479 -0.3230 -0.9943  1.9184
  185SAPI   C2421195   3.837   5.275  10.370  1.0646 -0.1310 -0.5683
  185SAPI   H4R21196   3.898   5.363  10.396 -1.6239  0.9330  3.0907
  185SAPI   H4S21197   3.738   5.323  10.352  0.5432 -0.3148  1.5141
  185SAPI   C2521198   3.886   5.193  10.250  0.4386  0.3405 -0.4413
  185SAPI   H5R21199   3.991   5.162  10.259  0.4286  0.6204  0.7494
  185SAPI   C2621200   3.806   5.161  10.142 -0.3355 -0.0660  0.3345
  185SAPI   H6R21201   3.840   5.097  10.059 -1.4548  1.7717 -1.6462
  185SAPI   C2721202   3.659   5.182  10.142 -0.1846  0.8971 -0.2330
  185SAPI   H7R21203   3.634   5.290  10.137  3.2551  1.7677 -1.4006
  185SAPI   H7S21204   3.620   5.145  10.239  1.0255  0.1915  0.0083
  185SAPI   C2821205   3.591   5.122  10.024  0.0001  0.4318  0.4356
  185SAPI   H8R21206   3.535   5.030  10.046 -0.4634  0.6548  0.2019
  185SAPI   C2921207   3.580   5.185   9.900 -0.4155  0.8902  0.3090
  185SAPI   H9R21208   3.519   5.133   9.824 -0.4776  2.2525 -0.6060
  185SAPI  C21021209   3.640   5.311   9.850 -0.9052  0.0974  0.4734
  185SAPI  H10R21210   3.683   5.362   9.939  1.2663 -0.7326 -0.0490
  185SAPI  H10S21211   3.571   5.387   9.807 -0.0126  0.7344  0.1626
  185SAPI  C21121212   3.754   5.288   9.759  0.4064 -0.4054  0.1180
  185SAPI  H11R21213   3.851   5.283   9.809  1.1115 -0.5924 -1.2231
  185SAPI  C21221214   3.758   5.280   9.621  0.2255 -0.4165 -0.1008
  185SAPI  H12R21215   3.846   5.247   9.563  0.1944  2.6424 -2.1666
  185SAPI  C21321216   3.641   5.275   9.522  0.2467  0.2059  0.3317
  185SAPI  H13R21217   3.584   5.370   9.524 -1.6071 -0.7975 -1.3088
  185SAPI  H13S21218   3.576   5.193   9.560  0.4381 -0.0098  0.1947
  185SAPI  C21421219   3.681   5.237   9.379 -0.3964 -0.8467 -0.2426
  185SAPI  H14R21220   3.787   5.244   9.350  0.0799 -1.5670  1.2064
  185SAPI  C21521221   3.593   5.191   9.292  0.1644  0.1944 -0.4397
  185SAPI  H15R21222   3.633   5.164   9.194  0.0907  2.7255 -1.2233
  185SAPI  C21621223   3.447   5.175   9.318 -0.1481  0.0169  1.4804
  185SAPI  H16R21224   3.411   5.240   9.400  0.1969  2.7122 -0.3810
  185SAPI  H16S21225   3.439   5.066   9.341 -0.2113 -0.4788 -0.6365
  185SAPI  C21721226   3.362   5.224   9.192  0.0933 -0.2697 -0.8871
  185SAPI  H17R21227   3.255   5.226   9.224  0.7726  1.2758  1.5563
  185SAPI  H17S21228   3.372   5.163   9.100  1.4947 -0.8186 -0.3826
  185SAPI  C21821229   3.398   5.375   9.146  0.2269 -0.4890 -0.1104
  185SAPI  H18R21230   3.355   5.371   9.043 -1.0698 -1.2091  0.4361
  185SAPI  H18S21231   3.508   5.393   9.135  0.2763  0.1248  1.2952
  185SAPI  C21921232   3.337   5.482   9.233 -0.7625 -0.2222  0.1737
  185SAPI  H19R21233   3.366   5.470   9.339 -2.6970 -0.5860  0.7034
  185SAPI  H19S21234   3.227   5.485   9.217 -1.0074  1.7471  1.9307
  185SAPI  C22021235   3.397   5.615   9.191  0.0866  0.5230  0.1503
  185SAPI  H20R21236   3.503   5.615   9.223 -0.5466  3.8643  2.7660
  185SAPI  H20S21237   3.354   5.702   9.245  0.4790  1.7205 -1.3823
  185SAPI  H20T21238   3.377   5.631   9.083 -1.7507  1.3593  0.5743
  185SAPI   C3321239   4.138   5.623  10.171 -0.0083  0.3344 -0.7037
  185SAPI   H3X21240   4.200   5.696  10.227  1.5776 -1.1520 -0.4601
  185SAPI   H3Y21241   4.035   5.659  10.192 -0.2240 -0.4470 -0.3622
  185SAPI   C3421242   4.163   5.648  10.026  0.1845 -0.2744 -0.6957
  185SAPI   H4X21243   4.269   5.624  10.004 -0.0358 -0.0438 -2.0892
  185SAPI   H4Y21244   4.165   5.758  10.013  4.0933 -0.4189 -2.8003
  185SAPI   C3521245   4.073   5.583   9.923  0.7546 -0.1409 -0.6540
  185SAPI   H5X21246   3.967   5.596   9.952  1.1248 -0.1889  0.7688
  185SAPI   H5Y21247   4.085   5.472   9.929 -0.4132 -0.3683 -1.9386
  185SAPI   C3621248   4.092   5.613   9.775  0.1337  0.1906 -0.0379
  185SAPI   H6X21249   4.198   5.595   9.745  0.1035  1.3772 -0.9534
  185SAPI   H6Y21250   4.071   5.722   9.765  1.9188  0.8014  2.1558
  185SAPI   C3721251   4.000   5.547   9.675 -0.9046 -0.3772 -0.1762
  185SAPI   H7X21252   3.891   5.565   9.681 -0.8309 -0.0930  0.3443
  185SAPI   H7Y21253   4.022   5.440   9.692  0.6337  0.0108  0.5229
  185SAPI   C3821254   4.042   5.586   9.531 -0.1213  0.6053 -0.5922
  185SAPI   H8X21255   4.150   5.564   9.518 -0.2900 -1.2906  0.7545
  185SAPI   H8Y21256   4.008   5.691   9.520 -3.8718  0.0328  3.0135
  185SAPI   C3921257   3.953   5.514   9.422 -0.8453 -0.1091 -0.2523
  185SAPI   H9X21258   3.847   5.531   9.448 -0.5836 -0.2083  0.9428
  185SAPI   H9Y21259   3.981   5.407   9.432  3.0191  0.8213  0.4429
  185SAPI  C31021260   3.982   5.558   9.279 -0.1600  0.0045  0.0581
  185SAPI  H10X21261   4.089   5.541   9.255 -0.3561 -2.5149  0.6980
  185SAPI  H10Y21262   3.954   5.665   9.264 -0.9971 -0.2402 -0.1876
  185SAPI  C31121263   3.893   5.474   9.183 -0.5858 -0.9440 -0.7999
  185SAPI  H11X21264   3.790   5.511   9.203  0.2837  1.9130 -1.1684
  185SAPI  H11Y21265   3.908   5.367   9.212  0.2798 -0.9443 -1.2065
  185SAPI  C31221266   3.906   5.494   9.039 -0.6646 -0.7326  0.3451
  185SAPI  H12X21267   3.913   5.599   9.003  1.9246 -1.2174 -0.7909
  185SAPI  H12Y21268   3.810   5.462   8.992 -0.4002 -0.6578 -0.2652
  185SAPI  C31321269   4.029   5.426   8.971  0.2210 -0.0889 -0.4180
  185SAPI  H13X21270   4.038   5.319   8.999 -0.3963 -0.5460 -1.8530
  185SAPI  H13Y21271   4.111   5.484   9.018  0.8489 -1.4575  0.2219
  185SAPI  C31421272   4.020   5.441   8.820 -0.3425 -0.1072  0.2850
  185SAPI  H14X21273   4.015   5.550   8.797  2.0325 -0.1654 -0.7254
  185SAPI  H14Y21274   3.919   5.400   8.796  0.5368 -0.8800 -2.4066
  185SAPI  C31521275   4.133   5.384   8.735 -0.8108 -0.0842 -0.7349
  185SAPI  H15X21276   4.186   5.305   8.792 -0.3868  0.1020 -0.8702
  185SAPI  H15Y21277   4.208   5.463   8.713 -1.0397 -0.1131 -1.6632
  185SAPI  C31621278   4.100   5.349   8.590 -0.3783  1.1587  0.1603
  185SAPI  H16X21279   4.068   5.440   8.535 -0.1429  0.4233 -1.2217
  185SAPI  H16Y21280   4.016   5.277   8.583  2.2215 -2.0387 -0.5168
  185SAPI  C31721281   4.217   5.292   8.506  0.5578 -0.6682  0.0609
  185SAPI  H17X21282   4.308   5.352   8.527 -0.1370 -0.4846  2.8977
  185SAPI  H17Y21283   4.194   5.306   8.398 -1.8398  1.2121  0.7326
  185SAPI  C31821284   4.248   5.142   8.527  0.6009  0.5252 -0.5915
  185SAPI  H18X21285   4.194   5.079   8.453 -1.9144  1.4156  0.3851
  185SAPI  H18Y21286   4.222   5.105   8.629 -1.4353 -1.3228 -1.7075
  185SAPI  H18Z21287   4.358   5.128   8.512  0.7243 -0.1634  0.7859
  186SAPI   C1221288   4.609   3.607  10.966  0.2462 -0.4206  0.3092
  186SAPI    H221289   4.522   3.544  10.993 -0.1997  0.0710  0.0471
  186SAPI    O221290   4.567   3.721  10.896  0.3061  0.3427  0.0379
  186SAPI   HO221291   4.529   3.703  10.810  1.3222  1.3063 -0.6415
  186SAPI   C1321292   4.654   3.624  11.105  0.5696  0.2910 -0.1914
  186SAPI    H321293   4.666   3.525  11.154  0.4575 -0.2457 -1.2267
  186SAPI    O321294   4.539   3.686  11.174 -0.5301 -0.1019  0.3618
  186SAPI   HO321295   4.455   3.642  11.158 -0.4907  0.6088 -2.3268
  186SAPI   C1421296   4.770   3.721  11.115  0.4683  0.5894  0.0184
  186SAPI    H421297   4.740   3.815  11.063  1.0385  0.3934 -0.6872
  186SAPI    O421298   4.811   3.758  11.250 -0.2471 -0.0841  0.2725
  186SAPI   HO421299   4.725   3.775  11.290 -0.4175 -1.5004  0.5716
  186SAPI   C1521300   4.888   3.660  11.032 -0.1545 -0.3497 -0.0780
  186SAPI    H521301   4.914   3.565  11.083  3.0421  0.0065 -0.8758
  186SAPI    O521302   4.998   3.747  11.037  0.3265 -0.8436  0.1212
  186SAPI   HO521303   5.056   3.710  10.970 -1.7208 -2.9701 -0.6210
  186SAPI   C1621304   4.847   3.626  10.889 -0.4231  0.4850  0.1965
  186SAPI    H621305   4.812   3.716  10.834 -5.8831 -1.7759 -0.6625
  186SAPI    O621306   4.958   3.566  10.822 -0.0280 -0.3787  0.7049
  186SAPI   HO621307   4.937   3.554  10.730  0.3179  0.1512  0.5495
  186SAPI   C1121308   4.728   3.534  10.894 -0.1640 -0.3183 -0.2756
  186SAPI    H121309   4.751   3.452  10.966 -0.9387 -1.2237 -1.0448
  186SAPI     P21310   4.592   3.345  10.764 -0.0102  0.3158 -0.4402
  186SAPI   O1321311   4.471   3.342  10.849 -0.0647 -0.0904 -0.1455
  186SAPI   O1421312   4.687   3.231  10.801  0.1827 -0.0328  0.5497
  186SAPI   O1221313   4.674   3.487  10.770 -0.3775  0.4005 -0.3126
  186SAPI   O1121314   4.552   3.332  10.615 -0.4898  0.4470 -0.2123
  186SAPI    C121315   4.640   3.319  10.503  0.0532 -0.2947 -0.5179
  186SAPI    HA21316   4.702   3.230  10.526  2.2021  1.1727 -0.2787
  186SAPI    HB21317   4.580   3.298  10.413 -0.8617  0.3301 -0.0699
  186SAPI    C221318   4.737   3.440  10.487 -0.6317 -0.2783 -0.4687
  186SAPI    HS21319   4.815   3.431  10.566 -2.5214 -2.1556  1.3329
  186SAPI   O2121320   4.657   3.560  10.491  0.1843  0.1227  0.0019
  186SAPI   C2121321   4.722   3.672  10.509 -0.3278  0.8015 -0.0219
  186SAPI   O2221322   4.842   3.682  10.547 -0.2258 -0.2165 -0.3457
  186SAPI   C2221323   4.638   3.790  10.477  0.0756 -0.1228  0.4147
  186SAPI   H2R21324   4.566   3.749  10.403  0.6324 -0.5359  0.0911
  186SAPI   H2S21325   4.572   3.825  10.560 -0.0112  0.3593  0.1452
  186SAPI    C321326   4.821   3.439  10.359 -0.0535 -0.2956  0.4673
  186SAPI    HX21327   4.896   3.361  10.384 -0.3034 -0.3775  0.9881
  186SAPI    HY21328   4.871   3.538  10.355  0.3295 -0.5303 -1.3986
  186SAPI   O3121329   4.747   3.406  10.237  0.0291  0.1963 -0.3347
  186SAPI   C3121330   4.762   3.489  10.138 -0.4080 -0.2757 -0.8758
  186SAPI   O3221331   4.832   3.590  10.137  0.2835 -0.0462  0.1747
  186SAPI   C3221332   4.670   3.440  10.033 -0.0658  0.4712  0.0701
  186SAPI   H2X21333   4.563   3.449  10.064 -0.0395  3.5280 -0.3888
  186SAPI   H2Y21334   4.701   3.335  10.015  1.5911  1.0045 -0.2906
  186SAPI   C2321335   4.709   3.920  10.426  0.1127  0.7641  0.0829
  186SAPI   H3R21336   4.799   3.887  10.369 -0.1011 -1.0511  0.7200
  186SAPI   H3S21337   4.752   3.971  10.515  0.7529 -1.1092  0.8966
  186SAPI   C2421338   4.618   4.017  10.341  0.0891 -0.1592  0.5175
  186SAPI   H4R21339   4.543   4.051  10.416 -1.0122 -2.0091  0.3209
  186SAPI   H4S21340   4.586   3.949  10.259  1.0606 -0.9079  0.7441
  186SAPI   C2521341   4.692   4.128  10.283  0.1789 -0.5254 -0.9354
  186SAPI   H5R21342   4.693   4.217  10.348 -2.4162 -1.8932  1.1557
  186SAPI   C2621343   4.746   4.133  10.161  0.1521 -0.0833  0.3667
  186SAPI   H6R21344   4.792   4.229  10.134  1.3763 -0.5373  0.7462
  186SAPI   C2721345   4.745   4.023  10.060  0.0487  0.5481  0.4662
  186SAPI   H7R21346   4.643   3.982  10.041  0.7131 -0.2879 -1.5468
  186SAPI   H7S21347   4.806   3.941  10.105 -0.5409 -1.3092 -1.8926
  186SAPI   C2821348   4.805   4.072   9.935  0.2785 -0.2516 -0.0177
  186SAPI   H8R21349   4.817   4.181   9.921  3.4134 -0.5100 -0.0929
  186SAPI   C2921350   4.860   4.003   9.838 -0.2360  0.0008  0.0702
  186SAPI   H9R21351   4.885   4.055   9.744 -1.4069  1.3314  0.4573
  186SAPI  C21021352   4.855   3.854   9.838  0.4094  0.0303 -0.4731
  186SAPI  H10R21353   4.790   3.822   9.755  0.7987 -2.3884  0.0860
  186SAPI  H10S21354   4.818   3.814   9.935 -1.1510  3.1510  0.3500
  186SAPI  C21121355   4.991   3.805   9.809 -0.4358 -0.1423  0.3054
  186SAPI  H11R21356   5.052   3.786   9.898 -0.0416 -0.6867 -0.0745
  186SAPI  C21221357   5.048   3.778   9.686  0.1304  0.1866 -0.3868
  186SAPI  H12R21358   5.151   3.739   9.685 -0.1141 -0.4560 -1.2904
  186SAPI  C21321359   4.980   3.791   9.547  0.2257  0.6239  0.1034
  186SAPI  H13R21360   4.916   3.883   9.552  1.9044  1.7712  2.3837
  186SAPI  H13S21361   4.918   3.705   9.515 -3.4059  1.8050  3.1634
  186SAPI  C21421362   5.086   3.811   9.442  0.0865  0.0773  0.2361
  186SAPI  H14R21363   5.192   3.815   9.470  0.7551  1.0615 -2.1508
  186SAPI  C21521364   5.053   3.811   9.310 -0.2116  0.5621  0.0038
  186SAPI  H15R21365   5.132   3.830   9.236 -0.4433  0.3618 -0.2957
  186SAPI  C21621366   4.907   3.817   9.260  0.0737 -0.6294  0.2541
  186SAPI  H16R21367   4.832   3.762   9.321 -0.2828  0.0885  0.4676
  186SAPI  H16S21368   4.911   3.768   9.161  1.0801  1.5912 -0.8687
  186SAPI  C21721369   4.841   3.957   9.219 -1.1564  0.0121 -0.2346
  186SAPI  H17R21370   4.742   3.929   9.175 -2.8835  4.9677 -0.0838
  186SAPI  H17S21371   4.908   4.012   9.149  0.6005  0.4194  1.6759
  186SAPI  C21821372   4.809   4.041   9.345  0.6822  0.3959  0.2839
  186SAPI  H18R21373   4.903   4.081   9.391 -0.7652  2.4597  1.6427
  186SAPI  H18S21374   4.750   3.972   9.409 -2.2917  2.3676 -0.1717
  186SAPI  C21921375   4.710   4.160   9.307 -0.1640  0.7779 -0.1475
  186SAPI  H19R21376   4.627   4.105   9.258 -0.4092  0.7896  0.2468
  186SAPI  H19S21377   4.770   4.215   9.233 -2.5705 -0.4193 -3.2222
  186SAPI  C22021378   4.657   4.239   9.424 -0.3495  0.0502  0.0875
  186SAPI  H20R21379   4.579   4.311   9.391  1.7852  2.0899 -0.7789
  186SAPI  H20S21380   4.745   4.298   9.455 -0.1798 -0.4764  0.6268
  186SAPI  H20T21381   4.623   4.169   9.503 -0.7785 -0.6813 -0.7246
  186SAPI   C3321382   4.688   3.522   9.902  0.1148 -0.6412 -0.2173
  186SAPI   H3X21383   4.793   3.515   9.865 -0.4975 -0.6734 -2.0387
  186SAPI   H3Y21384   4.663   3.626   9.933  3.1380 -0.0944  0.7452
  186SAPI   C3421385   4.611   3.475   9.786  0.4817  0.0189 -0.4367
  186SAPI   H4X21386   4.510   3.519   9.797  0.5245  0.8882 -2.9541
  186SAPI   H4Y21387   4.597   3.365   9.794 -1.5716  0.3093  0.8092
  186SAPI   C3521388   4.668   3.524   9.658 -0.6066 -0.5465  0.5370
  186SAPI   H5X21389   4.765   3.470   9.660 -1.0678 -1.4025  0.2921
  186SAPI   H5Y21390   4.699   3.631   9.661  0.4796 -0.8600  1.3954
  186SAPI   C3621391   4.582   3.498   9.533 -0.4988  0.2204  0.1099
  186SAPI   H6X21392   4.488   3.557   9.542 -0.3545  0.6874 -1.2300
  186SAPI   H6Y21393   4.557   3.390   9.535  1.3414 -0.2353  0.1531
  186SAPI   C3721394   4.642   3.564   9.409 -0.3105  0.2663 -0.9994
  186SAPI   H7X21395   4.728   3.500   9.380 -0.1235  0.0169  0.0706
  186SAPI   H7Y21396   4.678   3.667   9.431  1.4340 -0.2203 -1.4261
  186SAPI   C3821397   4.549   3.564   9.290 -0.4384 -1.1109  0.7252
  186SAPI   H8X21398   4.453   3.616   9.311  0.0615  0.6844 -1.1245
  186SAPI   H8Y21399   4.520   3.460   9.264  0.3834 -1.0522 -0.5252
  186SAPI   C3921400   4.596   3.630   9.157  0.2842  0.3840 -0.8269
  186SAPI   H9X21401   4.690   3.579   9.126  0.0440 -1.5165  1.3197
  186SAPI   H9Y21402   4.618   3.736   9.180 -0.4943  0.8919 -2.2948
  186SAPI  C31021403   4.498   3.611   9.035  0.3769 -0.4763  0.1792
  186SAPI  H10X21404   4.393   3.617   9.072 -0.2393 -3.9281 -0.6945
  186SAPI  H10Y21405   4.514   3.509   8.994  0.9942 -0.7949  1.1801
  186SAPI  C31121406   4.526   3.722   8.926  0.0184  0.6797  0.5515
  186SAPI  H11X21407   4.524   3.823   8.974 -1.5967  1.1365 -0.3645
  186SAPI  H11Y21408   4.455   3.730   8.840 -2.1488  2.4480  2.3560
  186SAPI  C31221409   4.666   3.690   8.857  0.2187 -0.2050 -0.2850
  186SAPI  H12X21410   4.665   3.585   8.821  1.9380  0.4185 -2.3394
  186SAPI  H12Y21411   4.736   3.688   8.943  0.0978 -0.1310 -0.1845
  186SAPI  C31321412   4.702   3.794   8.751  0.2629  0.1042  0.1449
  186SAPI  H13X21413   4.623   3.794   8.672  0.2427  1.2787  0.1487
  186SAPI  H13Y21414   4.798   3.755   8.711 -1.4164 -2.1144 -2.0956
  186SAPI  C31421415   4.719   3.933   8.802  0.5376  0.4481 -0.1117
  186SAPI  H14X21416   4.763   3.933   8.904  2.2829  0.0995 -0.8219
  186SAPI  H14Y21417   4.621   3.985   8.809  0.4456  0.3835 -0.8205
  186SAPI  C31521418   4.817   4.018   8.717  0.3440 -0.3369 -0.2573
  186SAPI  H15X21419   4.770   4.032   8.617 -1.9947  0.8717  0.9343
  186SAPI  H15Y21420   4.912   3.962   8.708  0.6496  0.1291 -0.0157
  186SAPI  C31621421   4.848   4.148   8.789  0.4712 -0.1985 -0.1332
  186SAPI  H16X21422   4.900   4.131   8.885 -1.0726  0.7765  0.9164
  186SAPI  H16Y21423   4.749   4.188   8.819  0.8548  0.9571 -0.3754
  186SAPI  C31721424   4.919   4.254   8.709 -0.3004 -0.6263  0.0168
  186SAPI  H17X21425   4.859   4.290   8.622  0.3708 -1.1398 -0.6659
  186SAPI  H17Y21426   5.014   4.205   8.679 -0.2378 -0.8751  0.6277
  186SAPI  C31821427   4.950   4.389   8.786  0.1845  0.0972  0.2217
  186SAPI  H18X21428   4.856   4.441   8.816  0.4155  0.1333  0.9041
  186SAPI  H18Y21429   5.019   4.444   8.719  1.6296 -2.0411 -0.1506
  186SAPI  H18Z21430   5.004   4.376   8.882 -0.9562  1.0726  1.0282
  187SAPI   C1221431   0.589   3.745   6.344  0.2986  0.1658 -0.0315
  187SAPI    H221432   0.652   3.810   6.408  0.1481 -0.7165  1.0378
  187SAPI    O221433   0.629   3.772   6.206 -0.1650  0.2699  0.4464
  187SAPI   HO221434   0.629   3.865   6.183  1.6550  0.4965  1.1413
  187SAPI   C1321435   0.609   3.604   6.389 -0.0656  0.1566  0.0922
  187SAPI    H321436   0.589   3.591   6.498 -1.2871  1.1034 -0.0093
  187SAPI    O321437   0.745   3.560   6.368  0.6852 -0.0765  0.3244
  187SAPI   HO321438   0.777   3.591   6.283 -0.0838 -0.7270 -0.2191
  187SAPI   C1421439   0.519   3.504   6.317 -0.2937 -0.1702 -0.0975
  187SAPI    H421440   0.549   3.513   6.210  0.9323  0.7302  0.3065
  187SAPI    O421441   0.542   3.366   6.357 -0.4604  0.4482  0.3274
  187SAPI   HO421442   0.571   3.319   6.279 -1.6902 -1.1227  0.7476
  187SAPI   C1521443   0.372   3.555   6.326 -0.7960 -0.0405 -0.5525
  187SAPI    H521444   0.344   3.558   6.434  1.0772 -0.1047 -0.0338
  187SAPI    O521445   0.288   3.459   6.259  0.2313  0.2692 -0.4164
  187SAPI   HO521446   0.339   3.410   6.195  1.1495 -0.7013  0.9917
  187SAPI   C1621447   0.354   3.704   6.289  0.1146 -0.2609 -0.4280
  187SAPI    H621448   0.371   3.713   6.180 -1.5908 -1.8075 -0.8707
  187SAPI    O621449   0.218   3.744   6.313 -0.5591 -0.1441 -0.1907
  187SAPI   HO621450   0.214   3.815   6.249  2.4033 -2.8210 -3.8480
  187SAPI   C1121451   0.450   3.786   6.383  0.1227 -0.1763  0.4131
  187SAPI    H121452   0.434   3.757   6.488  0.2122  1.4120  0.8867
  187SAPI     P21453   0.367   4.037   6.454 -0.0731  0.2986 -0.0876
  187SAPI   O1321454   0.254   3.972   6.530  0.1549  0.3533  0.5655
  187SAPI   O1421455   0.323   4.156   6.378  0.0259 -0.0505  0.0371
  187SAPI   O1221456   0.440   3.929   6.361 -0.3741  0.2022  0.2085
  187SAPI   O1121457   0.481   4.078   6.558 -0.4181  0.3185  0.2143
  187SAPI    C121458   0.612   4.135   6.530 -0.3728  0.1474  0.0826
  187SAPI    HA21459   0.697   4.064   6.521 -0.4424  0.1224 -0.4293
  187SAPI    HB21460   0.613   4.180   6.428 -0.0987 -0.9459 -0.4080
  187SAPI    C221461   0.648   4.250   6.621  0.1574 -0.3029  0.1970
  187SAPI    HS21462   0.737   4.301   6.579  1.7665 -3.3970 -0.4142
  187SAPI   O2121463   0.669   4.204   6.751  0.6405 -0.6850 -0.2312
  187SAPI   C2121464   0.781   4.155   6.788 -0.6699 -0.0448 -1.2316
  187SAPI   O2221465   0.873   4.120   6.715 -0.1946  0.3575 -0.1446
  187SAPI   C2221466   0.779   4.144   6.939 -0.9586  0.3223 -0.3853
  187SAPI   H2R21467   0.780   4.244   6.988 -0.7322 -0.5429  1.4843
  187SAPI   H2S21468   0.693   4.085   6.976  0.5104 -0.8728  1.3277
  187SAPI    C321469   0.552   4.370   6.624  0.3084 -0.8144  0.9416
  187SAPI    HX21470   0.456   4.320   6.652 -2.0834  3.9103  2.2375
  187SAPI    HY21471   0.534   4.404   6.520  0.6187 -0.3984  1.0223
  187SAPI   O3121472   0.579   4.473   6.724 -0.3964 -0.6331  0.6421
  187SAPI   C3121473   0.693   4.542   6.701 -0.2840 -0.4436 -0.7497
  187SAPI   O3221474   0.775   4.516   6.612  0.5346  0.9326  0.5210
  187SAPI   C3221475   0.719   4.649   6.803 -0.4521 -0.1545 -0.4227
  187SAPI   H2X21476   0.663   4.738   6.765  0.3558  0.6842  0.3049
  187SAPI   H2Y21477   0.827   4.671   6.795 -0.5774  1.3851  1.4476
  187SAPI   C2321478   0.907   4.072   6.988  0.0127 -0.4979 -0.3940
  187SAPI   H3R21479   1.002   4.118   6.954 -0.7093  1.2271 -0.1622
  187SAPI   H3S21480   0.905   3.968   6.949  2.7672 -0.0941 -1.8642
  187SAPI   C2421481   0.898   4.064   7.144 -0.0288  0.0785  0.3749
  187SAPI   H4R21482   0.965   3.986   7.185  1.2536  1.6423  1.3455
  187SAPI   H4S21483   0.796   4.031   7.175  0.8393 -2.9482  0.3379
  187SAPI   C2521484   0.934   4.187   7.211  0.5922 -0.0758 -0.0778
  187SAPI   H5R21485   1.025   4.226   7.164  1.9049 -1.6128  1.1024
  187SAPI   C2621486   0.876   4.249   7.310  0.1987  0.1516  0.8952
  187SAPI   H6R21487   0.926   4.337   7.352 -0.6498  1.3567 -0.5007
  187SAPI   C2721488   0.753   4.205   7.386  0.7027  0.3871 -0.1732
  187SAPI   H7R21489   0.775   4.114   7.445 -0.6939 -0.5786 -1.0848
  187SAPI   H7S21490   0.667   4.178   7.321  0.6407  2.1562 -0.9096
  187SAPI   C2821491   0.705   4.302   7.490 -0.0743  0.0150  0.5290
  187SAPI   H8R21492   0.630   4.378   7.465 -0.5455 -0.6234 -0.0276
  187SAPI   C2921493   0.753   4.298   7.616  0.0794  0.5813  0.4055
  187SAPI   H9R21494   0.721   4.369   7.694  0.4562  1.4205 -0.1841
  187SAPI  C21021495   0.864   4.209   7.664  0.0623  0.7226 -0.0481
  187SAPI  H10R21496   0.917   4.267   7.743 -1.4698 -0.3741  1.8865
  187SAPI  H10S21497   0.943   4.196   7.587  0.1536  0.4659  0.0856
  187SAPI  C21121498   0.838   4.068   7.708  1.1035  0.6017 -0.3188
  187SAPI  H11R21499   0.809   4.000   7.626 -0.9142  1.1894 -0.1501
  187SAPI  C21221500   0.855   4.008   7.829 -0.1827 -0.5690  0.3142
  187SAPI  H12R21501   0.839   3.900   7.832 -1.2878 -0.3877  2.5809
  187SAPI  C21321502   0.929   4.070   7.943 -0.4596  0.1628 -0.3469
  187SAPI  H13R21503   0.881   4.040   8.039  0.6544 -1.3188 -0.2017
  187SAPI  H13S21504   0.906   4.179   7.945 -0.2660  0.2444 -1.9324
  187SAPI  C21421505   1.082   4.040   7.933  0.4964  0.7108 -0.5514
  187SAPI  H14R21506   1.145   4.087   7.856  0.5564 -0.7001 -1.3947
  187SAPI  C21521507   1.152   3.959   8.014  0.8225 -0.5150  0.3250
  187SAPI  H15R21508   1.261   3.977   8.005  0.7379  0.2374  0.6880
  187SAPI  C21621509   1.107   3.878   8.129 -0.3534 -0.4999 -0.6958
  187SAPI  H16R21510   1.128   3.772   8.102 -2.9247 -1.4908  0.8634
  187SAPI  H16S21511   0.998   3.889   8.148 -0.0917 -1.3157  1.6881
  187SAPI  C21721512   1.188   3.911   8.261  0.0897  0.1670  0.2039
  187SAPI  H17R21513   1.299   3.898   8.257  0.0828  0.2738 -0.5010
  187SAPI  H17S21514   1.143   3.843   8.336 -2.1340  0.3330 -0.9146
  187SAPI  C21821515   1.171   4.056   8.322  0.3536 -0.0364 -0.3533
  187SAPI  H18R21516   1.065   4.091   8.322  0.1775 -0.4578  1.7059
  187SAPI  H18S21517   1.211   4.119   8.240 -0.7510  2.1079  0.6669
  187SAPI  C21921518   1.241   4.081   8.454 -0.0398 -0.5127  0.1515
  187SAPI  H19R21519   1.342   4.033   8.458 -0.7443 -2.2902 -1.7681
  187SAPI  H19S21520   1.172   4.044   8.532 -1.2564  1.6654  0.1615
  187SAPI  C22021521   1.260   4.228   8.479  0.5974 -0.0462 -0.1454
  187SAPI  H20R21522   1.300   4.259   8.578 -2.4302 -0.1105  1.2338
  187SAPI  H20S21523   1.154   4.263   8.475 -0.9592 -4.2304 -2.7101
  187SAPI  H20T21524   1.320   4.267   8.394 -0.3100 -1.5497 -1.5284
  187SAPI   C3321525   0.689   4.611   6.950 -0.9615  0.0576 -0.4861
  187SAPI   H3X21526   0.622   4.524   6.969 -0.2719 -0.1588  1.1676
  187SAPI   H3Y21527   0.633   4.696   6.995 -1.2904 -0.6055  0.3952
  187SAPI   C3421528   0.821   4.601   7.027 -0.0045  0.5535 -0.6096
  187SAPI   H4X21529   0.875   4.694   7.000  0.6560 -0.2178 -2.0488
  187SAPI   H4Y21530   0.879   4.514   6.990 -0.8778 -0.8181  1.0979
  187SAPI   C3521531   0.806   4.582   7.182  0.3507 -0.3980 -0.0401
  187SAPI   H5X21532   0.905   4.563   7.231 -0.3117  0.3882  1.7209
  187SAPI   H5Y21533   0.741   4.495   7.203  1.8941 -1.7921 -0.8095
  187SAPI   C3621534   0.749   4.704   7.254  0.0940 -0.5533 -0.1172
  187SAPI   H6X21535   0.640   4.689   7.242  0.3439 -3.3123  0.4746
  187SAPI   H6Y21536   0.786   4.794   7.200  0.7646 -2.1495 -2.4397
  187SAPI   C3721537   0.776   4.715   7.404  0.2899 -0.4533  0.0037
  187SAPI   H7X21538   0.885   4.709   7.424  0.1026 -0.1068  1.1693
  187SAPI   H7Y21539   0.713   4.639   7.454 -3.1475  1.6915 -0.7499
  187SAPI   C3821540   0.724   4.845   7.468  0.5267 -0.0183  0.4594
  187SAPI   H8X21541   0.614   4.857   7.456  0.4794 -1.4771 -0.8740
  187SAPI   H8Y21542   0.778   4.927   7.418 -0.5799  1.3458  1.4309
  187SAPI   C3921543   0.769   4.837   7.612 -0.4191 -0.0983  0.5279
  187SAPI   H9X21544   0.742   4.935   7.657 -0.6445 -0.1060  0.4148
  187SAPI   H9Y21545   0.878   4.819   7.619 -0.4208 -0.0210  0.7576
  187SAPI  C31021546   0.699   4.731   7.698 -1.1224 -0.9865 -0.0997
  187SAPI  H10X21547   0.747   4.631   7.692  2.5430  0.5672  0.7517
  187SAPI  H10Y21548   0.597   4.717   7.654 -0.6259  0.0953 -1.6670
  187SAPI  C31121549   0.700   4.785   7.846  0.0859 -0.2382 -0.7453
  187SAPI  H11X21550   0.616   4.856   7.860  1.6456  1.3077  1.5219
  187SAPI  H11Y21551   0.790   4.849   7.860 -1.9615  2.8972 -0.8431
  187SAPI  C31221552   0.668   4.676   7.949  0.4140  0.1946 -0.0370
  187SAPI  H12X21553   0.752   4.604   7.947  0.1046 -0.2137 -3.1365
  187SAPI  H12Y21554   0.576   4.629   7.908  1.2486 -0.6694 -0.9667
  187SAPI  C31321555   0.637   4.731   8.089  0.3399 -0.0989 -0.2535
  187SAPI  H13X21556   0.540   4.785   8.087  0.4721  0.1219 -0.9184
  187SAPI  H13Y21557   0.703   4.807   8.134 -0.2795 -0.1201  0.7353
  187SAPI  C31421558   0.633   4.616   8.193  0.1860 -0.3505 -0.7423
  187SAPI  H14X21559   0.727   4.558   8.179 -0.0873 -1.3859  1.3936
  187SAPI  H14Y21560   0.555   4.542   8.163 -0.1412 -0.8251  1.1480
  187SAPI  C31521561   0.624   4.657   8.335  0.1025  0.6194 -0.3632
  187SAPI  H15X21562   0.711   4.722   8.357  0.0554  0.2007  1.1435
  187SAPI  H15Y21563   0.632   4.575   8.409  0.4961  1.6140  0.7181
  187SAPI  C31621564   0.508   4.740   8.379  0.3599 -0.1043 -0.6584
  187SAPI  H16X21565   0.412   4.703   8.337 -0.2102  2.3251 -1.6380
  187SAPI  H16Y21566   0.516   4.843   8.339 -0.4797  0.0172 -0.5349
  187SAPI  C31721567   0.487   4.734   8.533 -0.8988 -0.0249  0.0239
  187SAPI  H17X21568   0.586   4.773   8.565 -0.7392  2.8755 -3.3314
  187SAPI  H17Y21569   0.465   4.632   8.573 -0.9402  1.1178  3.1264
  187SAPI  C31821570   0.395   4.836   8.589 -0.3730  0.0744  0.8355
  187SAPI  H18X21571   0.289   4.824   8.561 -1.0248 -1.4784  3.5608
  187SAPI  H18Y21572   0.429   4.936   8.556 -0.6345 -0.3263 -0.6936
  187SAPI  H18Z21573   0.409   4.823   8.699  1.7849  0.1182  0.6253
  188SAPI   C1221574   3.207   0.502   6.492 -0.1270 -0.0879  0.1475
  188SAPI    H221575   3.234   0.450   6.586 -0.6798  0.7747  0.8086
  188SAPI    O221576   3.085   0.443   6.454 -0.4065  0.5713 -0.3422
  188SAPI   HO221577   3.110   0.353   6.434  0.3022  0.6620  0.1195
  188SAPI   C1321578   3.182   0.649   6.518  0.6438  0.0008  0.1235
  188SAPI    H321579   3.275   0.700   6.551 -0.9370  2.4839  1.0478
  188SAPI    O321580   3.095   0.663   6.632 -0.5158 -0.5703 -0.6671
  188SAPI   HO321581   3.057   0.576   6.647 -0.0691 -0.6131  0.2316
  188SAPI   C1421582   3.129   0.721   6.399 -0.3258 -0.3648  0.3335
  188SAPI    H421583   3.036   0.670   6.366 -0.2182  0.4874 -1.4420
  188SAPI    O421584   3.079   0.857   6.418  0.0173  0.2120  0.8904
  188SAPI   HO421585   2.991   0.856   6.458 -1.0256 -2.4234 -1.1838
  188SAPI   C1521586   3.234   0.712   6.287  0.1232 -0.6204  0.4023
  188SAPI    H521587   3.328   0.755   6.328  0.0565  0.4228 -0.4949
  188SAPI    O521588   3.189   0.776   6.170  0.6233 -0.5619 -0.3326
  188SAPI   HO521589   3.124   0.839   6.204 -0.6083 -2.1297  0.3831
  188SAPI   C1621590   3.268   0.564   6.261 -0.2590 -0.3638  0.1935
  188SAPI    H621591   3.185   0.496   6.231  1.0272 -1.3550 -1.2842
  188SAPI    O621592   3.368   0.557   6.155  0.9545  0.7473 -0.3904
  188SAPI   HO621593   3.386   0.464   6.139 -2.3276 -0.2453  0.8292
  188SAPI   C1121594   3.315   0.496   6.382 -0.2556  0.1661 -0.5405
  188SAPI    H121595   3.405   0.550   6.420 -0.5577  0.0205  0.4221
  188SAPI     P21596   3.448   0.281   6.466  0.3296  0.4518 -0.1338
  188SAPI   O1321597   3.548   0.374   6.527 -0.4387  0.0895  0.0590
  188SAPI   O1421598   3.497   0.166   6.394  0.4535  0.1350 -0.2328
  188SAPI   O1221599   3.359   0.361   6.357 -0.7503 -0.0358  0.2620
  188SAPI   O1121600   3.341   0.230   6.571 -0.2850  0.4472  0.4565
  188SAPI    C121601   3.389   0.247   6.709  0.2890  0.0786  0.4064
  188SAPI    HA21602   3.485   0.197   6.731  1.3605  1.9812  0.1981
  188SAPI    HB21603   3.394   0.356   6.731 -0.3089 -0.2147  2.1171
  188SAPI    C221604   3.293   0.171   6.805 -0.5972 -0.1811  0.2424
  188SAPI    HS21605   3.196   0.226   6.805  0.1035  1.1495 -1.2557
  188SAPI   O2121606   3.353   0.155   6.940  0.2328 -0.3801  0.5571
  188SAPI   C2121607   3.264   0.168   7.040 -1.0341  1.0667  0.1222
  188SAPI   O2221608   3.145   0.192   7.033  0.0560 -0.5800 -0.4231
  188SAPI   C2221609   3.348   0.153   7.168 -0.4417  0.7327 -0.2190
  188SAPI   H2R21610   3.375   0.050   7.200  0.1929  0.7782 -0.5802
  188SAPI   H2S21611   3.450   0.194   7.153  0.9360 -2.2370  0.2707
  188SAPI    C321612   3.245   0.035   6.743 -0.7713 -0.1770  0.0996
  188SAPI    HX21613   3.333  -0.028   6.723 -1.5185 -0.6258 -2.0201
  188SAPI    HY21614   3.186   0.057   6.652 -0.3356 -0.4918 -0.2574
  188SAPI   O3121615   3.159  -0.023   6.836  0.5771  0.2755  0.2809
  188SAPI   C3121616   3.156  -0.161   6.837 -0.2380  0.1074 -0.5640
  188SAPI   O3221617   3.209  -0.241   6.765  0.4294 -0.4431  0.0182
  188SAPI   C3221618   3.067  -0.202   6.956 -0.1224 -0.1382 -0.7259
  188SAPI   H2X21619   3.007  -0.287   6.917  1.3429 -1.6469  0.2329
  188SAPI   H2Y21620   3.001  -0.118   6.988 -0.6433 -0.4654 -0.9253
  188SAPI   C2321621   3.291   0.223   7.292 -0.1101  0.1113  0.4578
  188SAPI   H3R21622   3.181   0.207   7.297 -0.2018 -0.6324 -2.5510
  188SAPI   H3S21623   3.299   0.332   7.271  0.5163  0.1423  0.8158
  188SAPI   C2421624   3.363   0.180   7.423 -0.0667 -0.2106 -0.1574
  188SAPI   H4R21625   3.332   0.250   7.503 -1.8474 -1.9153  0.7147
  188SAPI   H4S21626   3.473   0.197   7.430  0.0741 -1.2460  0.2921
  188SAPI   C2521627   3.308   0.050   7.463  0.5106  0.5313  0.4247
  188SAPI   H5R21628   3.204   0.035   7.428  1.0160 -2.5823 -0.0604
  188SAPI   C2621629   3.357  -0.051   7.534 -0.2010 -0.4503 -0.8563
  188SAPI   H6R21630   3.304  -0.145   7.556  1.0075 -0.3234  3.6185
  188SAPI   C2721631   3.494  -0.034   7.601 -0.4221  1.5124 -0.8755
  188SAPI   H7R21632   3.535   0.069   7.591  1.4294  0.9314  0.1790
  188SAPI   H7S21633   3.568  -0.099   7.549  0.4884  0.8279  1.1433
  188SAPI   C2821634   3.509  -0.074   7.747  0.2896 -0.3504 -0.2963
  188SAPI   H8R21635   3.511  -0.182   7.769 -1.4881 -0.7902 -1.9813
  188SAPI   C2921636   3.513   0.012   7.852  0.8798  0.2540 -0.6463
  188SAPI   H9R21637   3.531  -0.029   7.953  1.3497 -0.1086 -0.8771
  188SAPI  C21021638   3.513   0.163   7.861 -0.5312  0.8719  0.3756
  188SAPI  H10R21639   3.488   0.195   7.758 -0.8365 -2.2485 -0.6177
  188SAPI  H10S21640   3.618   0.193   7.883 -0.2919 -0.2056  0.7270
  188SAPI  C21121641   3.428   0.230   7.961  0.1881  0.1793 -0.5089
  188SAPI  H11R21642   3.329   0.257   7.922 -0.3914  0.3894  1.0481
  188SAPI  C21221643   3.468   0.270   8.091  0.3426 -0.7167  0.0129
  188SAPI  H12R21644   3.402   0.324   8.160  0.9611  1.3030 -0.8979
  188SAPI  C21321645   3.604   0.232   8.151 -0.2199  0.7833  0.4973
  188SAPI  H13R21646   3.655   0.325   8.185  0.4508  0.5582  0.1351
  188SAPI  H13S21647   3.674   0.192   8.074 -0.7202  0.3386  0.2709
  188SAPI  C21421648   3.585   0.130   8.259 -0.1656  0.2248 -0.0634
  188SAPI  H14R21649   3.490   0.076   8.272  0.2316 -0.5058 -0.1543
  188SAPI  C21521650   3.687   0.094   8.333  0.0789 -0.5025 -0.5200
  188SAPI  H15R21651   3.669   0.025   8.417  1.3110 -2.2381 -1.6413
  188SAPI  C21621652   3.829   0.151   8.324 -0.0898 -0.2060  0.0156
  188SAPI  H16R21653   3.840   0.250   8.275 -0.4114 -1.5722 -3.0894
  188SAPI  H16S21654   3.885   0.074   8.267 -0.4256  0.0324 -0.6580
  188SAPI  C21721655   3.884   0.167   8.467  0.4404 -0.1541 -0.7447
  188SAPI  H17R21656   3.993   0.160   8.448  1.1490  2.8338  1.5616
  188SAPI  H17S21657   3.853   0.082   8.532 -0.7551  0.1917 -0.8431
  188SAPI  C21821658   3.872   0.307   8.535  0.9297  0.4825  0.7357
  188SAPI  H18R21659   3.766   0.322   8.564  1.0429  2.0989  0.4260
  188SAPI  H18S21660   3.899   0.392   8.468 -3.6833  2.5158  1.0888
  188SAPI  C21921661   3.954   0.322   8.664  0.6850  0.1233  0.4592
  188SAPI  H19R21662   4.061   0.336   8.638  0.1062 -0.5788 -2.6435
  188SAPI  H19S21663   3.945   0.224   8.716  2.0212 -0.4697 -0.3585
  188SAPI  C22021664   3.906   0.438   8.753 -0.1095  0.2481 -0.0170
  188SAPI  H20R21665   3.796   0.427   8.755 -0.2824  1.9119  0.3463
  188SAPI  H20S21666   3.938   0.533   8.706  1.2398 -0.4626 -0.6179
  188SAPI  H20T21667   3.948   0.429   8.856 -1.5686  3.7762  1.0306
  188SAPI   C3321668   3.149  -0.259   7.080  0.1537  0.2519 -0.3153
  188SAPI   H3X21669   3.218  -0.181   7.120  1.4165 -2.0831  2.4081
  188SAPI   H3Y21670   3.214  -0.343   7.048  0.3989 -0.4867  1.9234
  188SAPI   C3421671   3.048  -0.309   7.181 -0.7236 -0.4103  0.3487
  188SAPI   H4X21672   3.006  -0.406   7.149  0.0020 -0.4202 -0.6240
  188SAPI   H4Y21673   2.971  -0.231   7.203 -1.9479 -1.9400  1.7068
  188SAPI   C3521674   3.116  -0.324   7.317  0.6806 -0.1524  0.3814
  188SAPI   H5X21675   3.140  -0.224   7.359 -1.3741 -0.2420  1.9348
  188SAPI   H5Y21676   3.202  -0.394   7.308  0.4146 -0.4305 -0.0090
  188SAPI   C3621677   3.010  -0.379   7.420 -0.9879  0.1574 -0.4178
  188SAPI   H6X21678   2.977  -0.479   7.385 -1.6205 -0.2952  1.3794
  188SAPI   H6Y21679   2.920  -0.314   7.418  0.3609  2.1276 -0.7918
  188SAPI   C3721680   3.071  -0.398   7.567 -0.3914 -0.6611 -0.3158
  188SAPI   H7X21681   2.999  -0.455   7.630 -0.0931 -0.2165  0.4305
  188SAPI   H7Y21682   3.089  -0.298   7.613 -2.5247 -0.5696  0.4264
  188SAPI   C3821683   3.211  -0.463   7.579  0.0371 -0.1861  0.2666
  188SAPI   H8X21684   3.283  -0.401   7.523  0.9330 -3.5438 -2.7082
  188SAPI   H8Y21685   3.214  -0.561   7.527 -1.7990 -0.3470  0.3728
  188SAPI   C3921686   3.261  -0.478   7.720 -0.1922  0.5890 -0.3629
  188SAPI   H9X21687   3.191  -0.540   7.780  1.8328 -1.3480  0.1565
  188SAPI   H9Y21688   3.269  -0.383   7.779 -0.6680  0.1035  0.5122
  188SAPI  C31021689   3.401  -0.536   7.730 -0.9693 -0.0799 -0.0862
  188SAPI  H10X21690   3.465  -0.474   7.664 -2.3849  2.8166  1.0849
  188SAPI  H10Y21691   3.389  -0.643   7.705 -1.7610 -0.5145  1.9789
  188SAPI  C31121692   3.443  -0.521   7.881 -0.2861 -0.5477 -0.5191
  188SAPI  H11X21693   3.367  -0.556   7.954 -0.7023 -0.1808 -0.7736
  188SAPI  H11Y21694   3.474  -0.417   7.906  1.5647 -1.0438 -0.5573
  188SAPI  C31221695   3.567  -0.612   7.912 -0.3544 -0.1909  0.1597
  188SAPI  H12X21696   3.657  -0.585   7.852 -0.0700 -1.2432  0.0914
  188SAPI  H12Y21697   3.553  -0.719   7.887 -1.8701  0.2953 -1.3493
  188SAPI  C31321698   3.596  -0.608   8.062  0.0209 -0.0239  0.2238
  188SAPI  H13X21699   3.505  -0.635   8.118 -1.1013 -0.5009 -1.7346
  188SAPI  H13Y21700   3.611  -0.504   8.097 -4.1347  0.9998 -0.5336
  188SAPI  C31421701   3.708  -0.697   8.119 -0.1199 -0.2029  0.2322
  188SAPI  H14X21702   3.684  -0.804   8.110 -1.1822 -0.1451  1.9144
  188SAPI  H14Y21703   3.715  -0.680   8.229  3.2650 -1.4039  0.3166
  188SAPI  C31521704   3.840  -0.680   8.045 -0.1302  0.0029 -0.2207
  188SAPI  H15X21705   3.869  -0.573   8.040  0.4681 -0.1727 -0.6129
  188SAPI  H15Y21706   3.824  -0.709   7.938 -0.2926 -2.9467  0.5239
  188SAPI  C31621707   3.944  -0.774   8.107  0.3795 -0.9679 -0.1353
  188SAPI  H16X21708   3.915  -0.879   8.085 -1.3039 -0.1577 -1.9971
  188SAPI  H16Y21709   3.941  -0.756   8.217  3.2099  0.9052 -0.2446
  188SAPI  C31721710   4.075  -0.747   8.052 -0.3247  0.8531  0.2675
  188SAPI  H17X21711   4.087  -0.636   8.054 -0.9111  0.9503 -0.8048
  188SAPI  H17Y21712   4.078  -0.780   7.946 -1.0979  1.8337 -0.0796
  188SAPI  C31821713   4.193  -0.806   8.122  0.5660 -0.3658  0.2484
  188SAPI  H18X21714   4.200  -0.916   8.107 -0.0503 -0.4969  0.8690
  188SAPI  H18Y21715   4.194  -0.777   8.229  0.0727  2.5910 -0.4584
  188SAPI  H18Z21716   4.289  -0.778   8.073  0.1452  2.0821  0.7439
  189POPC     N21717   3.831   1.157  11.192  0.2509  0.2339 -0.4218
  189POPC   C1221718   3.817   1.101  11.048  1.1588 -0.5287 -0.3141
  189POPC  H12A21719   3.725   1.045  11.039 -0.3354  1.6486  0.5084
  189POPC  H12B21720   3.904   1.041  11.027  1.2427 -0.8948  0.9640
  189POPC   C1321721   3.965   1.232  11.203 -0.1718  0.8256  0.3373
  189POPC  H13A21722   4.051   1.177  11.167  0.1210 -0.5769  2.9801
  189POPC  H13B21723   3.957   1.325  11.149 -3.9454 -0.1540 -1.1686
  189POPC  H13C21724   3.984   1.254  11.306 -1.8826 -1.0571  1.1257
  189POPC   C1421725   3.714   1.255  11.215  0.2897 -0.1207  0.2860
  189POPC  H14A21726   3.710   1.339  11.148 -1.6748  0.2084  0.7485
  189POPC  H14B21727   3.621   1.201  11.218  0.5365 -0.6084 -0.6186
  189POPC  H14C21728   3.731   1.313  11.305 -0.0378 -2.0450  1.6482
  189POPC   C1521729   3.830   1.053  11.294 -0.0522 -0.1527 -0.2615
  189POPC  H15A21730   3.817   1.101  11.390 -0.5132  1.0163 -0.8804
  189POPC  H15B21731   3.917   0.990  11.304 -0.2807 -0.5769 -0.9073
  189POPC  H15C21732   3.734   1.005  11.291 -0.8141  1.3085 -0.4438
  189POPC   C1121733   3.802   1.205  10.931  0.2272  1.1478  0.4584
  189POPC  H11A21734   3.819   1.145  10.839  0.7039 -1.0494  1.9156
  189POPC  H11B21735   3.889   1.273  10.945  1.9302 -0.4935 -1.4660
  189POPC     P21736   3.544   1.205  10.882 -0.0010 -0.0484  0.0571
  189POPC   O1321737   3.442   1.256  10.977  0.0171  0.6780  0.1540
  189POPC   O1421738   3.564   1.059  10.891 -0.7577  0.1082  0.2926
  189POPC   O1221739   3.681   1.278  10.914 -0.3290  0.0005 -0.6062
  189POPC   O1121740   3.518   1.238  10.734  0.6955 -0.2939 -0.2436
  189POPC    C121741   3.565   1.359  10.673  0.1996  0.5940  0.7005
  189POPC    HA21742   3.675   1.374  10.683  0.0175  0.5472  3.3275
  189POPC    HB21743   3.516   1.452  10.708 -0.7739  0.7469 -0.9851
  189POPC    C221744   3.545   1.358  10.515  0.4000  0.0106  0.3198
  189POPC    HS21745   3.606   1.435  10.463  1.2329 -0.0141  1.2259
  189POPC   O2121746   3.406   1.357  10.478  0.3095 -0.3416 -0.0012
  189POPC   C2121747   3.347   1.479  10.481  0.0753 -0.6917  0.4264
  189POPC   O2221748   3.397   1.587  10.515 -0.5989  0.6768  0.1304
  189POPC   C2221749   3.203   1.465  10.433  0.0914 -0.8736 -0.1242
  189POPC   H2R21750   3.136   1.518  10.504  0.7936  1.7703 -1.3004
  189POPC   H2S21751   3.167   1.363  10.408 -1.4145 -0.3566 -0.1771
  189POPC    C321752   3.625   1.237  10.452  0.2717  0.7593  0.2832
  189POPC    HX21753   3.571   1.144  10.483 -1.2445  0.9296 -1.6447
  189POPC    HY21754   3.729   1.227  10.488  0.9415  1.6233 -1.3341
  189POPC   O3121755   3.624   1.244  10.305 -0.4136  0.5260 -0.3911
  189POPC   C3121756   3.730   1.308  10.249  0.9373  0.0526  0.0221
  189POPC   O3221757   3.809   1.373  10.316 -0.1899 -0.1881  0.1268
  189POPC   C3221758   3.744   1.285  10.100 -0.3043 -0.2875  0.5810
  189POPC   H2X21759   3.796   1.188  10.090 -0.1089 -0.3476  1.8999
  189POPC   H2Y21760   3.812   1.365  10.062  0.3302 -0.8353  0.5557
  189POPC   C2321761   3.198   1.543  10.300  0.1037 -0.4764 -0.0889
  189POPC   H3R21762   3.245   1.642  10.316 -1.8408  0.3659  0.7187
  189POPC   H3S21763   3.091   1.550  10.268  0.5534  0.3544 -1.5461
  189POPC   C2421764   3.281   1.471  10.185  0.0852  0.1953 -0.7321
  189POPC   H4R21765   3.286   1.361  10.203 -1.8439  0.2327  0.1653
  189POPC   H4S21766   3.387   1.507  10.189 -0.1612  0.8828  2.6453
  189POPC   C2521767   3.218   1.518  10.052 -0.0986 -0.4455 -0.7905
  189POPC   H5R21768   3.262   1.619  10.047 -0.7561 -0.1890 -1.7491
  189POPC   H5S21769   3.107   1.530  10.053 -0.0270  1.2019 -3.2050
  189POPC   C2621770   3.259   1.448   9.930 -0.1644  0.9862  0.9591
  189POPC   H6R21771   3.240   1.339   9.941  0.9329  0.8927  2.1216
  189POPC   H6S21772   3.370   1.454   9.921 -0.1988  0.8682  0.4275
  189POPC   C2721773   3.199   1.498   9.795 -0.7544  0.1387 -0.1010
  189POPC   H7R21774   3.214   1.607   9.784 -2.2412  0.2949 -0.8358
  189POPC   H7S21775   3.088   1.489   9.798 -0.8282  1.1257  1.3019
  189POPC   C2821776   3.250   1.415   9.676  0.0286 -0.7109  0.0276
  189POPC   H8R21777   3.221   1.309   9.687 -1.9953 -0.0736  1.5646
  189POPC   H8S21778   3.360   1.434   9.678 -0.0558 -0.2043  0.2311
  189POPC   C2921779   3.187   1.469   9.551 -0.1314 -0.6172  0.4195
  189POPC   H9121780   3.077   1.467   9.556 -0.0843 -1.2261  1.9771
  189POPC  C21021781   3.254   1.523   9.443  0.3534 -0.0795 -0.3565
  189POPC  H10121782   3.190   1.541   9.355 -1.6253  0.2366  1.0619
  189POPC  C21121783   3.404   1.538   9.425  0.0862  0.1720 -0.6168
  189POPC  H11R21784   3.464   1.546   9.518  0.8129 -1.2117 -0.9358
  189POPC  H11S21785   3.415   1.632   9.367 -0.6369  0.6383 -0.0177
  189POPC  C21221786   3.444   1.406   9.354 -0.0800  0.4302 -0.0218
  189POPC  H12R21787   3.385   1.387   9.262 -1.5288  1.8151  0.5779
  189POPC  H12S21788   3.418   1.321   9.421 -0.2598 -1.9313 -2.8511
  189POPC  C21321789   3.594   1.410   9.313  0.1390  0.3241  0.0609
  189POPC  H13R21790   3.628   1.306   9.294 -1.8534 -0.1330 -1.3845
  189POPC  H13S21791   3.656   1.447   9.397  1.1846 -0.4243 -0.3603
  189POPC  C21421792   3.628   1.493   9.187  0.1693  0.8972 -0.0238
  189POPC  H14R21793   3.739   1.486   9.188  0.0822 -1.0000  1.0069
  189POPC  H14S21794   3.602   1.600   9.200  3.1243  1.7045  0.0599
  189POPC  C21521795   3.578   1.427   9.060  0.3986  0.2167  0.1401
  189POPC  H15R21796   3.468   1.442   9.056  0.4104  0.1307 -0.8286
  189POPC  H15S21797   3.607   1.320   9.058  1.0202  0.3873 -0.5166
  189POPC  C21621798   3.637   1.502   8.939  0.3114  0.4514  0.0353
  189POPC  H16R21799   3.734   1.454   8.913 -1.5766 -2.5676 -2.0634
  189POPC  H16S21800   3.660   1.607   8.969  0.5667  0.2432  0.5836
  189POPC  C21721801   3.566   1.471   8.804  0.3153  0.0627 -0.7876
  189POPC  H17R21802   3.469   1.525   8.809  0.8380  1.0467 -1.0770
  189POPC  H17S21803   3.558   1.360   8.795 -0.3228  0.2683 -3.8004
  189POPC  C21821804   3.650   1.522   8.688  0.2155 -0.3678  0.5082
  189POPC  H18R21805   3.754   1.483   8.695 -0.3399 -1.8268  0.9177
  189POPC  H18S21806   3.668   1.632   8.692 -0.7462 -0.1096 -1.1915
  189POPC  H18T21807   3.607   1.474   8.598  0.9503 -4.9312  2.3031
  189POPC   C3321808   3.614   1.271  10.020 -0.0751 -1.5016 -1.0939
  189POPC   H3X21809   3.554   1.355  10.060  1.3106 -0.7947 -0.4303
  189POPC   H3Y21810   3.561   1.175  10.037  1.1259 -2.0555 -0.3163
  189POPC   C3421811   3.632   1.285   9.872 -0.0381 -0.4775 -1.4236
  189POPC   H4X21812   3.691   1.374   9.843  0.1472 -0.1956 -0.2355
  189POPC   H4Y21813   3.540   1.294   9.810  0.3108  1.2025 -1.7391
  189POPC   C3521814   3.713   1.167   9.814 -0.2081 -0.0840  0.0977
  189POPC   H5X21815   3.655   1.073   9.824  0.1020 -0.4469 -1.2723
  189POPC   H5Y21816   3.803   1.150   9.877  0.4040  1.6633 -0.2402
  189POPC   C3621817   3.740   1.184   9.663  0.7480  0.0920 -0.4402
  189POPC   H6X21818   3.771   1.290   9.651 -1.6686  1.1897  2.0436
  189POPC   H6Y21819   3.643   1.168   9.611  1.0602  2.7203 -2.0011
  189POPC   C3721820   3.856   1.109   9.610 -1.1608 -0.2004 -0.0530
  189POPC   H7X21821   3.813   1.007   9.606 -1.5784 -0.2248  2.7341
  189POPC   H7Y21822   3.947   1.103   9.674 -1.7288  1.9795  1.0782
  189POPC   C3821823   3.901   1.163   9.475 -0.2632 -0.6294  0.2374
  189POPC   H8X21824   3.945   1.263   9.497  0.7027 -1.3981  2.0882
  189POPC   H8Y21825   3.811   1.185   9.413 -0.2504  0.9945  0.7366
  189POPC   C3921826   4.003   1.080   9.397 -0.0252  0.0093  0.4276
  189POPC   H9X21827   3.991   0.970   9.405 -1.8797  0.0813 -0.7259
  189POPC   H9Y21828   4.096   1.093   9.455 -0.9394 -0.3240  2.0278
  189POPC  C31021829   4.022   1.120   9.246 -0.0275  0.5539 -0.2803
  189POPC  H10X21830   3.927   1.153   9.199 -0.6041  0.8617  1.0417
  189POPC  H10Y21831   4.051   1.033   9.184  0.2590  0.9697 -0.7402
  189POPC  C31121832   4.138   1.212   9.202 -0.2322  0.6603  0.6094
  189POPC  H11X21833   4.226   1.202   9.269  0.0420  1.6442  0.4206
  189POPC  H11Y21834   4.096   1.313   9.224  0.9043  0.9502  1.5239
  189POPC  C31221835   4.193   1.186   9.064  0.0092 -0.0404  0.2986
  189POPC  H12X21836   4.256   1.097   9.044  3.0785  1.9249  0.5807
  189POPC  H12Y21837   4.273   1.260   9.040 -0.7438  0.8420  0.4391
  189POPC  C31321838   4.092   1.195   8.948  0.5504  0.0341  0.1853
  189POPC  H13X21839   4.045   1.295   8.965 -0.0443 -0.2599  0.3086
  189POPC  H13Y21840   4.014   1.117   8.963  1.3209 -0.5344  1.3101
  189POPC  C31421841   4.164   1.195   8.809  0.4029  0.1075  0.0714
  189POPC  H14X21842   4.108   1.115   8.755  1.6018 -0.2795 -0.6250
  189POPC  H14Y21843   4.264   1.150   8.822  0.7867  1.5019  2.4705
  189POPC  C31521844   4.176   1.331   8.739  0.4338  0.4445  0.2895
  189POPC  H15X21845   4.238   1.408   8.790  1.9592  0.6177 -1.7066
  189POPC  H15Y21846   4.069   1.364   8.735  0.2598  0.2275  2.2798
  189POPC  C31621847   4.237   1.322   8.598  0.0630 -0.0942  0.2979
  189POPC  H16X21848   4.199   1.235   8.540  0.3707 -0.0224 -0.0157
  189POPC  H16Y21849   4.347   1.306   8.604  0.2303  1.2972  1.5232
  189POPC  H16Z21850   4.218   1.413   8.537 -2.5754 -1.1639 -0.6465
  190POPC     N21851   4.262   3.946  11.115  0.3161  0.1049 -0.6556
  190POPC   C1221852   4.383   3.979  11.202 -0.4932  0.5274 -0.1556
  190POPC  H12A21853   4.437   3.889  11.225  1.2545  1.4067 -0.5855
  190POPC  H12B21854   4.363   4.017  11.301  2.9164  0.4055  0.6879
  190POPC   C1321855   4.304   3.882  10.987 -0.0309 -0.0546  0.1215
  190POPC  H13A21856   4.332   3.963  10.922  0.1840 -0.6807 -0.5776
  190POPC  H13B21857   4.389   3.815  10.987 -1.1518 -1.5246 -0.5722
  190POPC  H13C21858   4.214   3.837  10.949  0.2007 -0.2976 -0.1434
  190POPC   C1421859   4.171   3.853  11.196 -0.2429  0.0443  0.4009
  190POPC  H14A21860   4.083   3.826  11.139  0.3617 -0.6745 -0.2195
  190POPC  H14B21861   4.225   3.767  11.232 -0.9410  0.1376  1.7192
  190POPC  H14C21862   4.148   3.903  11.288  2.9126  1.3853  0.5831
  190POPC   C1521863   4.189   4.077  11.086 -0.5073  0.6650 -0.2112
  190POPC  H15A21864   4.271   4.136  11.049 -0.0616 -0.1413 -0.5231
  190POPC  H15B21865   4.157   4.128  11.176 -1.6568 -1.3857  0.6231
  190POPC  H15C21866   4.115   4.059  11.009  0.6585 -3.8516 -0.5383
  190POPC   C1121867   4.498   4.071  11.147 -0.2263 -0.0401  0.2382
  190POPC  H11A21868   4.540   4.006  11.068 -1.8155 -0.1025 -0.6182
  190POPC  H11B21869   4.560   4.097  11.236  0.8662 -1.5695 -0.0393
  190POPC     P21870   4.563   4.291  11.047  0.3258  0.2851  0.1810
  190POPC   O1321871   4.645   4.216  10.945 -0.2505  0.5215 -0.3311
  190POPC   O1421872   4.630   4.359  11.162  0.1182  0.0800  0.2725
  190POPC   O1221873   4.451   4.193  11.093  0.3200 -0.2091  0.1861
  190POPC   O1121874   4.480   4.406  10.978 -0.7980  0.5155  0.1417
  190POPC    C121875   4.398   4.376  10.867 -0.4736 -0.1018 -0.1498
  190POPC    HA21876   4.317   4.302  10.887 -2.3510  1.8125 -0.2936
  190POPC    HB21877   4.451   4.325  10.784  0.5758 -0.8463  0.9480
  190POPC    C221878   4.318   4.498  10.811 -0.8959  0.0461  0.3458
  190POPC    HS21879   4.267   4.466  10.718  0.4973 -0.0946 -0.3985
  190POPC   O2121880   4.412   4.607  10.786 -0.2757  0.1999 -0.4314
  190POPC   C2121881   4.512   4.589  10.698  0.2680  0.0482  0.5732
  190POPC   O2221882   4.523   4.498  10.617  0.2257  0.1789 -0.5790
  190POPC   C2221883   4.607   4.707  10.707  0.2429  0.4543 -0.0717
  190POPC   H2R21884   4.710   4.681  10.741  0.1758  0.5127  0.1825
  190POPC   H2S21885   4.570   4.786  10.776 -0.8747  0.4010 -0.5890
  190POPC    C321886   4.207   4.539  10.913 -0.1311 -0.1397 -0.7266
  190POPC    HX21887   4.264   4.584  10.997  2.3993  0.9838 -2.9031
  190POPC    HY21888   4.149   4.454  10.955 -1.3783 -0.5428 -3.1279
  190POPC   O3121889   4.118   4.637  10.854  0.1037  0.0598 -0.0351
  190POPC   C3121890   4.029   4.580  10.765 -0.8505 -0.3081 -0.4293
  190POPC   O3221891   4.026   4.463  10.731 -0.2055 -0.2767  0.0474
  190POPC   C3221892   3.931   4.690  10.715  0.3270 -0.3257 -0.6566
  190POPC   H2X21893   3.972   4.791  10.734 -1.7596  0.4202  0.0513
  190POPC   H2Y21894   3.834   4.674  10.766  0.8127 -0.2464  0.3291
  190POPC   C2321895   4.635   4.768  10.558  1.0401  0.9504 -0.2488
  190POPC   H3R21896   4.681   4.696  10.487 -0.3591  0.8140 -1.0476
  190POPC   H3S21897   4.720   4.835  10.584  0.9017  0.8582  0.4702
  190POPC   C2421898   4.513   4.838  10.514  0.1586  0.4533 -0.5785
  190POPC   H4R21899   4.545   4.904  10.430  0.8684  0.0070 -0.6624
  190POPC   H4S21900   4.466   4.900  10.593 -2.0337 -3.0504  1.1272
  190POPC   C2521901   4.404   4.751  10.467  0.1443  0.3849  0.7861
  190POPC   H5R21902   4.342   4.728  10.557  0.7071 -0.0367  1.0723
  190POPC   H5S21903   4.451   4.660  10.424  0.0148  1.0412 -0.8095
  190POPC   C2621904   4.314   4.815  10.363  0.0261  0.6885 -0.2478
  190POPC   H6R21905   4.269   4.912  10.396 -0.2410 -0.2960  2.5496
  190POPC   H6S21906   4.232   4.740  10.358 -0.4542  1.1363  0.5660
  190POPC   C2721907   4.366   4.829  10.224  0.3421  0.0076  1.3200
  190POPC   H7R21908   4.381   4.727  10.183  1.6960  1.1863 -1.3902
  190POPC   H7S21909   4.469   4.871  10.225  0.9704 -1.4480  2.2316
  190POPC   C2821910   4.262   4.905  10.133  0.3021 -0.0098  0.4535
  190POPC   H8R21911   4.164   4.863  10.163 -0.5343  1.4978 -0.0796
  190POPC   H8S21912   4.275   4.868  10.029  1.6310  2.2217 -0.2511
  190POPC   C2921913   4.267   5.055  10.150 -1.4702 -0.2240  0.7521
  190POPC   H9121914   4.247   5.087  10.253  3.5220  2.4008  1.2111
  190POPC  C21021915   4.300   5.148  10.061 -0.1719 -0.0288  0.5797
  190POPC  H10121916   4.321   5.251  10.094  0.1425 -0.1495  0.7592
  190POPC  C21121917   4.335   5.120   9.917  0.4323  0.6475 -0.1791
  190POPC  H11R21918   4.276   5.032   9.885 -0.1730  1.1690 -0.5260
  190POPC  H11S21919   4.442   5.096   9.899  0.2193  1.0811 -2.3092
  190POPC  C21221920   4.276   5.221   9.819  0.3089 -0.5669  0.1321
  190POPC  H12R21921   4.325   5.320   9.819 -0.7140 -0.0357  1.1179
  190POPC  H12S21922   4.173   5.248   9.851 -0.1422 -2.7364  0.7091
  190POPC  C21321923   4.270   5.165   9.673  0.0728  0.2080 -0.0324
  190POPC  H13R21924   4.190   5.089   9.661 -0.4771  0.4513  1.8106
  190POPC  H13S21925   4.370   5.120   9.656 -0.3316 -0.3871 -0.8772
  190POPC  C21421926   4.253   5.286   9.576 -0.1485 -0.6138  0.8242
  190POPC  H14R21927   4.315   5.377   9.589  1.8730 -1.7516 -0.3667
  190POPC  H14S21928   4.150   5.316   9.605 -0.6874  0.3190 -1.7336
  190POPC  C21521929   4.271   5.254   9.427 -0.1672  0.1863 -0.7040
  190POPC  H15R21930   4.281   5.348   9.368 -0.9311 -0.4726 -1.9265
  190POPC  H15S21931   4.184   5.193   9.395 -1.0702  1.1884 -0.2005
  190POPC  C21621932   4.393   5.168   9.392 -0.2231 -0.3530 -0.5543
  190POPC  H16R21933   4.371   5.061   9.416 -0.5923  0.2709  2.2276
  190POPC  H16S21934   4.477   5.204   9.454  0.2024 -1.8905 -0.1826
  190POPC  C21721935   4.432   5.171   9.244  0.0525 -0.7347 -0.1586
  190POPC  H17R21936   4.496   5.083   9.225 -2.0809 -2.2469 -0.6684
  190POPC  H17S21937   4.494   5.261   9.223  0.0744 -0.7169 -0.0229
  190POPC  C21821938   4.314   5.181   9.149 -0.5417 -0.4257 -0.3443
  190POPC  H18R21939   4.356   5.202   9.049  0.2138  0.6038  0.1710
  190POPC  H18S21940   4.241   5.261   9.172  0.0685  1.3635 -3.9871
  190POPC  H18T21941   4.258   5.085   9.140 -2.1751  0.6761 -3.5881
  190POPC   C3321942   3.893   4.673  10.568  0.2286 -0.5715  1.0811
  190POPC   H3X21943   3.852   4.573  10.540  0.9804 -0.6351  0.1464
  190POPC   H3Y21944   3.993   4.674  10.519 -0.4584  1.2398 -0.3669
  190POPC   C3421945   3.790   4.773  10.514  0.5714 -0.5561  0.8642
  190POPC   H4X21946   3.818   4.880  10.527 -1.0826 -0.0375  0.4938
  190POPC   H4Y21947   3.710   4.756  10.590  0.8227 -0.1445  1.2273
  190POPC   C3521948   3.734   4.758  10.365 -0.2729 -0.3072  0.5274
  190POPC   H5X21949   3.664   4.842  10.349  0.1458  0.0626  0.6345
  190POPC   H5Y21950   3.685   4.661  10.341 -2.3315  0.8837 -0.3224
  190POPC   C3621951   3.849   4.775  10.258 -0.5468 -0.2797  0.2307
  190POPC   H6X21952   3.912   4.685  10.248 -1.3377 -0.7008 -1.2404
  190POPC   H6Y21953   3.910   4.859  10.298  0.2404 -0.6895 -0.0984
  190POPC   C3721954   3.792   4.790  10.116  0.4721 -0.0368  0.0540
  190POPC   H7X21955   3.749   4.891  10.125  1.7049  0.5330 -0.2096
  190POPC   H7Y21956   3.725   4.706  10.088 -0.4338  1.1783 -1.6374
  190POPC   C3821957   3.909   4.794  10.014 -0.7134 -0.2182 -0.2862
  190POPC   H8X21958   3.977   4.707  10.025 -0.0973  0.5195  2.4055
  190POPC   H8Y21959   3.971   4.879  10.048 -1.4285  0.2443 -0.1294
  190POPC   C3921960   3.864   4.817   9.868  0.0153 -0.6923 -0.0730
  190POPC   H9X21961   3.761   4.859   9.861  0.7186  1.0640 -0.4878
  190POPC   H9Y21962   3.871   4.718   9.817  0.8339  0.2705 -1.9345
  190POPC  C31021963   3.950   4.921   9.796  0.3112  0.0591  0.2032
  190POPC  H10X21964   4.059   4.905   9.813  0.9152  2.8487 -0.5882
  190POPC  H10Y21965   3.926   5.019   9.843 -2.4980  0.3082 -1.5453
  190POPC  C31121966   3.918   4.927   9.653 -0.2410 -0.2624 -0.3587
  190POPC  H11X21967   3.952   5.024   9.612 -0.1479  0.2898  0.9644
  190POPC  H11Y21968   3.807   4.924   9.645 -0.6706  2.7270  2.3660
  190POPC  C31221969   3.989   4.811   9.575  0.0604 -0.3973 -0.0154
  190POPC  H12X21970   3.946   4.715   9.610  0.2138 -0.2728  0.5233
  190POPC  H12Y21971   4.098   4.824   9.585  0.3906 -1.2890 -1.9094
  190POPC  C31321972   3.964   4.819   9.417 -0.0163 -0.7363 -0.1231
  190POPC  H13X21973   4.012   4.734   9.364  0.8098 -0.3532  0.0004
  190POPC  H13Y21974   4.010   4.911   9.374 -0.6484  0.0870  0.9252
  190POPC  C31421975   3.814   4.818   9.375  0.0036  0.1366  0.2996
  190POPC  H14X21976   3.775   4.920   9.391  0.8344  0.2967  1.3707
  190POPC  H14Y21977   3.761   4.747   9.442 -1.5379  0.3788 -0.6013
  190POPC  C31521978   3.790   4.784   9.231  0.2238 -0.3565  0.6876
  190POPC  H15X21979   3.818   4.677   9.223 -0.2045 -0.4104 -0.3179
  190POPC  H15Y21980   3.863   4.837   9.166  0.0176 -1.4074 -0.4444
  190POPC  C31621981   3.650   4.810   9.170 -1.3093  0.5571 -0.2262
  190POPC  H16X21982   3.654   4.793   9.060 -0.7952 -0.4898 -0.0595
  190POPC  H16Y21983   3.618   4.916   9.166 -2.3242  0.3494  1.5607
  190POPC  H16Z21984   3.572   4.742   9.208 -1.2503  0.1185 -0.8643
  191POPC     N21985   6.336   5.364   6.410 -0.3858 -0.2509 -0.0942
  191POPC   C1221986   6.369   5.435   6.279 -0.3461 -0.0514  0.1124
  191POPC  H12A21987   6.280   5.476   6.234 -0.5326 -0.8696 -0.2737
  191POPC  H12B21988   6.421   5.358   6.225 -0.3148 -1.9292  2.6560
  191POPC   C1321989   6.237   5.443   6.491  0.2874  0.6369 -0.5971
  191POPC  H13A21990   6.148   5.472   6.438  0.2683 -0.4159 -1.1740
  191POPC  H13B21991   6.208   5.392   6.581 -0.7133  0.5307 -0.9716
  191POPC  H13C21992   6.283   5.533   6.531  0.2720 -0.1632  1.3062
  191POPC   C1421993   6.273   5.239   6.380 -0.6574  0.0762 -0.2326
  191POPC  H14A21994   6.339   5.178   6.319  1.3588  0.2319  1.6966
  191POPC  H14B21995   6.231   5.171   6.453 -2.9880  0.9113 -0.6943
  191POPC  H14C21996   6.183   5.244   6.320  0.3137  0.2067 -1.7416
  191POPC   C1521997   6.463   5.342   6.487  0.6161  0.2871  0.5714
  191POPC  H15A21998   6.438   5.289   6.578 -0.9146  0.2881  0.1798
  191POPC  H15B21999   6.505   5.438   6.515  0.7349  0.6800 -0.8986
  191POPC  H15C22000   6.539   5.289   6.431  0.5983  1.4417 -0.5984
  191POPC   C1122001   6.460   5.555   6.288  0.3816  0.1539 -0.3832
  191POPC  H11A22002   6.487   5.583   6.184 -1.0291  0.7322 -0.6197
  191POPC  H11B22003   6.556   5.539   6.342 -0.1632 -0.0580  0.5399
  191POPC     P22004   6.375   5.804   6.280  0.2003 -0.2640  0.0268
  191POPC   O1322005   6.242   5.811   6.209  0.7551 -0.0466 -0.5927
  191POPC   O1422006   6.496   5.821   6.198 -0.6287  0.0781  0.2617
  191POPC   O1222007   6.391   5.663   6.348  0.2841 -0.8342 -0.2175
  191POPC   O1122008   6.365   5.914   6.392  0.0793 -0.4852 -0.6107
  191POPC    C122009   6.480   5.928   6.485  0.7347 -0.1027 -0.2034
  191POPC    HA22010   6.493   6.033   6.521 -0.0933  0.8799 -2.6009
  191POPC    HB22011   6.576   5.892   6.443  0.6094 -0.6283 -0.0491
  191POPC    C222012   6.444   5.846   6.613 -0.1712 -0.1083  0.2381
  191POPC    HS22013   6.434   5.740   6.581  1.2378  0.9626 -4.5318
  191POPC   O2122014   6.330   5.892   6.684  0.1187 -0.1855 -0.4935
  191POPC   C2122015   6.235   5.804   6.703  0.7840 -0.1998  0.1994
  191POPC   O2222016   6.242   5.683   6.674  0.5784  0.0369 -0.3698
  191POPC   C2222017   6.105   5.868   6.745 -0.0576 -0.4010 -0.5953
  191POPC   H2R22018   6.029   5.841   6.669 -1.7147  0.9441  0.5128
  191POPC   H2S22019   6.115   5.979   6.743 -0.5005 -0.3514 -0.2612
  191POPC    C322020   6.562   5.841   6.715  0.0629 -1.2911 -0.1458
  191POPC    HX22021   6.577   5.949   6.731 -0.6867 -1.2067  0.0004
  191POPC    HY22022   6.649   5.794   6.663  1.9752  0.6823  1.1145
  191POPC   O3122023   6.523   5.776   6.838 -0.2989 -0.2739 -0.0017
  191POPC   C3122024   6.520   5.643   6.840  0.0430 -0.2593  0.5724
  191POPC   O3222025   6.578   5.560   6.771  0.2451 -0.1044 -0.7451
  191POPC   C3222026   6.435   5.606   6.963  0.2274 -0.2968 -0.2792
  191POPC   H2X22027   6.435   5.496   6.981 -4.7632 -0.5661 -0.6231
  191POPC   H2Y22028   6.333   5.624   6.925  0.7098  0.2479 -1.3377
  191POPC   C2322029   6.058   5.819   6.891  0.3257 -0.0065  0.6206
  191POPC   H3R22030   6.050   5.708   6.894  0.0236 -0.0178 -0.2062
  191POPC   H3S22031   5.957   5.863   6.906  0.7008  0.7152  1.0620
  191POPC   C2422032   6.154   5.863   7.000 -0.2620  0.1807  0.2957
  191POPC   H4R22033   6.169   5.973   7.004 -0.6158  0.2776 -0.7026
  191POPC   H4S22034   6.258   5.829   6.985  0.0928  0.9756  0.8910
  191POPC   C2522035   6.104   5.820   7.139 -0.0299  0.5205  0.2337
  191POPC   H5R22036   6.092   5.710   7.129  0.0283  0.3658  1.6750
  191POPC   H5S22037   6.001   5.855   7.157 -0.9107 -1.8024  0.0602
  191POPC   C2622038   6.196   5.874   7.247  0.8113  0.2529  1.1096
  191POPC   H6R22039   6.211   5.982   7.225 -1.7800  0.1996 -1.6381
  191POPC   H6S22040   6.296   5.829   7.230 -0.0918 -0.6365 -2.6106
  191POPC   C2722041   6.135   5.871   7.381 -0.0344 -0.4041 -0.4829
  191POPC   H7R22042   6.099   5.768   7.406 -1.7023 -0.0327 -1.2117
  191POPC   H7S22043   6.043   5.932   7.395  1.5758  2.0179  0.0548
  191POPC   C2822044   6.233   5.931   7.481  0.4050  0.4698  0.2918
  191POPC   H8R22045   6.241   6.040   7.459 -1.8048  0.2033 -2.4104
  191POPC   H8S22046   6.331   5.881   7.466  0.2768  0.6786 -1.4877
  191POPC   C2922047   6.194   5.908   7.626  0.5239  0.0630 -0.3247
  191POPC   H9122048   6.213   5.806   7.662  2.3855  0.0556 -1.2129
  191POPC  C21022049   6.146   5.994   7.715  0.0230 -0.7602  0.2874
  191POPC  H10122050   6.133   5.971   7.822  2.0345 -0.5251  0.6316
  191POPC  C21122051   6.111   6.143   7.685  0.1240  0.6236 -0.9881
  191POPC  H11R22052   6.043   6.152   7.598 -0.8517 -1.4196 -0.5168
  191POPC  H11S22053   6.206   6.199   7.689 -1.1423  2.8747 -0.6632
  191POPC  C21222054   6.034   6.203   7.801 -0.7251  0.7965 -0.0920
  191POPC  H12R22055   5.941   6.144   7.816 -1.2493  1.8025  0.7123
  191POPC  H12S22056   6.011   6.310   7.787  2.1066  1.2467 -2.2513
  191POPC  C21322057   6.118   6.198   7.926 -0.0953  0.5528  0.0066
  191POPC  H13R22058   6.220   6.235   7.901 -0.0682  0.2297 -0.3669
  191POPC  H13S22059   6.134   6.092   7.955  2.2237  0.4149 -1.4995
  191POPC  C21422060   6.051   6.267   8.044 -1.0427 -0.6661  0.4860
  191POPC  H14R22061   5.943   6.260   8.018 -0.4004 -2.4329 -2.1392
  191POPC  H14S22062   6.084   6.373   8.039  0.5160 -1.1664 -0.5748
  191POPC  C21522063   6.085   6.194   8.169 -0.6784 -0.6842 -0.2401
  191POPC  H15R22064   6.194   6.171   8.177 -0.8397 -1.7107 -0.9224
  191POPC  H15S22065   6.031   6.098   8.173 -0.9615 -0.5080  0.3275
  191POPC  C21622066   6.043   6.269   8.295 -0.3088 -0.3002 -0.6849
  191POPC  H16R22067   6.058   6.201   8.382 -0.5037  1.2000  0.5602
  191POPC  H16S22068   5.933   6.283   8.288 -0.1506  1.9855  0.5385
  191POPC  C21722069   6.110   6.408   8.328 -0.6174 -0.4987  0.3022
  191POPC  H17R22070   6.102   6.479   8.243  2.7324  0.5751  0.7328
  191POPC  H17S22071   6.220   6.397   8.337 -0.5180 -0.6394 -0.9267
  191POPC  C21822072   6.065   6.470   8.457  0.0287 -0.3594 -0.1679
  191POPC  H18R22073   6.072   6.411   8.551 -0.1727 -1.4923 -0.8536
  191POPC  H18S22074   5.956   6.492   8.451 -0.2428 -2.0362 -2.4219
  191POPC  H18T22075   6.108   6.569   8.485 -2.5380  0.5642  0.9245
  191POPC   C3322076   6.466   5.689   7.084 -0.2683 -0.3981 -0.4890
  191POPC   H3X22077   6.380   5.668   7.151 -0.1209  0.9697  0.1680
  191POPC   H3Y22078   6.453   5.797   7.063 -2.4523 -0.5127  0.0697
  191POPC   C3422079   6.604   5.663   7.141  0.0903  1.3519 -0.0402
  191POPC   H4X22080   6.680   5.691   7.065  1.4988  0.6788  1.0703
  191POPC   H4Y22081   6.616   5.555   7.164 -0.0137  1.3247 -0.1105
  191POPC   C3522082   6.624   5.718   7.281 -0.4202 -0.4371 -0.1257
  191POPC   H5X22083   6.587   5.823   7.284 -1.6044 -0.8357 -0.1688
  191POPC   H5Y22084   6.731   5.708   7.308  0.0261 -1.0252 -1.9495
  191POPC   C3622085   6.548   5.651   7.397 -0.6575  0.2074  0.1488
  191POPC   H6X22086   6.585   5.548   7.416  0.5948  0.4139 -1.0714
  191POPC   H6Y22087   6.437   5.648   7.387 -0.6427 -0.2196  0.0862
  191POPC   C3722088   6.584   5.714   7.537 -0.3851  0.5000 -0.2308
  191POPC   H7X22089   6.560   5.823   7.536  2.5011  1.2469  0.9829
  191POPC   H7Y22090   6.690   5.704   7.569 -0.1224 -0.3660 -1.3241
  191POPC   C3822091   6.501   5.656   7.661 -0.0533  0.0669  1.0206
  191POPC   H8X22092   6.516   5.546   7.667 -0.2650 -0.1360 -1.2927
  191POPC   H8Y22093   6.395   5.673   7.632 -0.0545  1.0370  1.5352
  191POPC   C3922094   6.518   5.728   7.793 -0.9751  0.1146 -0.2638
  191POPC   H9X22095   6.458   5.821   7.797  0.4504  1.0684 -0.5630
  191POPC   H9Y22096   6.626   5.749   7.805 -0.3933 -2.4508 -0.2644
  191POPC  C31022097   6.475   5.654   7.920  0.1740  0.6577  0.2465
  191POPC  H10X22098   6.553   5.575   7.925  1.3472  1.5814 -2.0197
  191POPC  H10Y22099   6.375   5.608   7.906  1.0671 -1.5514  0.6697
  191POPC  C31122100   6.472   5.732   8.051 -0.1125  0.3191 -0.7232
  191POPC  H11X22101   6.568   5.787   8.056  1.9621 -2.8673 -2.2086
  191POPC  H11Y22102   6.456   5.657   8.132 -0.0246 -0.2222 -1.2024
  191POPC  C31222103   6.359   5.830   8.073 -0.1023 -0.1035  0.5931
  191POPC  H12X22104   6.264   5.783   8.040 -0.9800  0.8943  1.6126
  191POPC  H12Y22105   6.361   5.916   8.003 -1.2487 -0.1207  0.5073
  191POPC  C31322106   6.346   5.885   8.213 -0.7012 -1.2219 -0.2141
  191POPC  H13X22107   6.365   5.797   8.277  1.9869 -0.8124 -0.3024
  191POPC  H13Y22108   6.246   5.934   8.214  0.7170  1.9339  0.3230
  191POPC  C31422109   6.458   5.983   8.258  0.2797  0.1740 -0.3992
  191POPC  H14X22110   6.497   6.037   8.168 -0.5407  0.8527 -0.3577
  191POPC  H14Y22111   6.536   5.920   8.305 -1.6110  0.1608  2.9877
  191POPC  C31522112   6.436   6.086   8.363  0.1020  0.2898 -1.1603
  191POPC  H15X22113   6.357   6.163   8.354 -0.1256  0.4990  1.6217
  191POPC  H15Y22114   6.522   6.151   8.389 -0.4196 -0.5649  3.7010
  191POPC  C31622115   6.406   6.021   8.498  0.3181  0.4788  0.0417
  191POPC  H16X22116   6.465   5.929   8.518 -0.2822  0.4002  1.5966
  191POPC  H16Y22117   6.305   5.973   8.496  0.9549 -1.1988  2.7940
  191POPC  H16Z22118   6.408   6.099   8.577  1.2154 -1.0763  1.6222
  192POPC     N22119   5.186   1.650   5.866 -0.3188 -0.1121 -0.1841
  192POPC   C1222120   5.154   1.680   6.011  0.8572 -0.5657 -0.8969
  192POPC  H12A22121   5.113   1.779   6.022  0.6577 -0.9082  2.5093
  192POPC  H12B22122   5.246   1.692   6.066 -0.2779  0.4856  0.8662
  192POPC   C1322123   5.068   1.669   5.784  0.6115 -0.1078  0.1657
  192POPC  H13A22124   4.982   1.606   5.804  1.0877 -0.9612 -0.4579
  192POPC  H13B22125   5.019   1.764   5.804 -0.6514 -1.0537  1.8240
  192POPC  H13C22126   5.092   1.661   5.680 -0.9813  1.3821 -0.3780
  192POPC   C1422127   5.296   1.743   5.820  0.1003 -0.4676  1.1050
  192POPC  H14A22128   5.317   1.715   5.718 -1.0789  2.0272  0.0913
  192POPC  H14B22129   5.254   1.843   5.820 -0.9706 -0.8873 -0.4792
  192POPC  H14C22130   5.390   1.739   5.874 -0.3216 -1.0756  1.8164
  192POPC   C1522131   5.236   1.512   5.854  0.0696  0.6807  0.6230
  192POPC  H15A22132   5.175   1.438   5.904 -0.8124  1.2486  0.4191
  192POPC  H15B22133   5.342   1.501   5.874  0.3916 -0.5961 -1.4639
  192POPC  H15C22134   5.236   1.480   5.751 -2.6694  0.5051  0.5921
  192POPC   C1122135   5.055   1.586   6.075 -0.3634 -0.0328  0.4545
  192POPC  H11A22136   4.954   1.596   6.031 -1.7091  1.9297  3.6492
  192POPC  H11B22137   5.039   1.637   6.172  0.3232  3.8117 -1.2685
  192POPC     P22138   5.206   1.406   6.182  0.3054 -0.2217  0.2293
  192POPC   O1322139   5.333   1.458   6.142  0.4619  0.2239  0.2914
  192POPC   O1422140   5.196   1.256   6.196  0.3829 -0.0207 -0.0768
  192POPC   O1222141   5.089   1.448   6.085 -0.4678  0.0008  0.3489
  192POPC   O1122142   5.175   1.479   6.314 -0.1424  0.1865  0.6102
  192POPC    C122143   5.072   1.449   6.401  0.6035 -0.5386 -0.0703
  192POPC    HA22144   5.093   1.351   6.450  4.1952  0.9198  1.6656
  192POPC    HB22145   4.972   1.439   6.354  0.1319  1.4554  0.3945
  192POPC    C222146   5.052   1.546   6.521  0.2149 -0.2777 -0.2518
  192POPC    HS22147   5.008   1.634   6.469  1.2210  0.0004 -0.6546
  192POPC   O2122148   5.180   1.570   6.584  0.4934  1.0515  0.2617
  192POPC   C2122149   5.191   1.681   6.644  1.0012  0.1580 -0.0834
  192POPC   O2222150   5.116   1.776   6.636  0.3139  0.2143 -1.0072
  192POPC   C2222151   5.308   1.680   6.735 -0.6065 -0.1503 -0.4445
  192POPC   H2R22152   5.348   1.783   6.729 -2.0119  0.4109 -0.3844
  192POPC   H2S22153   5.390   1.608   6.710  0.0024  0.3704  0.0136
  192POPC    C322154   4.954   1.479   6.624 -0.4628  0.0622 -0.5007
  192POPC    HX22155   4.999   1.394   6.679  0.1639  1.3559  1.0729
  192POPC    HY22156   4.861   1.437   6.580 -1.6128  1.1493  0.7856
  192POPC   O3122157   4.923   1.570   6.728 -0.6661  0.0371 -0.2145
  192POPC   C3122158   4.830   1.662   6.699 -0.0035  0.3726 -0.9023
  192POPC   O3222159   4.744   1.641   6.613  0.2132  0.3905 -0.0507
  192POPC   C3222160   4.836   1.780   6.791 -0.4160 -0.1115  0.0761
  192POPC   H2X22161   4.759   1.857   6.767 -0.2368  1.2655  3.3619
  192POPC   H2Y22162   4.934   1.825   6.767  0.9918 -1.6796  2.4992
  192POPC   C2322163   5.275   1.657   6.885 -0.3830  0.3342  0.7105
  192POPC   H3R22164   5.212   1.740   6.921  0.9674  1.7462 -0.0613
  192POPC   H3S22165   5.375   1.656   6.934  0.9989  2.1648 -1.7973
  192POPC   C2422166   5.222   1.524   6.908  0.0437 -0.4435  0.1119
  192POPC   H4R22167   5.286   1.443   6.865  1.4544  0.3222  0.6822
  192POPC   H4S22168   5.121   1.503   6.866 -0.3862  1.1248  0.3092
  192POPC   C2522169   5.214   1.495   7.062  0.4176  0.1067  0.3725
  192POPC   H5R22170   5.151   1.575   7.106  1.2809  0.5680  0.7748
  192POPC   H5S22171   5.311   1.518   7.110  1.7218  0.0476 -2.0894
  192POPC   C2622172   5.151   1.366   7.092  0.0291  0.4004 -0.3034
  192POPC   H6R22173   5.196   1.276   7.045  1.0962 -0.3537  1.9633
  192POPC   H6S22174   5.048   1.371   7.053  1.0156  0.8573 -3.0207
  192POPC   C2722175   5.133   1.337   7.247  0.6217  0.2082 -0.8666
  192POPC   H7R22176   5.075   1.243   7.258  1.2139 -0.2324 -1.4239
  192POPC   H7S22177   5.074   1.420   7.291 -1.3004 -1.8927  0.7394
  192POPC   C2822178   5.256   1.334   7.334  0.3051 -0.3081  0.2212
  192POPC   H8R22179   5.217   1.314   7.436 -2.2729 -0.1798 -0.6728
  192POPC   H8S22180   5.321   1.424   7.339  1.4674 -1.0153 -1.2703
  192POPC   C2922181   5.349   1.229   7.279  0.6314 -0.4199  0.2686
  192POPC   H9122182   5.388   1.262   7.182  0.2324 -0.5618  0.0571
  192POPC  C21022183   5.407   1.122   7.339  0.4145  0.3767 -0.2028
  192POPC  H10122184   5.478   1.056   7.287  2.2774  2.3932 -0.3509
  192POPC  C21122185   5.361   1.075   7.475 -0.2720 -0.4958 -0.4014
  192POPC  H11R22186   5.299   1.145   7.536 -2.0260 -3.3479  1.3230
  192POPC  H11S22187   5.453   1.048   7.531 -0.9178  0.8997  1.4424
  192POPC  C21222188   5.270   0.946   7.450 -0.1484 -0.5702 -0.6150
  192POPC  H12R22189   5.251   0.912   7.554  0.2498  0.2649 -0.2580
  192POPC  H12S22190   5.322   0.869   7.390  0.4983 -1.1911  0.6978
  192POPC  C21322191   5.123   0.982   7.406  0.4698 -0.0539  0.4411
  192POPC  H13R22192   5.118   1.028   7.305  0.5365  0.6523  0.7552
  192POPC  H13S22193   5.085   1.064   7.469  0.1023  0.2284 -0.1410
  192POPC  C21422194   5.035   0.855   7.417  0.4099  0.4554  0.2981
  192POPC  H14R22195   5.023   0.828   7.524 -0.4261  0.0402  0.1047
  192POPC  H14S22196   5.077   0.766   7.366 -1.0434  0.4975 -1.0549
  192POPC  C21522197   4.889   0.872   7.361  0.2078  1.1522  0.8670
  192POPC  H15R22198   4.831   0.777   7.363 -1.2769  2.0315  2.5230
  192POPC  H15S22199   4.898   0.884   7.251 -0.1230 -2.1561  0.3739
  192POPC  C21622200   4.815   0.987   7.422 -0.0503  0.2900  0.0448
  192POPC  H16R22201   4.710   0.978   7.387 -1.0749 -0.7839  3.0819
  192POPC  H16S22202   4.857   1.088   7.401 -0.2366  0.3959  0.1788
  192POPC  C21722203   4.783   0.968   7.571  0.7898 -0.1661 -0.0315
  192POPC  H17R22204   4.737   1.061   7.609  0.4557 -0.5833  0.6149
  192POPC  H17S22205   4.881   0.971   7.623  1.3475  3.4221 -1.0501
  192POPC  C21822206   4.709   0.845   7.620  0.1190  0.1537 -0.1046
  192POPC  H18R22207   4.763   0.755   7.584 -0.2730  0.5463 -1.7724
  192POPC  H18S22208   4.603   0.840   7.586 -0.1763 -0.6707  0.8801
  192POPC  H18T22209   4.706   0.840   7.731 -0.3180 -0.4851 -0.1355
  192POPC   C3322210   4.823   1.730   6.941 -0.3133 -0.5437 -0.3395
  192POPC   H3X22211   4.903   1.658   6.971 -0.3681 -0.4608  0.0111
  192POPC   H3Y22212   4.726   1.681   6.961 -0.5347  0.4055  1.0995
  192POPC   C3422213   4.823   1.847   7.040  0.3839  0.0474  0.0292
  192POPC   H4X22214   4.756   1.927   7.002  0.8967 -0.0305 -1.0876
  192POPC   H4Y22215   4.923   1.895   7.047  0.7396 -0.0637 -2.8473
  192POPC   C3522216   4.777   1.801   7.175 -0.3060 -0.0957  0.0664
  192POPC   H5X22217   4.847   1.723   7.213 -0.2213 -0.5723 -1.0320
  192POPC   H5Y22218   4.677   1.753   7.165 -0.0734 -0.6804  0.4777
  192POPC   C3622219   4.792   1.897   7.287 -0.2139 -0.3436 -0.5219
  192POPC   H6X22220   4.733   1.985   7.252  0.3552 -0.4494 -1.8144
  192POPC   H6Y22221   4.896   1.927   7.310  0.2449 -2.4546  0.3979
  192POPC   C3722222   4.736   1.838   7.417 -0.6319  0.0004  0.8969
  192POPC   H7X22223   4.821   1.791   7.471  0.8364  0.1909 -1.1233
  192POPC   H7Y22224   4.655   1.767   7.388  0.8283 -0.7476 -1.5966
  192POPC   C3822225   4.657   1.951   7.492 -0.6476  0.9313  0.6778
  192POPC   H8X22226   4.574   1.990   7.429 -2.5220  0.0968  2.4994
  192POPC   H8Y22227   4.736   2.029   7.496 -0.7954  1.2012 -1.0739
  192POPC   C3922228   4.599   1.916   7.638 -0.1376  0.1491  0.6709
  192POPC   H9X22229   4.536   1.825   7.633 -0.5557  0.3312  2.1176
  192POPC   H9Y22230   4.549   2.007   7.678 -2.0107 -0.7045  0.3712
  192POPC  C31022231   4.719   1.886   7.741  0.2425  0.3526 -0.3260
  192POPC  H10X22232   4.799   1.961   7.761  1.4128 -0.7755 -0.6051
  192POPC  H10Y22233   4.781   1.806   7.694  0.1206 -0.8959  1.5398
  192POPC  C31122234   4.664   1.818   7.870  0.5090 -0.2224  0.3609
  192POPC  H11X22235   4.597   1.733   7.848 -0.1583 -0.3282  2.5190
  192POPC  H11Y22236   4.606   1.894   7.927 -0.2098 -1.1966  0.9494
  192POPC  C31222237   4.784   1.769   7.957 -0.6228 -0.1770 -0.3619
  192POPC  H12X22238   4.858   1.849   7.977 -0.1185 -1.4971  4.3626
  192POPC  H12Y22239   4.839   1.689   7.902  0.3160 -2.1750  3.1785
  192POPC  C31322240   4.741   1.720   8.088 -0.1591  0.4409  0.2003
  192POPC  H13X22241   4.664   1.640   8.086  1.5760 -1.3440  1.3104
  192POPC  H13Y22242   4.689   1.802   8.144 -0.4827 -1.5961  3.1109
  192POPC  C31422243   4.859   1.670   8.176  0.3593 -0.1479 -0.4904
  192POPC  H14X22244   4.825   1.674   8.281  2.2247 -0.5725  0.1628
  192POPC  H14Y22245   4.940   1.747   8.177  0.4880 -0.2804  0.9742
  192POPC  C31522246   4.896   1.521   8.147  0.3270 -0.6424  0.1051
  192POPC  H15X22247   4.951   1.533   8.051 -1.3999  1.6436 -0.7052
  192POPC  H15Y22248   4.799   1.470   8.128 -0.1900  0.7486 -1.2773
  192POPC  C31622249   4.986   1.454   8.246  0.0024 -0.4989 -0.3827
  192POPC  H16X22250   5.007   1.347   8.225 -1.0813 -0.7460 -0.2907
  192POPC  H16Y22251   4.950   1.459   8.351 -0.7897  0.8169 -0.6912
  192POPC  H16Z22252   5.082   1.510   8.240  0.1598 -0.4614  1.7381
  193SOD    SOD22253   5.624   3.255   5.782  0.1972  0.0010  0.2740
  194SOD    SOD22254   1.648   1.445   2.006  0.0655 -0.4505  0.9842
  195SOD    SOD22255   5.169   1.696   0.816  0.5010  0.1254  1.1388
  196SOD    SOD22256   3.135   2.489   3.145 -0.1025  0.1660 -0.0160
  197SOD    SOD22257   2.972   5.540   4.226 -0.2294  0.1257 -0.0830
  198SOD    SOD22258   5.409   6.702   3.603 -0.3028 -0.2827 -0.0732
  199SOD    SOD22259   3.626   4.641  15.843  0.6650  0.2180  0.0636
  200SOD    SOD22260   3.628   0.729  11.094  0.1636 -0.6252 -0.0365
  201SOD    SOD22261   0.272   1.831  11.028  0.3579  0.4597 -0.1942
  202SOD    SOD22262   4.227   5.896  13.179 -0.4627  0.4411 -0.2231
  203SOD    SOD22263   4.785   0.534   0.165  0.0527 -0.1283 -0.5770
  204SOD    SOD22264   6.605   6.584  12.073 -0.4903  0.3784 -0.1895
  205SOD    SOD22265   2.028   2.973  16.070 -0.4007  0.1718  0.0430
  206SOD    SOD22266   0.092   5.306   6.419  0.2776  0.8342 -1.0124
  207SOD    SOD22267   1.303   6.444   3.501  0.0243 -0.5458  0.9025
  208SOD    SOD22268   0.674   1.618   5.520 -0.1263  0.4437  0.0029
  209SOD    SOD22269   0.268   2.793  12.929 -0.0279 -0.4189  0.2899
  210SOD    SOD22270   1.761   4.709   3.413 -0.0817 -0.0693  0.1352
  211SOD    SOD22271   1.021   5.650  15.916  0.1049  0.4550 -0.0462
  212SOD    SOD22272   2.328   2.131  14.819 -0.5469  0.0610  0.1680
  213SOD    SOD22273   0.965   4.764  12.190  0.0688 -0.2252 -0.0327
  214SOD    SOD22274   5.369   3.312  14.862 -0.0138 -0.3013 -0.1769
  215SOD    SOD22275   5.524   3.646   5.310  0.2166  0.0466 -0.0730
  216SOD    SOD22276   5.130   4.845  12.169  0.0044 -0.0017 -0.0908
  217SOD    SOD22277   6.128   0.895   2.307  0.0999  0.2913  0.2653
  218SOD    SOD22278   0.463   2.077  16.586 -0.1662  0.4918 -0.3478
  219SOD    SOD22279   2.064   4.537   4.828  0.1171 -0.0181 -0.0473
  220SOD    SOD22280   0.876   5.011   5.744 -0.4455  0.3700 -0.1741
  221SOD    SOD22281   3.360   5.371  16.777  0.1545  0.5835 -0.2061
  222SOD    SOD22282   4.197   1.287  15.495  0.8138  0.1417 -0.2957
  223SOD    SOD22283   3.772   6.240   5.105 -0.0618 -0.6281 -0.0914
  224SOD    SOD22284   1.711   3.939  16.949  0.2601  0.7111  0.1207
  225SOD    SOD22285   1.737   2.251   3.799  0.0391  0.3261 -0.0424
  226SOD    SOD22286   6.309   1.649  13.124  0.2097  0.2239 -0.4196
  227SOD    SOD22287   5.199   6.367  14.145 -0.5381 -0.2681 -0.6410
  228SOD    SOD22288   3.772   4.682  11.447  0.0764  0.1770 -0.0446
  229SOD    SOD22289   3.383   2.347   2.138  0.3003 -0.3434 -0.2112
  230SOD    SOD22290   2.440   1.078  11.653  0.3670  0.5539 -0.3695
  231SOD    SOD22291   1.852   0.353   4.042  0.3664  0.1339  0.7017
  232SOD    SOD22292   6.085   3.961  14.500  0.2030  0.0464 -0.1139
  233SOD    SOD22293   4.350   0.795   4.936 -0.4313  0.7048 -0.1876
  234SOD    SOD22294   3.226   1.175  15.175 -0.0042 -0.3940  0.3275
  235SOD    SOD22295   1.003   3.275   6.202  0.0444  0.1739 -0.0542
  236SOD    SOD22296   4.206   3.448   1.880 -0.1763  0.4968  0.3496
  237SOD    SOD22297   6.145   2.807   3.084 -0.0411 -0.1038  0.5064
  238SOD    SOD22298   5.935   0.224   5.035 -0.2871  0.1796 -0.4441
  239SOD    SOD22299   0.107   1.402  11.645 -0.2320 -0.0745  0.0864
  240SOD    SOD22300   3.074   2.017  11.515 -0.4813 -0.3445 -0.0963
  241SOD    SOD22301   6.646   0.291   6.286  0.1350 -0.0999  0.0990
  242SOD    SOD22302   1.410   3.865  15.170  0.0752  0.4226  0.4305
  243SOD    SOD22303   0.641   6.521  10.742 -0.4316  0.2711 -0.2007
  244SOD    SOD22304   4.158   4.572  13.936  0.0481  0.1497  0.2731
  245SOD    SOD22305   6.249   2.914   4.850  0.0496 -0.3766  0.0674
  246SOD    SOD22306   0.478   0.389  10.885  0.1806 -0.3190  0.3733
  247SOD    SOD22307   5.058   4.674   5.829  0.4916  0.0559  0.0626
  248SOD    SOD22308   3.694   2.207  10.645 -0.3776  0.2630 -0.7315
  249SOD    SOD22309   0.385   6.392  14.774  0.2131 -0.2510  0.0035
  250SOD    SOD22310   0.046   0.290   0.823  0.1562  0.5687 -0.3303
  251SOD    SOD22311   5.629   1.154   5.964  0.1570 -0.6836  0.0113
  252SOD    SOD22312   5.710   6.223   3.642  0.1680  0.1828  0.8759
  253SOD    SOD22313   1.148   1.141  16.108 -0.0838  0.0734  0.3356
  254SOD    SOD22314   2.908   2.696  11.231  0.1441 -0.3312 -0.2074
  255SOD    SOD22315   1.122   1.072   3.911 -0.0138 -0.0446  0.6048
  256SOD    SOD22316   1.004   5.986  16.368 -0.2477  0.5633  0.1820
  257SOD    SOD22317   0.772   3.197  15.189 -0.1421 -0.2018  0.4040
  258SOD    SOD22318   5.218   6.385  13.451 -0.2067  0.3573 -0.3327
  259SOD    SOD22319   1.178   3.911   2.354 -0.5657 -0.5127  0.5106
  260SOD    SOD22320   1.419   3.391   6.338  0.0150  0.0998 -0.1326
  261SOD    SOD22321   5.451   0.359  14.802 -0.0223 -0.2542  0.3708
  262SOD    SOD22322   4.778   1.048   3.965  0.6146 -0.2930 -0.5306
  263SOD    SOD22323   2.017   0.098  13.668  0.0116  0.5372 -0.5027
  264SOD    SOD22324   4.733   6.308   1.416  0.1242  0.3750  0.0392
  265SOD    SOD22325   3.579   2.177  12.208  0.0292  0.2424 -0.0846
  266SOD    SOD22326   4.948   1.031  16.839 -0.2966  0.0819  0.3106
  267SOD    SOD22327   3.432   5.415  15.740 -0.5812  0.0365 -0.3664
  268SOD    SOD22328   6.543   3.387  12.162 -0.1663  0.3304  0.0488
  269SOD    SOD22329   5.234   1.403  15.435 -0.0995 -0.4597 -0.9996
  270CLA    CLA22330   0.236   1.247   0.436  0.0730 -0.2093 -0.1668
  271CLA    CLA22331   0.731   2.601  12.416  0.4350 -0.4398  0.0256
  272CLA    CLA22332   3.804   2.311   1.902 -0.0574 -0.0934  0.0931
  273CLA    CLA22333   5.879   5.887   4.516  0.1564 -0.1640  0.0799
  274CLA    CLA22334   6.730   2.394  13.575  0.0054 -0.2264 -0.2277
  275CLA    CLA22335   3.920   5.235  15.943  0.4760 -0.2220 -0.4567
  276CLA    CLA22336   2.232   4.490   0.361  0.2484  0.0457 -0.1665
  277CLA    CLA22337   0.670   2.824   3.419  0.3149  0.1226  0.1851
  278CLA    CLA22338   2.595   4.089   3.356  0.3323 -0.1013  0.0138
  279CLA    CLA22339   3.450   1.607  13.494 -0.5536 -0.1580 -0.0631
  280CLA    CLA22340   3.088   6.303  14.439  0.3859 -0.0167  0.4523
  281CLA    CLA22341   1.976   2.998  16.562  0.1774  0.1215 -0.0863
  282CLA    CLA22342   6.197   4.288  15.090 -0.2093  0.0403  0.0239
  283CLA    CLA22343   3.480   1.960  16.437 -0.3015  0.3371  0.0743
  284CLA    CLA22344   2.164   5.550  16.821  0.0666  0.2825  0.0616
  285CLA    CLA22345   5.683   2.950  14.437  0.4022 -0.0297 -0.2065
  286CLA    CLA22346   3.704   6.558   1.396 -0.1856 -0.0875  0.2651
  287CLA    CLA22347   3.331   0.516   3.175  0.2329  0.0701 -0.3059
  288CLA    CLA22348   5.040   0.391   4.215  0.0499 -0.0001  0.3134
  289CLA    CLA22349   2.066   3.649  12.674  0.2403  0.1540 -0.1229
  290CLA    CLA22350   0.735   6.730  14.879  0.2462 -0.3438  0.0467
  291CLA    CLA22351   5.882   0.555   3.141 -0.0823 -0.2863  0.1622
  292CLA    CLA22352   1.480   0.600   3.746 -0.0843 -0.2600 -0.2104
  293CLA    CLA22353   6.267   3.084  16.759  0.0421  0.3667 -0.2836
  294CLA    CLA22354   5.322   5.089   1.240  0.0704 -0.4123 -0.2883
  295CLA    CLA22355   0.626   5.416  15.134  0.2110 -0.3281 -0.2999
  296CLA    CLA22356   3.992   1.186   1.545 -0.1301 -0.1771 -0.2728
  297CLA    CLA22357   3.493   3.550  13.351 -0.0078 -0.2825  0.1945
  298CLA    CLA22358   3.486   0.314  16.236  0.0424  0.3751  0.1334
  299CLA    CLA22359   1.469   4.677  14.508 -0.1532 -0.6681 -0.0836
  300CLA    CLA22360   0.558   2.888  16.698 -0.1704 -0.0156  0.3741
  301CLA    CLA22361   5.588   1.661   3.631  0.2939 -0.1261  0.2647
  302CLA    CLA22362   3.987   5.793   3.135 -0.0581 -0.0619  0.0805
  303CLA    CLA22363   2.161   1.536   4.261 -0.4360  0.1346  0.4234
  304CLA    CLA22364   1.800   5.904  16.821 -0.4210 -0.3406  0.3579
  305CLA    CLA22365   4.579   1.283  11.123  0.3475  0.6295  0.3429
  306CLA    CLA22366   5.099   1.828   5.470  0.0371  0.3242 -0.2863
  307CLA    CLA22367   1.584   0.013   0.414 -0.0644  0.1302 -0.0367
  308CLA    CLA22368   5.668   6.647  13.349 -0.1437 -0.2206  0.1104
  309CLA    CLA22369   5.744   2.707   1.764  0.2930  0.4291 -0.0355
  310CLA    CLA22370   0.231   0.701   5.404  0.0877 -0.0087  0.3788
  311CLA    CLA22371   2.659   3.735  14.734 -0.2451  0.2079  0.4578
  312CLA    CLA22372   6.772   1.600  16.061 -0.1746  0.4927 -0.0226
  313CLA    CLA22373   2.167   0.485   3.235 -0.0441 -0.2325  0.0109
  314CLA    CLA22374   6.551   4.950  12.552  0.2129  0.1297  0.1274
  315CLA    CLA22375   3.253   4.961  11.302 -0.0450  0.2993  0.3833
  316CLA    CLA22376   2.441   2.706   5.768  0.3202  0.1867 -0.2167
  317CLA    CLA22377   1.943   3.996  13.620 -0.1824 -0.1722  0.3130
  318CLA    CLA22378   1.843   4.692  15.561  0.5149  0.0842  0.1691
  319CLA    CLA22379   3.739   1.646  15.034 -0.4397  0.3037  0.0995
  320CLA    CLA22380   4.339   4.942  14.276  0.2410  0.0184  0.1638
  321CLA    CLA22381   5.423   6.050   1.258 -0.0598 -0.2151  0.0452
  322CLA    CLA22382   0.461   0.633   4.824 -0.2252 -0.2316 -0.0167
  323TIP3   OH222383   3.525   2.006  13.662  0.2721 -0.6713 -0.0416
  323TIP3    H122384   3.552   1.955  13.586 -1.4425  0.1922 -1.2822
  323TIP3    H222385   3.433   2.025  13.647  0.2036  0.5606  1.6757
  324TIP3   OH222386   0.811   0.283   3.327 -0.2323  0.2275  0.3550
  324TIP3    H122387   0.867   0.211   3.354  0.3162  1.1225  1.7038
  324TIP3    H222388   0.798   0.270   3.233  2.2146 -0.0131 -0.0067
  325TIP3   OH222389   2.010   6.640  13.158  0.4161 -0.2030 -0.2541
  325TIP3    H122390   1.937   6.620  13.100 -0.5666 -1.4094  1.3223
  325TIP3    H222391   2.087   6.634  13.102 -0.3843 -2.4276 -1.2358
  326TIP3   OH222392   0.253   0.941   3.416  0.1966 -0.0768  0.1534
  326TIP3    H122393   0.266   0.938   3.321 -0.9430  1.2068 -0.0704
  326TIP3    H222394   0.310   1.011   3.446 -0.8745  0.8479  0.1157
  327TIP3   OH222395   4.136   2.789  16.933  0.4662 -0.0818 -0.1533
  327TIP3    H122396   4.097   2.725  16.874 -1.0312 -0.0679  0.7585
  327TIP3    H222397   4.230   2.773  16.928  0.2065 -1.4895 -0.9058
  328TIP3   OH222398   5.275   6.425   4.975  0.3145  0.7011  0.2534
  328TIP3    H122399   5.223   6.344   4.980  1.6592 -0.1980  0.2279
  328TIP3    H222400   5.291   6.448   5.067 -0.7363  1.3994  0.2717
  329TIP3   OH222401   1.114   5.078  13.899  0.2472 -0.0657 -0.2531
  329TIP3    H122402   1.114   5.026  13.980  0.3955  0.8004  0.3174
  329TIP3    H222403   1.106   5.013  13.829 -0.5103 -0.7856  0.4837
  330TIP3   OH222404   5.805   6.578   4.331  0.1358  0.2896 -0.2489
  330TIP3    H122405   5.722   6.550   4.370  0.9188 -1.8932 -0.0476
  330TIP3    H222406   5.864   6.590   4.405 -0.2186  2.9224 -0.2917
  331TIP3   OH222407   3.624   1.682   0.958 -0.0734 -0.0166  0.0024
  331TIP3    H122408   3.679   1.612   0.993  2.2415  0.7783 -1.7526
  331TIP3    H222409   3.635   1.755   1.019 -1.4803 -0.7491  1.1597
  332TIP3   OH222410   0.449   5.482  16.712  0.2328  0.2229  0.1059
  332TIP3    H122411   0.464   5.571  16.745 -0.6239  0.5448 -0.3488
  332TIP3    H222412   0.444   5.428  16.791 -0.5671  0.7879  0.4500
  333TIP3   OH222413   5.416   4.343   1.545 -0.0002 -0.3784  0.2089
  333TIP3    H122414   5.327   4.309   1.557 -0.4322  0.4925 -0.3780
  333TIP3    H222415   5.452   4.347   1.633  0.2208 -2.6730  0.2703
  334TIP3   OH222416   4.128   5.914  15.414  0.0027  0.5966  0.0835
  334TIP3    H122417   4.208   5.905  15.362 -0.0494 -0.6606  0.1880
  334TIP3    H222418   4.057   5.892  15.353 -0.0431 -1.1648  0.7143
  335TIP3   OH222419   3.795   3.015  12.302  0.5599  0.0256  0.1835
  335TIP3    H122420   3.729   3.049  12.361  1.5996 -2.7245  3.2087
  335TIP3    H222421   3.864   3.081  12.301  0.2185  0.4131  1.5697
  336TIP3   OH222422   5.609   6.492   6.140  0.1390 -0.1491 -0.1039
  336TIP3    H122423   5.563   6.443   6.072 -0.8826 -0.4874  0.8049
  336TIP3    H222424   5.636   6.426   6.204  1.2573  0.1382 -0.2531
  337TIP3   OH222425   2.036   2.704   1.482  0.1778  0.0413 -0.5217
  337TIP3    H122426   2.045   2.798   1.467 -2.6267  0.4507 -0.1009
  337TIP3    H222427   2.001   2.669   1.399 -0.6305 -0.2908 -0.0498
  338TIP3   OH222428   1.293   0.501   3.947 -0.0186 -0.0604  0.3575
  338TIP3    H122429   1.352   0.564   3.908  0.7220  0.8417  2.7314
  338TIP3    H222430   1.312   0.505   4.041 -2.2842 -1.3818  0.9660
  339TIP3   OH222431   3.027   6.276   3.651 -0.1042  0.0711 -0.4049
  339TIP3    H122432   3.031   6.300   3.744  0.9771 -2.6935  0.3911
  339TIP3    H222433   3.047   6.357   3.604 -1.3743  1.7256  1.7123
  340TIP3   OH222434   1.869   3.773   1.461  0.1150 -0.4983 -0.1575
  340TIP3    H122435   1.954   3.768   1.505  0.0033 -0.1242  0.1043
  340TIP3    H222436   1.890   3.769   1.368  0.2842 -2.3245 -0.0728
  341TIP3   OH222437   5.989   3.262  11.130  0.6445  0.1964  0.0227
  341TIP3    H122438   6.072   3.309  11.126  0.1123  1.1132 -0.6606
  341TIP3    H222439   5.943   3.289  11.050 -0.2921 -0.3187  0.3811
  342TIP3   OH222440   3.238   3.328   6.025 -0.1436 -0.1868 -0.1557
  342TIP3    H122441   3.228   3.397   5.960 -0.8851 -0.0824  0.0509
  342TIP3    H222442   3.270   3.373   6.103 -1.2429  0.0480  0.1771
  343TIP3   OH222443   1.090   1.364   2.261 -0.7475  0.3032 -0.2189
  343TIP3    H122444   1.126   1.385   2.347 -0.3489 -0.1588 -0.2734
  343TIP3    H222445   1.061   1.274   2.269  0.3674 -0.1351 -0.9233
  344TIP3   OH222446   3.967   3.615   4.615  0.7686 -0.0022  0.2826
  344TIP3    H122447   4.036   3.557   4.583 -0.3763 -0.7843 -0.8462
  344TIP3    H222448   3.995   3.703   4.588  0.6617 -0.4624 -1.4651
  345TIP3   OH222449   3.551   4.718  16.419 -0.3708  0.7661 -0.2667
  345TIP3    H122450   3.564   4.668  16.339 -0.0938  0.0338  0.2214
  345TIP3    H222451   3.470   4.684  16.456 -0.5566  1.1789 -0.2899
  346TIP3   OH222452   3.031   0.373  11.290  0.1514 -0.2470 -0.4052
  346TIP3    H122453   3.012   0.284  11.320  4.1904 -1.6448 -1.4078
  346TIP3    H222454   2.966   0.390  11.222 -0.5880 -2.4968 -0.3378
  347TIP3   OH222455   5.232   3.210   0.847 -0.3861 -0.1008 -0.5177
  347TIP3    H122456   5.237   3.189   0.754 -0.8839 -0.1213 -0.5407
  347TIP3    H222457   5.202   3.129   0.888 -1.0733  0.1878 -0.4534
  348TIP3   OH222458   5.099   0.759  13.954  0.2951 -0.2477  0.0070
  348TIP3    H122459   5.112   0.816  13.878 -0.2376 -0.7913 -0.5071
  348TIP3    H222460   5.016   0.715  13.936  0.9103 -1.5192  0.1714
  349TIP3   OH222461   3.657   0.888  10.712 -0.0058  0.0884 -0.4505
  349TIP3    H122462   3.685   0.940  10.636 -1.2832  1.3283 -0.1022
  349TIP3    H222463   3.618   0.951  10.772  2.0322 -0.6328  1.8435
  350TIP3   OH222464   6.680   3.495  14.635  0.4506 -0.8235 -0.0687
  350TIP3    H122465   6.708   3.468  14.547  2.6557  0.1938  0.2476
  350TIP3    H222466   6.651   3.586  14.624  1.3780 -0.4600  0.3221
  351TIP3   OH222467   0.121   4.388  12.775  0.6820  0.0036  0.3075
  351TIP3    H122468   0.052   4.454  12.766  0.1457 -0.6976 -1.1821
  351TIP3    H222469   0.105   4.348  12.860 -2.3048 -1.7542 -0.9293
  352TIP3   OH222470   0.038   2.022   2.305 -0.2948 -0.6132  0.4742
  352TIP3    H122471   0.035   2.066   2.390 -1.8284 -0.1703  0.2327
  352TIP3    H222472  -0.003   1.936   2.322  1.7975 -1.6186  0.7297
  353TIP3   OH222473   3.341   4.879  15.559 -0.2357 -0.4040  0.5628
  353TIP3    H122474   3.420   4.908  15.605  0.0397 -1.1940  0.5908
  353TIP3    H222475   3.285   4.957  15.558  1.1478  0.6489 -0.8017
  354TIP3   OH222476   2.751   6.075   4.408  0.3358  0.4753  0.0921
  354TIP3    H122477   2.739   6.021   4.486  1.1050  0.7980  0.4426
  354TIP3    H222478   2.839   6.111   4.416  0.2028  1.0020 -0.6241
  355TIP3   OH222479   0.699   2.360   2.851  0.6297 -0.2772 -0.3923
  355TIP3    H122480   0.749   2.280   2.866  2.3231  0.4305 -1.8168
  355TIP3    H222481   0.748   2.428   2.898  0.5793  0.2898 -1.1282
  356TIP3   OH222482   5.680   0.225   5.426  0.1042 -0.7409 -0.2089
  356TIP3    H122483   5.615   0.179   5.373  0.4470 -0.9760 -0.4281
  356TIP3    H222484   5.704   0.163   5.495  0.6879 -0.9621 -0.6021
  357TIP3   OH222485   2.475   1.307   1.998  0.5098 -0.3513  0.5178
  357TIP3    H122486   2.451   1.273   2.084  1.0524 -0.6630  0.5529
  357TIP3    H222487   2.480   1.230   1.941 -0.7837 -0.0503 -0.0382
  358TIP3   OH222488   3.463   1.479  11.375 -0.9055 -0.0431  0.1630
  358TIP3    H122489   3.453   1.418  11.302 -1.4596  0.3073 -0.0654
  358TIP3    H222490   3.392   1.457  11.435  0.1694 -1.0017  1.0993
  359TIP3   OH222491   4.770   4.370  10.768  0.2193  0.8012 -0.1579
  359TIP3    H122492   4.813   4.426  10.833 -1.7481  0.7162  1.3038
  359TIP3    H222493   4.733   4.298  10.819 -0.5733  0.2212 -1.5117
  360TIP3   OH222494   3.666   1.193  11.996  0.0807 -0.2907 -0.3153
  360TIP3    H122495   3.684   1.118  11.940  0.2285 -0.2810 -0.2826
  360TIP3    H222496   3.692   1.165  12.084 -1.0586 -0.6375 -0.0867
  361TIP3   OH222497   2.441   4.912   2.848 -0.2721  0.0315  0.1320
  361TIP3    H122498   2.520   4.935   2.898  0.5320 -2.1559 -0.0197
  361TIP3    H222499   2.369   4.937   2.905  0.5393  1.3088  0.6445
  362TIP3   OH222500   4.260   6.697   0.263  0.1540  0.5441  0.5094
  362TIP3    H122501   4.233   6.628   0.324 -1.2371  1.4245  0.9454
  362TIP3    H222502   4.349   6.720   0.291  0.7420 -1.2006  0.2033
  363TIP3   OH222503   0.500   2.443  11.762  0.5347  0.3211  0.2345
  363TIP3    H122504   0.514   2.485  11.677  0.6827  0.9760  0.5748
  363TIP3    H222505   0.486   2.350  11.741 -2.0128  0.8254 -0.7547
  364TIP3   OH222506   4.865   6.371   0.084  0.3438  0.8318 -0.0473
  364TIP3    H122507   4.813   6.412   0.153  0.2550  0.6054  0.0210
  364TIP3    H222508   4.825   6.400   0.002  1.4993  2.5353 -0.0708
  365TIP3   OH222509   3.818   2.286  14.046  1.0194 -0.2332  0.3930
  365TIP3    H122510   3.813   2.230  14.123  2.2520 -0.3647  0.3957
  365TIP3    H222511   3.875   2.358  14.072  1.3182 -0.1927 -0.3369
  366TIP3   OH222512   3.261   2.129   0.349 -0.4602 -0.9645  0.2276
  366TIP3    H122513   3.330   2.186   0.385 -3.0621  1.2490  2.1385
  366TIP3    H222514   3.289   2.041   0.372  1.4440 -0.1070  1.5401
  367TIP3   OH222515   3.962   5.724  16.425 -0.1170 -0.7600 -0.3119
  367TIP3    H122516   3.922   5.672  16.495  0.4825 -2.4232 -1.1713
  367TIP3    H222517   4.025   5.780  16.470 -2.0359  0.5921  0.8434
  368TIP3   OH222518   3.938   1.674  12.889  0.0081 -0.6346 -0.3039
  368TIP3    H122519   3.905   1.587  12.912  0.9466 -1.4579 -1.8559
  368TIP3    H222520   3.920   1.683  12.796  1.1502  0.2567 -0.4673
  369TIP3   OH222521   2.574   3.293   5.544 -0.2397 -0.2791 -0.0089
  369TIP3    H122522   2.539   3.217   5.590  0.4272 -0.7067 -0.1835
  369TIP3    H222523   2.527   3.294   5.461  0.8977 -1.5144 -0.7140
  370TIP3   OH222524   4.302   3.379   6.597  0.4567 -0.0346  0.4377
  370TIP3    H122525   4.396   3.382   6.583  0.5459 -0.9924  0.7374
  370TIP3    H222526   4.271   3.466   6.573  1.4542  0.3857  0.6461
  371TIP3   OH222527   0.165   2.171  12.165 -0.1173  0.1154  0.1609
  371TIP3    H122528   0.104   2.127  12.106  0.2199 -0.9469  0.5808
  371TIP3    H222529   0.215   2.231  12.108 -0.0515 -0.6134 -0.5701
  372TIP3   OH222530   1.543   2.725  16.812 -0.0904  0.2858 -0.2932
  372TIP3    H122531   1.468   2.676  16.776  0.5211 -1.1045  0.2685
  372TIP3    H222532   1.565   2.788  16.744 -1.0342 -0.0738 -0.9564
  373TIP3   OH222533   5.431   2.581   0.201 -0.1463 -0.3850 -0.0639
  373TIP3    H122534   5.397   2.579   0.290  0.7781 -0.2798  0.3085
  373TIP3    H222535   5.513   2.630   0.208  0.3928 -1.1588 -0.8071
  374TIP3   OH222536   0.876   1.417   2.720 -0.0056  0.3635  0.2854
  374TIP3    H122537   0.909   1.341   2.673  3.4988  1.3450  0.8032
  374TIP3    H222538   0.855   1.480   2.651 -0.4915 -0.1895 -0.0806
  375TIP3   OH222539   4.686   4.831  15.203  0.0608  0.0344 -0.3320
  375TIP3    H122540   4.724   4.886  15.135 -0.5991  0.0239 -0.7118
  375TIP3    H222541   4.601   4.870  15.223  0.6872  0.6762  1.2689
  376TIP3   OH222542   0.893   4.172  15.793 -0.3248 -0.0553 -0.1773
  376TIP3    H122543   0.971   4.223  15.775 -0.2395 -0.0031  0.3224
  376TIP3    H222544   0.854   4.155  15.707 -0.8330  1.5954 -0.2974
  377TIP3   OH222545   5.918   3.609  12.723  0.1993  0.1119  0.2624
  377TIP3    H122546   6.001   3.561  12.713 -0.8607 -1.4651 -1.7245
  377TIP3    H222547   5.875   3.567  12.797  0.4844 -0.1792  0.2683
  378TIP3   OH222548   0.946   1.178   1.917  0.3397 -0.4319 -0.3433
  378TIP3    H122549   0.949   1.245   1.985  1.7317 -0.3482 -0.4501
  378TIP3    H222550   0.996   1.105   1.953 -0.7341 -1.2381 -0.4337
  379TIP3   OH222551   2.685   2.652  17.245 -0.0107  0.5876 -0.2792
  379TIP3    H122552   2.778   2.660  17.265 -0.1827 -0.4157  1.0786
  379TIP3    H222553   2.648   2.604  17.320 -2.0344  2.8234  0.2869
  380TIP3   OH222554   2.006   1.230  16.600  0.1695  0.1087  0.1310
  380TIP3    H122555   1.963   1.293  16.543  0.4509  1.9880  1.8837
  380TIP3    H222556   2.099   1.252  16.595  0.7570 -2.3479 -1.7341
  381TIP3   OH222557   1.919   4.136   2.556  0.1286 -0.0780 -0.0007
  381TIP3    H122558   1.970   4.056   2.556 -1.6183 -1.2606  0.8031
  381TIP3    H222559   1.958   4.190   2.487  1.5490 -1.4575 -0.3276
  382TIP3   OH222560   4.453   5.652   4.705  0.1071  0.1196  0.3163
  382TIP3    H122561   4.432   5.565   4.739  0.1254 -0.2585 -0.5977
  382TIP3    H222562   4.540   5.642   4.666 -0.1834  0.3533 -0.4232
  383TIP3   OH222563   6.363   3.262  14.302  0.5949  0.3924  0.0414
  383TIP3    H122564   6.407   3.310  14.373  1.1909  0.0719 -0.1043
  383TIP3    H222565   6.306   3.327  14.261  1.5592  1.0501 -0.2947
  384TIP3   OH222566   6.480   6.365   2.624 -0.4016  0.1024  0.6504
  384TIP3    H122567   6.562   6.315   2.619 -1.3056 -1.3581 -0.0220
  384TIP3    H222568   6.482   6.422   2.548 -0.5598 -0.8126 -0.0486
  385TIP3   OH222569   5.125   0.964   0.811  0.4801  0.2170  0.0479
  385TIP3    H122570   5.051   1.008   0.768 -0.2722  0.2983  1.3596
  385TIP3    H222571   5.181   1.036   0.841 -0.6309  0.3563  1.9838
  386TIP3   OH222572   0.127   0.382   3.970  0.7311  0.5736 -0.9302
  386TIP3    H122573   0.127   0.462   4.023  0.8974  0.6845 -1.0957
  386TIP3    H222574   0.193   0.398   3.903 -0.0945  0.8030 -1.7187
  387TIP3   OH222575   1.214   6.583   5.166 -0.5036 -0.3587 -0.4718
  387TIP3    H122576   1.227   6.505   5.112  1.7756 -0.1465 -0.3384
  387TIP3    H222577   1.152   6.556   5.234  1.0166 -2.4301  0.1913
  388TIP3   OH222578   5.624   3.867  16.826  0.0706  0.1632  0.0181
  388TIP3    H122579   5.646   3.775  16.840  0.0335 -0.0935 -1.4084
  388TIP3    H222580   5.591   3.898  16.911  1.2945 -0.7719  0.8673
  389TIP3   OH222581   5.472   4.625  14.103 -0.3511 -0.1870 -0.1020
  389TIP3    H122582   5.565   4.603  14.090 -0.4833 -1.0767  0.3567
  389TIP3    H222583   5.457   4.701  14.047  0.6322 -0.0974 -0.2587
  390TIP3   OH222584   4.942   4.172   4.891  0.5598 -0.1110  0.3699
  390TIP3    H122585   4.984   4.212   4.815 -1.6589  0.5838 -0.5612
  390TIP3    H222586   4.961   4.233   4.963  1.3179  0.0615  0.0406
  391TIP3   OH222587   4.827   1.393   0.740  0.4629 -0.6840 -0.1397
  391TIP3    H122588   4.853   1.461   0.678  0.7792 -0.1088  0.6035
  391TIP3    H222589   4.783   1.441   0.811 -0.5700 -1.4066 -0.2705
  392TIP3   OH222590   5.541   1.312  14.362 -0.0681  0.2699 -0.7029
  392TIP3    H122591   5.559   1.326  14.455 -0.1835  1.5096 -0.8532
  392TIP3    H222592   5.625   1.325  14.319  0.0820 -0.7671 -0.7342
  393TIP3   OH222593   5.151   6.286   4.152 -0.2492 -0.8471  0.5058
  393TIP3    H122594   5.157   6.222   4.081  0.0394 -0.9895  0.6558
  393TIP3    H222595   5.165   6.234   4.231 -0.5825 -0.6899  0.6673
  394TIP3   OH222596   0.617   3.882  13.938 -0.6774 -0.0896 -0.2593
  394TIP3    H122597   0.604   3.877  14.033  0.1741 -1.5171 -0.1960
  394TIP3    H222598   0.528   3.878  13.902 -1.0180  0.6166  0.4648
  395TIP3   OH222599   5.569   2.048  12.990 -0.2669  0.1349 -0.2755
  395TIP3    H122600   5.505   2.088  12.931 -1.7374 -0.3477  0.9293
  395TIP3    H222601   5.546   1.955  12.992  0.4226 -0.0370  0.2557
  396TIP3   OH222602   0.095   1.982  11.419  0.6143  0.1907 -0.2969
  396TIP3    H122603   0.180   1.951  11.450  0.6951  1.2928  0.6631
  396TIP3    H222604   0.032   1.937  11.475  0.7007  1.2015  0.6454
  397TIP3   OH222605   2.744   5.146   4.322 -0.0224  0.2778  0.2339
  397TIP3    H122606   2.675   5.145   4.255  0.3486 -0.0256 -0.1501
  397TIP3    H222607   2.767   5.054   4.335  0.1548  0.3613  0.5189
  398TIP3   OH222608   2.902   1.700  13.944  0.0907  0.0145 -0.0080
  398TIP3    H122609   2.811   1.690  13.916  0.5109 -1.0779 -1.0776
  398TIP3    H222610   2.944   1.746  13.871  0.8372 -1.3854 -0.4984
  399TIP3   OH222611   4.333   0.626   3.840  0.0974 -0.0390  0.2045
  399TIP3    H122612   4.311   0.611   3.932  1.8905  0.3892  0.7536
  399TIP3    H222613   4.267   0.578   3.791 -3.3100  2.8143  1.5747
  400TIP3   OH222614   1.959   6.167  16.064 -0.1734 -0.4300 -0.3587
  400TIP3    H122615   1.877   6.123  16.044 -0.3607 -0.1615 -0.1855
  400TIP3    H222616   2.025   6.117  16.017 -0.7216  0.8349 -2.6103
  401TIP3   OH222617   4.422   5.264  13.486 -0.1355  0.1013  0.2655
  401TIP3    H122618   4.498   5.257  13.427 -0.6370  0.3998 -0.4353
  401TIP3    H222619   4.460   5.265  13.574  0.7760  1.5531 -0.1057
  402TIP3   OH222620   4.282   5.758   1.736  0.1963 -0.2767 -0.2785
  402TIP3    H122621   4.191   5.770   1.709  0.2018  2.5787  0.6676
  402TIP3    H222622   4.285   5.787   1.827  2.1541  0.2822 -0.4630
  403TIP3   OH222623   0.580   6.075  16.016 -0.0247  0.1288 -0.5319
  403TIP3    H122624   0.547   6.049  16.102  0.9232  2.6358  0.7162
  403TIP3    H222625   0.518   6.142  15.986 -0.5495 -0.9738 -2.0125
  404TIP3   OH222626   0.917   2.024  13.778  0.4680  0.3886 -0.1198
  404TIP3    H122627   0.885   1.967  13.848  2.2333  0.7221  1.0080
  404TIP3    H222628   0.840   2.040  13.723 -0.9237 -0.0657  1.6161
  405TIP3   OH222629   3.539   4.692  13.578 -0.5477 -0.3921 -0.0824
  405TIP3    H122630   3.472   4.740  13.627  0.2712 -0.5439  1.2389
  405TIP3    H222631   3.489   4.633  13.521 -1.5421  0.0994  0.2532
  406TIP3   OH222632   3.072   1.796  13.699 -0.4450  0.0654  0.4062
  406TIP3    H122633   3.123   1.798  13.618 -0.7337  0.1075  0.2266
  406TIP3    H222634   2.981   1.787  13.671 -0.4601 -1.0292  0.7518
  407TIP3   OH222635   6.326   3.769  15.128 -0.1941  0.0614  0.2136
  407TIP3    H122636   6.263   3.735  15.192 -0.2649  0.7216  0.4987
  407TIP3    H222637   6.400   3.709  15.134 -0.3141 -0.0437  0.7154
  408TIP3   OH222638   6.214   2.906   2.852  0.1903  0.2833 -0.0861
  408TIP3    H122639   6.198   3.001   2.845  1.8813  0.4988 -1.9838
  408TIP3    H222640   6.186   2.871   2.768  0.6911 -0.7275  0.1558
  409TIP3   OH222641   1.114   1.534   2.861  0.3885 -0.8983 -0.0276
  409TIP3    H122642   1.119   1.615   2.809  0.2375 -1.4462 -0.9251
  409TIP3    H222643   1.048   1.481   2.815 -0.2786 -1.1198  1.1479
  410TIP3   OH222644   4.085   5.407  13.777 -0.5366  0.0564 -0.0408
  410TIP3    H122645   4.048   5.320  13.760 -1.0909  0.3837 -0.5955
  410TIP3    H222646   4.043   5.463  13.711 -1.8324  1.1760  1.6662
  411TIP3   OH222647   4.713   1.019   5.136 -0.4514  0.0786 -0.8737
  411TIP3    H122648   4.685   1.038   5.047 -0.5346 -0.6532 -1.0066
  411TIP3    H222649   4.788   0.961   5.127 -0.0718  0.4946 -0.4769
  412TIP3   OH222650   0.815   2.957   2.004 -0.3645  0.0419 -0.1659
  412TIP3    H122651   0.895   2.999   1.974 -0.7562  1.4704  0.6742
  412TIP3    H222652   0.843   2.894   2.070  0.1000  0.2559 -0.1603
  413TIP3   OH222653   2.957   3.069  14.690  0.1264 -0.2722  0.1094
  413TIP3    H122654   3.011   3.009  14.640 -0.7811 -1.6372  0.7031
  413TIP3    H222655   2.975   3.156  14.652 -1.5599 -1.3288 -3.6062
  414TIP3   OH222656   3.605   6.385   6.051  0.5499 -0.6308 -0.3639
  414TIP3    H122657   3.619   6.318   5.984  0.3158 -0.1381 -0.9045
  414TIP3    H222658   3.659   6.356   6.125  0.6513 -1.2818 -0.6855
  415TIP3   OH222659   0.134   4.004  16.066 -0.3612  0.1591 -0.2117
  415TIP3    H122660   0.216   3.966  16.096 -1.4590 -1.3395  1.0964
  415TIP3    H222661   0.155   4.095  16.046  1.1989  0.3695  2.0385
  416TIP3   OH222662   1.654   3.957  11.338  0.1282 -0.3308 -0.5999
  416TIP3    H122663   1.677   3.894  11.269  0.3068 -0.3771 -0.4958
  416TIP3    H222664   1.576   4.000  11.304 -0.5058 -1.2038 -0.2977
  417TIP3   OH222665   4.685   5.792   0.698 -0.1418 -0.6681  0.1732
  417TIP3    H122666   4.753   5.857   0.714 -1.3655  0.5195  0.6610
  417TIP3    H222667   4.690   5.733   0.773 -0.2530 -0.0506  0.6712
  418TIP3   OH222668   0.254   0.317  13.764  0.4751  0.2166 -0.0037
  418TIP3    H122669   0.163   0.346  13.762  0.5636  0.6483  1.1778
  418TIP3    H222670   0.264   0.275  13.850  1.6663  1.2005  0.3680
  419TIP3   OH222671   3.709   0.080   5.000 -0.2327 -0.1850 -0.7629
  419TIP3    H122672   3.692   0.169   4.969  0.6140 -0.3811 -1.8695
  419TIP3    H222673   3.634   0.058   5.054 -0.3666  1.2747 -0.3184
  420TIP3   OH222674   2.187   2.779   2.896 -0.3385  0.1376 -0.3160
  420TIP3    H122675   2.196   2.699   2.948  1.9444 -0.1204 -0.9677
  420TIP3    H222676   2.155   2.748   2.811 -0.0159 -0.0266 -0.3813
  421TIP3   OH222677   0.995   0.467  13.967  0.2289 -0.2356 -0.1036
  421TIP3    H122678   0.965   0.417  13.892  0.3995  0.4824 -0.6589
  421TIP3    H222679   1.062   0.526  13.932  1.8144 -1.3004  0.9709
  422TIP3   OH222680   6.338   4.087   0.986 -0.0694  0.3102 -0.1759
  422TIP3    H122681   6.325   4.076   0.892 -0.8703 -0.6140  0.0221
  422TIP3    H222682   6.283   4.161   1.010 -0.2908  0.2054 -0.3540
  423TIP3   OH222683   5.269   5.574   4.926 -0.3132 -0.0097 -0.2929
  423TIP3    H122684   5.303   5.645   4.872 -0.5333 -0.8340 -1.5580
  423TIP3    H222685   5.253   5.614   5.012  1.7667  0.8923 -0.2783
  424TIP3   OH222686   1.037   3.536   3.046 -0.2052 -0.0400  0.4890
  424TIP3    H122687   0.964   3.598   3.050  0.4370  1.0242 -2.2211
  424TIP3    H222688   0.995   3.450   3.037 -1.1101  0.3948  0.4797
  425TIP3   OH222689   0.547   1.098   2.812  0.1099 -0.2722  0.2085
  425TIP3    H122690   0.484   1.162   2.844 -0.0141 -1.1052  1.7607
  425TIP3    H222691   0.613   1.150   2.766  0.1280  1.0176  1.6036
  426TIP3   OH222692   5.833   1.949  16.583  0.2535  0.4078  0.0778
  426TIP3    H122693   5.813   2.043  16.581 -0.2848  0.3358  1.3965
  426TIP3    H222694   5.908   1.939  16.524  0.1781  1.6238 -0.2483
  427TIP3   OH222695   3.264   3.445   4.546  1.2828 -0.1053 -0.0907
  427TIP3    H122696   3.317   3.448   4.626  0.3171 -0.1909  0.5584
  427TIP3    H222697   3.246   3.352   4.533  1.9392 -0.1522 -0.7602
  428TIP3   OH222698   4.352   3.104   4.874 -0.4722 -0.4972  0.1306
  428TIP3    H122699   4.430   3.126   4.925 -0.7279  1.3744 -0.1978
  428TIP3    H222700   4.344   3.009   4.880  0.8590 -0.5436  1.5760
  429TIP3   OH222701   6.226   5.862   3.649  0.2301 -0.3235  0.0353
  429TIP3    H122702   6.205   5.902   3.565  0.7448  0.1366  0.1246
  429TIP3    H222703   6.321   5.864   3.654  0.2016 -0.2995  0.6557
  430TIP3   OH222704   5.727   5.881  15.432 -0.1374  0.2412  1.1231
  430TIP3    H122705   5.658   5.946  15.418  0.2874  1.1763  3.0164
  430TIP3    H222706   5.784   5.889  15.356 -0.6574  1.3790  0.8311
  431TIP3   OH222707   6.307   1.422  12.475  0.4593 -0.3784 -0.1438
  431TIP3    H122708   6.241   1.391  12.413  0.9090 -0.0080 -0.8279
  431TIP3    H222709   6.367   1.348  12.484 -0.1669 -0.8006  0.6648
  432TIP3   OH222710   4.115   6.366  11.479 -0.2388 -0.4121  0.0801
  432TIP3    H122711   4.135   6.312  11.402  1.6121 -0.2052  0.3520
  432TIP3    H222712   4.180   6.437  11.476  0.0144 -0.5048  1.9283
  433TIP3   OH222713   4.601   0.515  15.142  0.0446 -0.9535  0.7428
  433TIP3    H122714   4.554   0.542  15.221 -0.1039 -0.2678  0.4291
  433TIP3    H222715   4.536   0.519  15.073  0.5794  0.1510  0.2771
  434TIP3   OH222716   4.268   3.848   0.853 -0.2485  0.4422 -0.1602
  434TIP3    H122717   4.361   3.840   0.875  0.0379  0.7870 -1.1933
  434TIP3    H222718   4.239   3.926   0.901 -0.1672 -0.0300  0.6656
  435TIP3   OH222719   4.245   4.381   0.030  0.0651 -0.7627  0.0458
  435TIP3    H122720   4.318   4.358   0.088 -1.0922 -1.5059  1.2704
  435TIP3    H222721   4.250   4.317  -0.041 -0.0181 -1.4996  0.6890
  436TIP3   OH222722   3.371   4.715  14.526  0.1048  0.5176 -0.3758
  436TIP3    H122723   3.451   4.746  14.484  1.5187 -0.8450  1.1294
  436TIP3    H222724   3.397   4.633  14.568 -1.9905  0.2574  0.5308
  437TIP3   OH222725   3.172   6.620   2.690 -0.0000 -0.1083  0.5342
  437TIP3    H122726   3.167   6.564   2.612  1.2586  1.0755 -0.4507
  437TIP3    H222727   3.237   6.687   2.667 -0.9542  1.3713  1.9067
  438TIP3   OH222728   1.896   4.541  12.110 -0.1601 -0.2387 -1.0549
  438TIP3    H122729   1.866   4.587  12.032  0.8809  1.8365 -0.3169
  438TIP3    H222730   1.834   4.469  12.121 -1.9113  0.9905 -2.2839
  439TIP3   OH222731   2.866   6.380  13.592  0.2116 -0.6678 -0.2858
  439TIP3    H122732   2.805   6.451  13.612  0.4816 -0.2517 -0.8991
  439TIP3    H222733   2.925   6.377  13.667  0.9844  0.6209 -0.8226
  440TIP3   OH222734   2.344   3.286  11.851 -0.3739  0.3636 -0.3831
  440TIP3    H122735   2.301   3.332  11.922  1.4152  1.8824 -0.1885
  440TIP3    H222736   2.315   3.331  11.772 -1.1670 -0.3362 -0.5063
  441TIP3   OH222737   0.767   3.919   0.653  0.4892 -0.1413  0.5042
  441TIP3    H122738   0.687   3.895   0.606 -0.2402  3.4278 -0.3245
  441TIP3    H222739   0.772   3.855   0.725 -1.9970 -1.6665 -0.5430
  442TIP3   OH222740   2.759   1.285  15.601 -0.1549  0.9610 -0.0471
  442TIP3    H122741   2.820   1.325  15.663 -0.7366 -0.4911  1.5552
  442TIP3    H222742   2.673   1.298  15.641 -0.4012 -1.4196  0.3253
  443TIP3   OH222743   2.137   1.895   1.710  0.3435 -0.0422  0.2603
  443TIP3    H122744   2.063   1.837   1.691  1.3551 -2.6613  3.2810
  443TIP3    H222745   2.186   1.900   1.627 -1.8045 -0.3466 -1.0949
  444TIP3   OH222746   4.132   2.535  13.882 -0.1430 -0.0109 -0.0171
  444TIP3    H122747   4.135   2.441  13.898 -1.3315 -0.3465 -1.4378
  444TIP3    H222748   4.087   2.572  13.958  0.1342 -0.6251  0.4457
  445TIP3   OH222749   1.369   6.292   4.640  0.9125  0.1066  0.1609
  445TIP3    H122750   1.333   6.350   4.707  0.1826 -0.2700  0.1107
  445TIP3    H222751   1.451   6.259   4.678 -1.4940 -3.5790  2.9187
  446TIP3   OH222752   5.760   5.991   2.654 -0.5761 -0.0928  0.4117
  446TIP3    H122753   5.751   5.912   2.707 -2.3098  0.5709  1.1780
  446TIP3    H222754   5.675   6.003   2.613  0.5343 -0.2688 -2.1957
  447TIP3   OH222755   6.219   6.373  13.689  0.0103  0.7895  0.2114
  447TIP3    H122756   6.150   6.416  13.637 -1.9460 -0.2992  1.7506
  447TIP3    H222757   6.298   6.423  13.669 -0.6499  0.6937 -3.4590
  448TIP3   OH222758   6.559   0.304  13.072 -0.1325 -0.1213  0.6279
  448TIP3    H122759   6.477   0.326  13.028  0.5073  0.4045 -0.3150
  448TIP3    H222760   6.574   0.377  13.132 -0.9115 -0.7540  1.6377
  449TIP3   OH222761   5.362   3.702  11.843  0.2969 -0.5550 -0.6877
  449TIP3    H122762   5.308   3.761  11.896  2.3567 -0.3997  1.4146
  449TIP3    H222763   5.302   3.668  11.777 -2.1244  0.3007  0.9074
  450TIP3   OH222764   1.208   5.767  15.250 -0.2460 -0.2209  0.6661
  450TIP3    H122765   1.202   5.690  15.194 -0.1476  1.0118 -1.1202
  450TIP3    H222766   1.120   5.776  15.288  0.1742 -2.1331  2.2997
  451TIP3   OH222767   0.575   6.066  13.516  0.7666  0.3302  0.2498
  451TIP3    H122768   0.501   6.113  13.478  0.9671 -0.0154 -0.5914
  451TIP3    H222769   0.648   6.127  13.510  0.3517  1.0682  2.0330
  452TIP3   OH222770   3.588   5.161   4.351 -0.5621  0.0563  0.3513
  452TIP3    H122771   3.608   5.253   4.366 -3.4648  0.5976  1.7236
  452TIP3    H222772   3.508   5.162   4.298 -0.2704 -1.7002 -0.1868
  453TIP3   OH222773   4.537   1.904   2.573 -0.2895  0.4855 -0.0764
  453TIP3    H122774   4.604   1.842   2.544 -1.3483 -1.8609  2.1175
  453TIP3    H222775   4.457   1.852   2.578 -1.0168  1.6775  2.9116
  454TIP3   OH222776   3.638   2.740   4.706 -0.3776 -0.5952 -0.0040
  454TIP3    H122777   3.701   2.809   4.723 -0.4724 -0.3138 -0.7220
  454TIP3    H222778   3.672   2.663   4.751 -0.6428  0.0889  1.4147
  455TIP3   OH222779   6.306   6.055  16.479 -0.2044  0.3265 -0.5026
  455TIP3    H122780   6.360   5.979  16.454 -1.9015 -1.1217  0.0076
  455TIP3    H222781   6.256   6.075  16.400  1.3363  1.9816 -1.1281
  456TIP3   OH222782   1.262   5.582   0.636  0.1179  0.6871 -0.1406
  456TIP3    H122783   1.291   5.492   0.654  0.5023  0.8187 -0.1005
  456TIP3    H222784   1.192   5.597   0.701  1.1395  0.9686  0.9219
  457TIP3   OH222785   0.718   1.149  13.827  0.1516 -0.5394  0.1527
  457TIP3    H122786   0.706   1.076  13.887  1.7138 -0.0925  1.0784
  457TIP3    H222787   0.795   1.125  13.775  1.4926  0.9481  1.3556
  458TIP3   OH222788   2.169   4.767   2.351 -0.6277  0.0402 -0.1713
  458TIP3    H122789   2.192   4.854   2.385  0.0176  0.6942 -2.1471
  458TIP3    H222790   2.074   4.770   2.342 -0.4257  1.8403 -3.2248
  459TIP3   OH222791   5.220   3.858  13.344 -0.3326  0.1452  0.0832
  459TIP3    H122792   5.154   3.895  13.401  1.1707  0.0244  1.9968
  459TIP3    H222793   5.224   3.917  13.269 -0.8382  1.5721  1.1433
  460TIP3   OH222794   5.189   2.663  12.667 -0.0884 -0.0567 -0.0869
  460TIP3    H122795   5.117   2.700  12.719 -0.9373 -0.3149 -1.0398
  460TIP3    H222796   5.254   2.635  12.731 -0.0713  1.7213  0.7358
  461TIP3   OH222797   1.662   2.726   4.938 -0.1061 -0.7947 -0.1365
  461TIP3    H122798   1.670   2.781   5.016 -3.1601  0.5695 -0.6008
  461TIP3    H222799   1.731   2.756   4.880 -0.6250  1.4692  0.3112
  462TIP3   OH222800   5.287   3.899   4.001 -0.4141 -0.7505  0.3280
  462TIP3    H122801   5.254   3.983   4.034  0.6198 -0.3537  0.3724
  462TIP3    H222802   5.216   3.837   4.019 -0.6592 -0.1557  1.4949
  463TIP3   OH222803   5.207   6.338  10.693  0.0961  0.4859  0.0596
  463TIP3    H122804   5.264   6.292  10.754 -1.1960  0.7816  1.5563
  463TIP3    H222805   5.134   6.277  10.678 -0.9662  1.4638  1.0146
  464TIP3   OH222806   1.603   6.579  12.906  0.2145 -0.2904  0.6113
  464TIP3    H122807   1.514   6.548  12.922  0.0410  0.2984  0.8215
  464TIP3    H222808   1.605   6.597  12.812  0.4545 -1.3452  0.4060
  465TIP3   OH222809   2.405   3.756  12.677  0.4568  0.1275 -0.2106
  465TIP3    H122810   2.330   3.710  12.639 -1.6139  2.9239  0.2527
  465TIP3    H222811   2.381   3.769  12.769  1.6002  0.9583 -0.0138
  466TIP3   OH222812   4.444   5.164   0.855 -0.1389  0.4202 -0.3042
  466TIP3    H122813   4.404   5.247   0.830 -0.4172  0.3753 -0.0101
  466TIP3    H222814   4.531   5.167   0.817 -0.1737  0.8191 -0.3528
  467TIP3   OH222815   4.597   3.345  15.073  0.8966 -0.1041 -0.4655
  467TIP3    H122816   4.512   3.328  15.033  0.6557  0.3023 -0.1386
  467TIP3    H222817   4.649   3.266  15.056  0.0907 -0.8280  0.3052
  468TIP3   OH222818   1.548   6.441   3.113 -0.2651  0.5906 -0.9177
  468TIP3    H122819   1.575   6.351   3.096 -1.5392  0.2110 -0.9951
  468TIP3    H222820   1.600   6.493   3.052  0.3067 -0.1051 -1.0393
  469TIP3   OH222821   1.715   2.634   3.586 -0.0275  0.3096  0.1480
  469TIP3    H122822   1.789   2.615   3.528  0.4667 -1.1542  1.1728
  469TIP3    H222823   1.753   2.691   3.654  0.1168 -0.2457  0.5413
  470TIP3   OH222824   3.866   3.920   4.333  0.2492 -0.1123  0.5291
  470TIP3    H122825   3.846   3.941   4.425  1.1347  1.2186  0.4376
  470TIP3    H222826   3.912   3.837   4.338  1.0480  0.3613  1.3863
  471TIP3   OH222827   4.816   3.148  14.312 -0.0652 -0.2393 -0.1089
  471TIP3    H122828   4.860   3.068  14.338  1.1747  0.2314 -0.6923
  471TIP3    H222829   4.818   3.203  14.390 -0.9916 -0.7886  0.3167
  472TIP3   OH222830   2.755   2.080  15.378 -0.0894  0.7397 -0.0117
  472TIP3    H122831   2.821   2.144  15.405  0.8743  0.2867 -1.2151
  472TIP3    H222832   2.776   2.001  15.428  0.7252  0.3866 -0.8842
  473TIP3   OH222833   5.950   5.512   4.020  0.8253 -0.3241  0.7818
  473TIP3    H122834   5.892   5.581   3.988  0.4644 -0.9652  0.0202
  473TIP3    H222835   5.984   5.546   4.103 -0.2107  0.2980  0.9717
  474TIP3   OH222836   3.811   0.295   0.952  0.5262 -0.3756  0.5771
  474TIP3    H122837   3.813   0.212   0.903  0.7214  1.2162 -2.3056
  474TIP3    H222838   3.884   0.288   1.013  0.7241 -2.1774  0.2076
  475TIP3   OH222839   6.398   2.200  13.270  0.5158 -0.2243 -0.0035
  475TIP3    H122840   6.440   2.165  13.191 -0.3769  0.2791 -0.7314
  475TIP3    H222841   6.377   2.291  13.247  1.0146  0.1923  1.1362
  476TIP3   OH222842   1.826   1.161  11.939 -0.5976 -0.2182 -0.3910
  476TIP3    H122843   1.867   1.089  11.986  1.2983 -0.5683 -2.3906
  476TIP3    H222844   1.884   1.236  11.953 -0.0666 -0.2923 -1.9093
  477TIP3   OH222845   4.171   1.543   3.903  0.1653  0.7220 -0.1487
  477TIP3    H122846   4.085   1.577   3.927  0.8384  0.8361  2.4899
  477TIP3    H222847   4.168   1.450   3.927  0.6690  0.6420 -0.3771
  478TIP3   OH222848   5.684   0.516   3.918  0.2179 -0.2071  0.1013
  478TIP3    H122849   5.707   0.548   3.831  0.4999  0.9223  0.5699
  478TIP3    H222850   5.590   0.499   3.914  0.4533 -1.3762 -0.7816
  479TIP3   OH222851   6.290   2.210   2.149 -0.7027 -0.2734 -0.1974
  479TIP3    H122852   6.333   2.252   2.075  0.7698 -0.8462  0.3005
  479TIP3    H222853   6.242   2.136   2.111  1.0017 -1.2754 -0.4725
  480TIP3   OH222854   5.737   0.927   1.488  0.0491 -0.2230 -0.5040
  480TIP3    H122855   5.705   0.990   1.423 -0.5446  0.3955  0.3724
  480TIP3    H222856   5.800   0.873   1.440  0.5451  1.0105 -1.2812
  481TIP3   OH222857   2.639   2.362  14.130 -0.2781  0.4456  0.5260
  481TIP3    H122858   2.554   2.401  14.151 -0.4119  0.8533 -0.6845
  481TIP3    H222859   2.625   2.268  14.143 -0.1318  0.6941  2.8445
  482TIP3   OH222860   0.200   0.391   0.161  0.0082  0.4817 -0.3645
  482TIP3    H122861   0.265   0.416   0.095 -0.3247 -0.6699 -1.1723
  482TIP3    H222862   0.248   0.333   0.220 -0.0124  0.5039 -0.3261
  483TIP3   OH222863   5.427   5.640   0.479  0.4108  0.1598  0.1686
  483TIP3    H122864   5.497   5.696   0.444 -0.3853  0.5736 -0.8465
  483TIP3    H222865   5.467   5.553   0.485  1.0541  0.4099 -0.2725
  484TIP3   OH222866   6.528   1.076   2.393 -0.3941 -0.1138 -0.1960
  484TIP3    H122867   6.472   1.151   2.414 -3.9969 -2.2628 -1.3893
  484TIP3    H222868   6.555   1.091   2.302  0.5814  0.6154  0.1868
  485TIP3   OH222869   5.942   2.966   5.658 -0.2016  0.0107  0.2668
  485TIP3    H122870   5.869   2.923   5.702 -0.1664 -1.0141 -0.6458
  485TIP3    H222871   6.019   2.919   5.687 -0.0417  0.2031  0.1610
  486TIP3   OH222872   5.410   3.014  17.077  0.6894 -0.0211  0.0700
  486TIP3    H122873   5.346   2.997  17.008 -0.0471  1.3350  0.3933
  486TIP3    H222874   5.478   2.948  17.063  0.7654  0.4542 -2.1932
  487TIP3   OH222875   1.519   3.234   6.220 -0.2307 -1.0751  0.2700
  487TIP3    H122876   1.515   3.231   6.124  2.3132  1.1712 -0.0165
  487TIP3    H222877   1.571   3.157   6.244  1.3929 -0.2293 -0.4289
  488TIP3   OH222878   5.304   0.612   2.732 -0.8464  0.3050  0.0414
  488TIP3    H122879   5.384   0.663   2.740 -1.0392  0.6128  0.0292
  488TIP3    H222880   5.234   0.677   2.731 -1.0960  0.0399  0.0392
  489TIP3   OH222881   6.118   4.834  15.464  0.0648 -0.3374  0.2608
  489TIP3    H122882   6.041   4.866  15.511 -0.8066 -0.3581 -1.0970
  489TIP3    H222883   6.141   4.752  15.507 -1.1129 -0.6868  0.2370
  490TIP3   OH222884   2.950   3.656   1.087  1.0389  0.1869  0.5086
  490TIP3    H122885   3.045   3.650   1.076  0.9886  1.9642 -1.3586
  490TIP3    H222886   2.939   3.686   1.177  2.2191 -0.0782  0.7658
  491TIP3   OH222887   6.053   4.893  11.378  0.3511  0.2944 -0.0334
  491TIP3    H122888   6.133   4.941  11.401  0.7248 -0.8068  1.0805
  491TIP3    H222889   6.075   4.850  11.295  0.6241  0.6626 -0.1548
  492TIP3   OH222890   3.205   2.910  15.157 -0.3605 -0.2717 -0.1957
  492TIP3    H122891   3.158   2.834  15.193  0.4280 -0.8191 -0.2922
  492TIP3    H222892   3.167   2.923  15.070 -1.7751  0.6049  0.5141
  493TIP3   OH222893   5.805   0.259  16.741  0.3887  0.2228 -0.2863
  493TIP3    H122894   5.753   0.185  16.708  1.3469  0.6460 -2.9581
  493TIP3    H222895   5.873   0.272  16.675  0.5953  3.1521  0.3667
  494TIP3   OH222896   0.483   6.578  12.701 -0.2174 -0.3462 -0.0712
  494TIP3    H122897   0.411   6.602  12.760 -1.6813 -0.6520 -1.6797
  494TIP3    H222898   0.532   6.660  12.689 -1.1304  0.2026 -0.0930
  495TIP3   OH222899   4.983   1.537   5.450  0.4017  0.4572 -0.1563
  495TIP3    H122900   5.059   1.517   5.395  1.7131  0.1295  1.7025
  495TIP3    H222901   4.995   1.629   5.474 -1.7486  1.5394 -2.7220
  496TIP3   OH222902   5.872   1.438  14.746 -0.0051  0.2857 -0.2441
  496TIP3    H122903   5.813   1.513  14.756 -0.6927 -0.2044 -0.5422
  496TIP3    H222904   5.852   1.402  14.660  0.0044 -0.5019  0.0733
  497TIP3   OH222905   3.649   3.851  16.835 -0.3761 -0.6967  0.2436
  497TIP3    H122906   3.684   3.773  16.792  1.8507 -0.2463  1.1031
  497TIP3    H222907   3.559   3.828  16.857 -1.0223 -1.6271 -2.8626
  498TIP3   OH222908   0.527   4.760   2.670 -0.0812  0.5443 -0.3324
  498TIP3    H122909   0.449   4.814   2.664 -0.6217 -0.2691 -0.8875
  498TIP3    H222910   0.527   4.709   2.589  0.3774 -0.3241  0.1959
  499TIP3   OH222911   4.417   4.926  15.232 -0.7633 -0.3144 -0.7590
  499TIP3    H122912   4.354   4.989  15.196 -1.2908 -1.1098 -1.2594
  499TIP3    H222913   4.413   4.939  15.327 -0.3933  0.8397 -0.8877
  500TIP3   OH222914   5.835   3.890   3.435 -0.1578 -0.1065  0.3139
  500TIP3    H122915   5.807   3.953   3.369 -1.2832  0.3578  1.1855
  500TIP3    H222916   5.906   3.934   3.481 -1.8634  1.2339  1.8634
  501TIP3   OH222917   2.383   3.905  14.708  0.2322 -0.8033 -0.4287
  501TIP3    H122918   2.400   3.970  14.776 -0.3728 -0.7513 -0.3232
  501TIP3    H222919   2.463   3.852  14.705  0.1527 -0.9954  0.5342
  502TIP3   OH222920   2.149   1.764  12.934 -0.4744 -0.0795  0.7674
  502TIP3    H122921   2.212   1.697  12.911 -0.1301  0.5915 -0.3285
  502TIP3    H222922   2.200   1.830  12.982 -0.4242  0.2408  0.2851
  503TIP3   OH222923   1.510   6.095  11.270 -0.2071  0.1171 -0.0173
  503TIP3    H122924   1.454   6.061  11.200 -1.7483  1.4040  0.5170
  503TIP3    H222925   1.545   6.177  11.235 -0.4672  0.4431  0.4736
  504TIP3   OH222926   6.643   3.866  17.057  0.1658  0.3273  0.1888
  504TIP3    H122927   6.572   3.928  17.041  0.7233  0.4262 -2.4463
  504TIP3    H222928   6.716   3.921  17.086 -0.3632  0.4252  1.3601
  505TIP3   OH222929   6.390   2.422   0.956 -0.8027  0.2127  0.0607
  505TIP3    H122930   6.339   2.452   1.032 -1.9717 -0.7305 -0.3176
  505TIP3    H222931   6.434   2.343   0.987 -0.5564  0.3296  0.0135
  506TIP3   OH222932   3.607   0.338  13.481 -0.2140  0.0615 -0.2526
  506TIP3    H122933   3.519   0.375  13.489  0.2247  0.9945  0.6044
  506TIP3    H222934   3.665   0.414  13.487  0.6783 -0.6377  0.2055
  507TIP3   OH222935   6.279   6.650   5.554  0.0101  0.2456  0.5562
  507TIP3    H122936   6.226   6.593   5.610 -0.0145  0.2604  0.5483
  507TIP3    H222937   6.307   6.721   5.611  2.5943 -1.3020  1.3915
  508TIP3   OH222938   0.484   5.174  12.730  0.0273 -0.1491 -0.0679
  508TIP3    H122939   0.443   5.259  12.748 -0.8794 -0.9579  1.9667
  508TIP3    H222940   0.414   5.122  12.690 -0.5937 -1.0713  2.0877
  509TIP3   OH222941   4.771   4.149   0.689  0.2704  0.3547 -0.1281
  509TIP3    H122942   4.778   4.148   0.593  1.7842  0.7322 -0.0540
  509TIP3    H222943   4.803   4.063   0.716  2.5167  1.2047  0.1264
  510TIP3   OH222944   3.150   4.717   4.385 -0.4264  0.3277 -0.3779
  510TIP3    H122945   3.082   4.654   4.360  0.7428 -2.0519  2.0269
  510TIP3    H222946   3.176   4.691   4.473  3.7662  0.9880 -1.2424
  511TIP3   OH222947   1.407   5.743  16.925  0.2779  0.2061 -0.3372
  511TIP3    H122948   1.465   5.673  16.953 -0.8502 -0.3895  0.6187
  511TIP3    H222949   1.383   5.719  16.835 -0.1978 -0.7168  0.0256
  512TIP3   OH222950   4.077   6.419   4.288  0.2573  0.2074 -0.0729
  512TIP3    H122951   3.988   6.399   4.259  0.2664  0.9857 -0.6766
  512TIP3    H222952   4.089   6.366   4.367 -1.0677  0.8062  0.5551
  513TIP3   OH222953   5.525   6.759   1.551  0.5119  0.2323  0.2392
  513TIP3    H122954   5.489   6.703   1.483 -0.0190 -0.4469  1.0688
  513TIP3    H222955   5.450   6.785   1.604  0.8181  1.3241  0.1761
  514TIP3   OH222956   3.081   2.514   3.634 -0.2529  0.2154  0.2609
  514TIP3    H122957   3.069   2.607   3.617 -1.0797  0.4984  2.1526
  514TIP3    H222958   3.087   2.507   3.730  1.2155 -1.5229  0.1070
  515TIP3   OH222959   6.176   1.727  14.516  0.0296  0.1198  0.2095
  515TIP3    H122960   6.155   1.811  14.557  1.4374  2.0207 -2.6409
  515TIP3    H222961   6.092   1.694  14.485 -0.2105  2.3371 -1.7697
  516TIP3   OH222962   0.700   1.840  14.094  0.0168 -0.2508 -0.4548
  516TIP3    H122963   0.657   1.776  14.036 -0.6245 -0.6914  0.4890
  516TIP3    H222964   0.666   1.820  14.181  0.6673  0.6676  0.0211
  517TIP3   OH222965   3.543   1.553  16.010 -0.6215  0.3336 -0.4598
  517TIP3    H122966   3.535   1.464  16.044  1.2872  1.0689  2.2139
  517TIP3    H222967   3.471   1.601  16.053 -0.1591  0.5756  0.0580
  518TIP3   OH222968   2.509   6.769   5.523  0.2330  0.0960  0.2023
  518TIP3    H122969   2.445   6.730   5.583  2.0831 -0.1059  2.1624
  518TIP3    H222970   2.497   6.864   5.534  1.0857  0.0669  1.5383
  519TIP3   OH222971   2.768   0.947   2.725 -0.0887 -0.5249  0.0392
  519TIP3    H122972   2.808   0.883   2.785  0.5966 -0.8380 -0.7284
  519TIP3    H222973   2.674   0.935   2.737 -0.1122  1.5696  3.3431
  520TIP3   OH222974   0.764   6.308   3.304  0.0894  0.2587  0.4678
  520TIP3    H122975   0.757   6.303   3.209 -1.1030  0.6833  0.5094
  520TIP3    H222976   0.807   6.391   3.322  2.2373 -0.7574  0.2702
  521TIP3   OH222977   5.389   1.113   1.667  0.4224  0.4561 -0.2904
  521TIP3    H122978   5.364   1.180   1.730  0.0558  0.5492 -0.5330
  521TIP3    H222979   5.461   1.066   1.709 -0.2608  0.0814  0.4789
  522TIP3   OH222980   4.098   3.099  15.107  0.2024 -0.1036  0.2906
  522TIP3    H122981   4.134   3.033  15.166 -1.6019 -1.4168  0.0219
  522TIP3    H222982   4.027   3.139  15.158 -1.1358 -1.0014 -0.8150
  523TIP3   OH222983   0.542   2.971   3.814 -0.1792  0.7735  0.1552
  523TIP3    H122984   0.633   2.968   3.788  0.2052  3.0725  0.9405
  523TIP3    H222985   0.506   2.886   3.789  2.2118 -0.2793  0.0618
  524TIP3   OH222986   0.208   5.730   1.696  0.0394 -0.0917 -0.3940
  524TIP3    H122987   0.254   5.803   1.737 -1.5074  0.5255  0.3579
  524TIP3    H222988   0.157   5.691   1.768 -0.0417 -1.1968 -1.0262
  525TIP3   OH222989   4.099   4.602  13.201 -0.1249  0.1042 -0.2794
  525TIP3    H122990   4.192   4.622  13.200 -0.2158  0.5230 -1.1455
  525TIP3    H222991   4.056   4.687  13.206 -0.4649 -0.1403  1.7987
  526TIP3   OH222992   2.874   5.128   2.893 -0.2703 -0.0157  0.1419
  526TIP3    H122993   2.938   5.197   2.877 -0.9132  0.6117  0.2461
  526TIP3    H222994   2.802   5.146   2.833  0.2451 -1.5453 -1.0030
  527TIP3   OH222995   5.040   1.649   2.469 -0.0224  0.1095 -0.2229
  527TIP3    H122996   5.080   1.604   2.544 -2.5458 -0.3737  0.9248
  527TIP3    H222997   4.990   1.721   2.508  0.0355  0.9665 -1.6420
  528TIP3   OH222998   6.736   5.873   2.352  0.5754 -0.3982  0.3297
  528TIP3    H122999   6.647   5.851   2.380  0.5108  1.1655  1.4476
  528TIP3    H223000   6.782   5.789   2.352 -0.5943 -1.0727  0.8273
  529TIP3   OH223001   3.904   3.729  12.996  0.0850  0.0239  0.1758
  529TIP3    H123002   3.825   3.720  12.944 -0.0927 -0.2014  0.4839
  529TIP3    H223003   3.961   3.787  12.944  0.0197 -0.4163 -0.3878
  530TIP3   OH223004   6.041   5.995   6.183  0.3707 -0.1733  0.0505
  530TIP3    H123005   6.115   5.939   6.206  1.0846  0.4846 -0.5763
  530TIP3    H223006   6.067   6.036   6.100  0.8228  2.6393  1.4459
  531TIP3   OH223007   0.943   3.062  14.411  0.1418 -0.8238  0.1664
  531TIP3    H123008   0.997   3.122  14.359 -1.1588 -0.8285 -1.2416
  531TIP3    H223009   1.006   3.001  14.450  1.3261  0.3854  0.2163
  532TIP3   OH223010   1.748   1.356  15.422 -0.4521 -0.0068  0.2846
  532TIP3    H123011   1.697   1.341  15.502  0.8208 -0.9563  0.9465
  532TIP3    H223012   1.834   1.384  15.453 -0.1617  0.3404 -0.7823
  533TIP3   OH223013   6.509   6.358  14.704 -0.5458  0.3524 -0.3132
  533TIP3    H123014   6.514   6.268  14.738  1.1804  0.7422  0.5231
  533TIP3    H223015   6.587   6.368  14.650 -1.8231  0.6806 -2.1871
  534TIP3   OH223016   0.444   0.834  11.315 -0.4315 -0.5426  0.6515
  534TIP3    H123017   0.493   0.891  11.375 -0.0269  0.9698 -1.0378
  534TIP3    H223018   0.353   0.844  11.342 -0.0466 -1.9280  2.6405
  535TIP3   OH223019   5.663   3.677   2.825 -0.3213  0.3670  0.1316
  535TIP3    H123020   5.628   3.595   2.792  1.1256 -0.8200  1.3951
  535TIP3    H223021   5.615   3.692   2.907 -0.4478  0.6956 -0.0003
  536TIP3   OH223022   1.094   3.560   5.135  0.8891 -0.4403  0.5326
  536TIP3    H123023   1.096   3.561   5.231  2.9180  0.2362  0.5345
  536TIP3    H223024   1.079   3.652   5.111  1.8610 -0.3509  0.2287
  537TIP3   OH223025   2.813   4.440  14.170 -0.5140  0.1839 -0.2088
  537TIP3    H123026   2.753   4.489  14.113 -0.2815  1.1965  0.3902
  537TIP3    H223027   2.865   4.508  14.213  1.5211 -0.7007 -1.1838
  538TIP3   OH223028   1.005   2.460   0.139 -0.3116 -0.3865 -0.1998
  538TIP3    H123029   1.017   2.390   0.075 -3.1165  0.0982 -1.4117
  538TIP3    H223030   1.075   2.523   0.120  0.0770 -1.1656 -1.4915
  539TIP3   OH223031   1.061   2.219   0.008  0.4956 -0.0577  0.7356
  539TIP3    H123032   1.052   2.157  -0.064  0.4451  0.3970  0.3503
  539TIP3    H223033   1.146   2.199   0.046  0.5401 -0.2695  0.5258
  540TIP3   OH223034   6.579   1.005  12.892  0.6264  0.0240  0.3806
  540TIP3    H123035   6.571   1.020  12.798  0.2704  0.3351  0.4602
  540TIP3    H223036   6.602   0.912  12.899  1.3053  0.1490 -0.0372
  541TIP3   OH223037   2.299   2.150  15.494 -0.4206 -0.3944 -0.3291
  541TIP3    H123038   2.321   2.064  15.460 -0.3689 -0.5130  0.0019
  541TIP3    H223039   2.206   2.161  15.476 -0.4261 -0.5192 -0.3721
  542TIP3   OH223040   4.440   6.255   2.546 -0.5755 -0.2838 -0.9556
  542TIP3    H123041   4.346   6.269   2.555 -0.3696  1.1286 -0.8296
  542TIP3    H223042   4.480   6.335   2.581  0.7306 -1.5301  0.5681
  543TIP3   OH223043   6.553   1.228  11.033  0.0005 -0.0249 -0.3644
  543TIP3    H123044   6.516   1.168  11.097  0.0934  0.8002  0.4857
  543TIP3    H223045   6.477   1.273  10.996 -0.0342 -0.3187 -0.6574
  544TIP3   OH223046   3.617   4.606   0.612  0.3259  0.0110  0.6820
  544TIP3    H123047   3.646   4.573   0.527  0.1869 -2.6703  1.5991
  544TIP3    H223048   3.585   4.529   0.659 -1.6561  1.7330  2.3892
  545TIP3   OH223049   5.994   2.858   2.449  0.3380 -0.4869 -0.5246
  545TIP3    H123050   5.946   2.927   2.403 -0.4342 -0.8287 -0.2501
  545TIP3    H223051   5.974   2.778   2.400 -1.8347 -1.1471  1.2667
  546TIP3   OH223052   6.262   4.132  14.834  0.2449 -0.3944  0.5648
  546TIP3    H123053   6.318   4.068  14.876  0.4453  0.7072  2.0535
  546TIP3    H223054   6.220   4.179  14.906 -0.3188  0.7625 -0.4709
  547TIP3   OH223055   2.250   1.375  11.034 -0.1366 -0.0517 -0.8192
  547TIP3    H123056   2.239   1.321  10.956 -0.8181 -1.2331  0.0433
  547TIP3    H223057   2.327   1.338  11.078  0.3478  0.7145 -1.0125
  548TIP3   OH223058   1.072   1.743  12.916 -0.3130 -0.2614 -0.0619
  548TIP3    H123059   1.163   1.715  12.905 -0.1155 -0.1804  1.1927
  548TIP3    H223060   1.061   1.815  12.854  0.5808 -0.0815 -0.0240
  549TIP3   OH223061   3.583   3.351  15.102 -0.5029  0.3665  0.0455
  549TIP3    H123062   3.583   3.326  15.010  0.2803  1.0355 -0.1460
  549TIP3    H223063   3.498   3.321  15.135  0.0085 -1.6721 -0.3875
  550TIP3   OH223064   5.686   0.266   3.102  0.3381  0.7400  0.2109
  550TIP3    H123065   5.610   0.318   3.130 -0.0863  0.8812 -1.1019
  550TIP3    H223066   5.762   0.318   3.128 -0.0655  1.5829 -0.2504
  551TIP3   OH223067   5.832   3.776   2.108 -0.2988 -0.0312 -0.2265
  551TIP3    H123068   5.880   3.695   2.094 -2.1328 -1.3677  0.8549
  551TIP3    H223069   5.789   3.793   2.024 -0.9417 -0.9176 -0.0908
  552TIP3   OH223070   5.863   5.899  14.470 -0.3554  0.7168  0.1475
  552TIP3    H123071   5.892   5.988  14.454 -0.2666  0.7953  0.7226
  552TIP3    H223072   5.822   5.871  14.388  1.7693  0.4201 -0.8785
  553TIP3   OH223073   2.083   2.489   0.719 -0.6917  0.1310 -0.0160
  553TIP3    H123074   2.062   2.544   0.794 -0.2564 -0.5075  0.5882
  553TIP3    H223075   2.074   2.399   0.752  0.9294 -0.1590 -0.3048
  554TIP3   OH223076   2.858   2.602  15.603 -0.1883  0.1526 -0.5496
  554TIP3    H123077   2.930   2.582  15.664  0.5841  1.2416 -1.0602
  554TIP3    H223078   2.861   2.531  15.538  1.5242  1.0079 -1.4910
  555TIP3   OH223079   3.165   2.442  11.519 -0.5487 -0.0982  0.0561
  555TIP3    H123080   3.093   2.504  11.520 -0.8906 -0.4878  0.8784
  555TIP3    H223081   3.124   2.356  11.507  0.0069 -0.0990 -2.3613
  556TIP3   OH223082   2.220   1.433  16.700  0.5649  0.0245  0.1604
  556TIP3    H123083   2.129   1.464  16.695  1.0798  1.5353 -0.2707
  556TIP3    H223084   2.263   1.495  16.759  1.6198  0.1014 -0.6744
  557TIP3   OH223085   0.040   4.100  17.065  0.3347  0.1339 -0.0605
  557TIP3    H123086   0.041   4.118  17.159  0.5120 -1.1694  0.2048
  557TIP3    H223087   0.131   4.112  17.038  0.0115  2.1020 -0.4169
  558TIP3   OH223088   3.124   0.189   6.405 -0.4360 -0.4844 -0.4808
  558TIP3    H123089   3.190   0.166   6.470  0.6370 -1.5112 -1.8812
  558TIP3    H223090   3.055   0.124   6.415 -0.0159 -0.9711 -0.7136
  559TIP3   OH223091   1.564   3.620  14.335  0.6971  0.0297 -0.1144
  559TIP3    H123092   1.484   3.671  14.327  0.8562  0.0392 -2.1330
  559TIP3    H223093   1.595   3.638  14.423 -1.8060 -0.4363  0.9428
  560TIP3   OH223094   6.717   5.247   1.645  0.0714  0.4511 -0.1104
  560TIP3    H123095   6.717   5.226   1.552  2.5993  2.3121 -0.6428
  560TIP3    H223096   6.719   5.162   1.689 -0.1023 -0.4545 -1.7641
  561TIP3   OH223097   6.443   3.490  13.230 -0.7108 -0.0682 -0.3802
  561TIP3    H123098   6.381   3.458  13.164 -0.1602  0.9860 -1.4414
  561TIP3    H223099   6.515   3.427  13.227 -1.7695 -1.4325  1.0192
  562TIP3   OH223100   4.329   6.036  16.842  0.1524  0.3946 -0.1371
  562TIP3    H123101   4.338   6.108  16.780  1.7058 -1.1657 -1.8620
  562TIP3    H223102   4.399   6.051  16.907 -1.2609  1.8430  1.1328
  563TIP3   OH223103   4.609   5.565  13.939  0.0386 -0.3408 -0.3250
  563TIP3    H123104   4.598   5.639  13.999  0.4498  0.1749 -0.8664
  563TIP3    H223105   4.591   5.602  13.852 -0.3867 -1.0358 -0.5430
  564TIP3   OH223106   3.787   1.882  11.486 -0.4671  0.3425 -0.0039
  564TIP3    H123107   3.845   1.806  11.475 -1.1639 -0.1269 -0.5378
  564TIP3    H223108   3.705   1.855  11.444 -0.9130  1.1759  0.3238
  565TIP3   OH223109   1.248   2.981   5.367  0.7473  0.0777 -0.1791
  565TIP3    H123110   1.327   2.970   5.315  0.6113  0.2769 -0.4285
  565TIP3    H223111   1.186   2.918   5.331  0.3180  0.9012 -0.9247
  566TIP3   OH223112   0.694   5.288  14.294 -0.1377 -0.0468  0.5068
  566TIP3    H123113   0.703   5.265  14.202  1.4117 -0.9091  0.8306
  566TIP3    H223114   0.602   5.273  14.314 -0.1772 -1.3286 -0.5273
  567TIP3   OH223115   2.533   6.511  14.311 -0.1222 -0.0685 -0.7617
  567TIP3    H123116   2.611   6.461  14.337 -0.9773  0.1240  2.5639
  567TIP3    H223117   2.461   6.448  14.316 -0.8502  0.8587  1.0217
  568TIP3   OH223118   3.814   1.996  11.782  0.4809  0.7318 -0.0298
  568TIP3    H123119   3.846   1.952  11.703  1.2788  1.0884  0.0823
  568TIP3    H223120   3.881   1.978  11.848  0.4627  1.5154  0.2105
  569TIP3   OH223121   4.455   4.486  14.714  0.3034 -0.5959 -0.1618
  569TIP3    H123122   4.477   4.437  14.794  1.3720  0.6539  0.3569
  569TIP3    H223123   4.527   4.548  14.704 -1.2369  1.2168 -0.4925
  570TIP3   OH223124   6.030   3.255  11.435  0.1457 -0.3075 -0.6020
  570TIP3    H123125   5.997   3.344  11.445  2.8320  0.6386  0.6599
  570TIP3    H223126   6.050   3.247  11.341 -0.6682  0.1744 -0.8275
  571TIP3   OH223127   5.979   1.164   0.974 -0.4615 -0.2562 -0.0240
  571TIP3    H123128   5.928   1.140   1.052  0.7901  1.6922  1.5089
  571TIP3    H223129   6.064   1.123   0.988 -0.3503 -0.2113 -0.5637
  572TIP3   OH223130   2.166   5.804  12.842 -0.5012 -0.2782  0.6994
  572TIP3    H123131   2.158   5.719  12.800  1.5029 -0.7184  1.0706
  572TIP3    H223132   2.097   5.806  12.908 -3.1806  0.1006 -1.9457
  573TIP3   OH223133   6.607   1.873   1.000  0.3235 -0.0257  0.0070
  573TIP3    H123134   6.545   1.944   0.985 -0.5106 -0.6404  0.3850
  573TIP3    H223135   6.650   1.895   1.083  0.0129  0.0135  0.1615
  574TIP3   OH223136   1.233   1.973  15.253 -0.7614  0.3913  0.3087
  574TIP3    H123137   1.193   2.059  15.239  0.5648  0.7932 -1.3113
  574TIP3    H223138   1.162   1.910  15.242 -1.4162  1.1981 -0.1127
  575TIP3   OH223139   4.867   0.899  15.458  0.3529 -0.1244 -0.1837
  575TIP3    H123140   4.783   0.863  15.428 -0.4619  1.1057  0.5448
  575TIP3    H223141   4.904   0.940  15.380  0.9080 -1.7737 -0.8218
  576TIP3   OH223142   5.740   5.531  13.652 -0.0170 -0.0476 -0.5249
  576TIP3    H123143   5.744   5.471  13.577 -0.9574  0.0910 -0.6983
  576TIP3    H223144   5.803   5.495  13.714 -2.5198 -2.9110  0.5956
  577TIP3   OH223145   5.470   2.371   2.840  0.5497  0.5144  0.5750
  577TIP3    H123146   5.389   2.320   2.849  0.5018 -0.0774 -2.2512
  577TIP3    H223147   5.451   2.453   2.886 -1.4188  0.1123  0.5939
  578TIP3   OH223148   2.320   4.218  15.635  0.1333  0.2231  0.1094
  578TIP3    H123149   2.391   4.245  15.576  0.5884  0.8271  0.9110
  578TIP3    H223150   2.249   4.192  15.576  0.1057  2.0420 -0.7412
  579TIP3   OH223151   6.024   4.651  16.146  0.1701 -0.2644  0.1287
  579TIP3    H123152   5.970   4.716  16.191 -0.3827 -0.1001 -0.7433
  579TIP3    H223153   5.969   4.573  16.141  0.4257 -0.4519  0.2083
  580TIP3   OH223154   4.584   0.405   0.186  0.1027  0.2150 -0.6582
  580TIP3    H123155   4.504   0.442   0.147 -0.7328 -0.3308  0.4695
  580TIP3    H223156   4.570   0.310   0.185  0.2033  0.1628  0.6014
  581TIP3   OH223157   3.509   0.628  10.497 -0.3956 -0.1089 -0.0214
  581TIP3    H123158   3.542   0.685  10.567 -0.1206 -1.0220  0.6078
  581TIP3    H223159   3.434   0.583  10.536 -0.7397 -0.0339 -0.5818
  582TIP3   OH223160   3.302   6.545   0.039 -0.3126 -0.4893 -0.6310
  582TIP3    H123161   3.261   6.551  -0.047 -1.0851 -0.7668 -0.2918
  582TIP3    H223162   3.254   6.608   0.093 -0.6040 -1.1425 -0.1130
  583TIP3   OH223163   0.278   2.287   0.540 -0.1824  0.4461 -0.4013
  583TIP3    H123164   0.309   2.205   0.577  1.0925  0.6294 -1.0206
  583TIP3    H223165   0.306   2.354   0.602  0.2075  0.5618 -0.6982
  584TIP3   OH223166   5.839   0.819  17.142 -0.3948  0.4333 -0.2081
  584TIP3    H123167   5.833   0.887  17.074  2.3836  0.6399 -0.3520
  584TIP3    H223168   5.932   0.817  17.166 -0.9543 -1.0844  2.1335
  585TIP3   OH223169   0.267   4.788  12.608 -0.1650 -0.1047  0.1258
  585TIP3    H123170   0.360   4.812  12.611 -0.4017  1.0601 -1.2467
  585TIP3    H223171   0.246   4.764  12.698  1.6753 -1.2198  0.3046
  586TIP3   OH223172   5.323   4.923  11.230 -0.6155 -0.5220  0.1399
  586TIP3    H123173   5.349   4.832  11.217 -1.3373 -0.5574 -1.2565
  586TIP3    H223174   5.349   4.967  11.149  0.9160  0.8200  1.3055
  587TIP3   OH223175   6.647   5.521  16.873 -0.8956 -0.7879  0.2209
  587TIP3    H123176   6.696   5.466  16.934 -0.7118  1.6840  2.4909
  587TIP3    H223177   6.557   5.519  16.906 -0.3801  2.4434  2.2421
  588TIP3   OH223178   0.588   0.338  12.007  0.0329 -0.1295 -0.0652
  588TIP3    H123179   0.500   0.336  11.970  0.3638 -0.1585 -0.8895
  588TIP3    H223180   0.637   0.274  11.954  0.4819 -0.3002  0.5470
  589TIP3   OH223181   3.831   3.245   5.772  0.0068 -0.0391 -0.0683
  589TIP3    H123182   3.835   3.223   5.865  1.1643  1.5133  0.2889
  589TIP3    H223183   3.841   3.340   5.770  2.4564 -0.2616 -1.9120
  590TIP3   OH223184   2.151   1.813  12.182  0.1717  0.2153 -0.2297
  590TIP3    H123185   2.112   1.873  12.118  1.7960  0.1556 -1.3419
  590TIP3    H223186   2.135   1.854  12.266 -1.0381  0.8663 -0.7407
  591TIP3   OH223187   5.563   2.221  16.097  0.4282 -0.0769  0.8521
  591TIP3    H123188   5.606   2.266  16.025  0.7381  0.6135  1.4541
  591TIP3    H223189   5.635   2.183  16.148  0.1326 -2.3522 -0.3158
  592TIP3   OH223190   4.406   0.085  13.227 -0.3586  0.6681 -0.1009
  592TIP3    H123191   4.392   0.136  13.147 -2.0818 -1.2568 -1.1341
  592TIP3    H223192   4.403   0.149  13.298 -0.6619  2.2006 -1.4498
  593TIP3   OH223193   4.047   4.408   2.966  0.2270 -0.0146  0.3491
  593TIP3    H123194   4.012   4.411   3.055 -0.3291  2.0671  0.1156
  593TIP3    H223195   4.106   4.483   2.961  0.9474 -0.6377 -0.7673
  594TIP3   OH223196   3.363   6.120  14.071 -0.2686 -0.1431  0.3223
  594TIP3    H123197   3.453   6.141  14.094  0.5010 -1.9455 -0.7979
  594TIP3    H223198   3.350   6.160  13.985  0.0297 -1.2186 -0.2384
  595TIP3   OH223199   1.096   2.304  12.292  0.2618  0.2816 -0.0341
  595TIP3    H123200   1.128   2.393  12.282  1.2606  0.0268  0.7088
  595TIP3    H223201   1.162   2.261  12.348 -1.8465 -0.0021  2.4053
  596TIP3   OH223202   5.821   6.384  12.073  0.1164  0.5521 -0.3538
  596TIP3    H123203   5.731   6.390  12.106 -0.1321 -0.3322 -0.8509
  596TIP3    H223204   5.873   6.431  12.138 -0.7522  1.4586 -0.2789
  597TIP3   OH223205   6.210   3.192   2.880 -0.1167  0.1464 -0.1245
  597TIP3    H123206   6.273   3.207   2.809  0.4798  0.7286  0.5048
  597TIP3    H223207   6.143   3.258   2.867 -0.5152 -0.3550 -0.6879
  598TIP3   OH223208   5.603   6.474  16.306  0.1307 -0.3547  0.0225
  598TIP3    H123209   5.680   6.441  16.260 -0.0606 -0.3294 -0.3159
  598TIP3    H223210   5.591   6.413  16.379  1.4240  0.5465  1.0307
  599TIP3   OH223211   1.580   3.188  16.833 -0.3624  0.2853  0.3303
  599TIP3    H123212   1.615   3.103  16.807 -0.2534  0.1504  0.9147
  599TIP3    H223213   1.492   3.191  16.795 -0.6664 -0.4138  0.9663
  600TIP3   OH223214   3.706   4.805   1.535  0.1535 -0.8152  0.3682
  600TIP3    H123215   3.669   4.775   1.451  0.0644  0.3597 -0.0324
  600TIP3    H223216   3.642   4.777   1.600 -1.0958  0.5103 -0.2371
  601TIP3   OH223217   0.135   4.252  12.448  0.2327  0.2465 -0.2698
  601TIP3    H123218   0.176   4.338  12.456  1.3254 -0.1072 -1.7204
  601TIP3    H223219   0.194   4.202  12.392 -1.5094 -0.7418 -1.3013
  602TIP3   OH223220   4.774   0.869  15.161 -0.9252 -0.0880  0.5464
  602TIP3    H123221   4.862   0.898  15.185 -1.5654  0.8821  1.8501
  602TIP3    H223222   4.788   0.792  15.106  0.7556  0.7735 -0.3077
  603TIP3   OH223223   6.106   5.049  12.499 -0.7258 -0.4344  0.9031
  603TIP3    H123224   6.079   5.055  12.408 -1.5190  1.0180  1.1954
  603TIP3    H223225   6.156   4.968  12.505  0.3906  0.0740 -1.0743
  604TIP3   OH223226   4.596   1.184   4.013  0.0944 -0.3394  0.4903
  604TIP3    H123227   4.569   1.258   3.958 -0.2461 -1.5283 -1.0299
  604TIP3    H223228   4.519   1.163   4.065 -0.0904 -0.1930  0.2748
  605TIP3   OH223229   2.545   2.459   4.436 -0.7609  0.1351  0.5138
  605TIP3    H123230   2.587   2.432   4.517  1.3592 -2.5490 -1.2852
  605TIP3    H223231   2.460   2.416   4.436  0.7540 -3.1202 -0.2509
  606TIP3   OH223232   5.922   3.507  15.548  0.0110  0.7722 -0.2076
  606TIP3    H123233   6.006   3.546  15.572 -0.7520  3.2467 -1.3028
  606TIP3    H223234   5.863   3.529  15.620  0.1467 -0.5518  0.3348
  607TIP3   OH223235   3.581   2.518  11.828  0.3959 -0.3134 -0.4887
  607TIP3    H123236   3.560   2.607  11.857  1.6260 -0.4610  1.0136
  607TIP3    H223237   3.496   2.478  11.811 -0.3192  0.4741  1.0129
  608TIP3   OH223238   1.414   6.748  14.069  0.0615  0.0816 -0.0738
  608TIP3    H123239   1.429   6.668  14.018 -0.3123  0.1540 -0.3000
  608TIP3    H223240   1.319   6.758  14.069 -0.1495 -1.1847  2.5715
  609TIP3   OH223241   4.440   2.725   2.192 -0.1147 -0.2862  0.7066
  609TIP3    H123242   4.482   2.724   2.106  0.5520 -0.4845  1.0243
  609TIP3    H223243   4.448   2.635   2.223  2.3324  0.3267  2.2132
  610TIP3   OH223244   6.749   4.243  16.644  0.2807  0.1447  0.8460
  610TIP3    H123245   6.710   4.232  16.558  1.0960 -0.9941  0.5930
  610TIP3    H223246   6.703   4.318  16.682 -1.1539 -0.2811  0.0330
  611TIP3   OH223247   1.111   4.464   4.455  0.3452 -0.5220 -0.1249
  611TIP3    H123248   1.051   4.538   4.438 -0.8604 -1.5998 -0.7526
  611TIP3    H223249   1.172   4.498   4.520 -0.6507  0.7919  0.1904
  612TIP3   OH223250   6.297   0.976   0.226  0.3493  0.3348 -0.7032
  612TIP3    H123251   6.249   0.900   0.194 -0.9349  1.1847 -0.8648
  612TIP3    H223252   6.371   0.984   0.167 -0.7972  0.5930 -2.1489
  613TIP3   OH223253   5.058   3.029  15.271  0.4847 -0.5453  0.0247
  613TIP3    H123254   4.987   3.088  15.246 -0.3994 -0.8804  1.6296
  613TIP3    H223255   5.138   3.080  15.257 -0.1787  0.5026 -0.0147
  614TIP3   OH223256   0.943   4.345   6.209 -0.3934  0.1592 -0.2076
  614TIP3    H123257   0.963   4.408   6.140  2.0043  1.1183  1.2452
  614TIP3    H223258   0.979   4.262   6.177 -1.3135  0.0578 -1.0307
  615TIP3   OH223259   5.633   4.188  14.978  0.5719  0.3298  0.2253
  615TIP3    H123260   5.714   4.177  14.929  0.4580 -0.1541  0.1402
  615TIP3    H223261   5.587   4.259  14.933  0.3432 -0.2929 -0.5482
  616TIP3   OH223262   4.364   4.090   5.914 -0.5878  0.4600 -0.3304
  616TIP3    H123263   4.290   4.127   5.962  1.4780  2.0804  1.9189
  616TIP3    H223264   4.391   4.014   5.966  0.2474  0.8311 -0.1941
  617TIP3   OH223265   1.924   2.327   2.118 -0.2648  0.5282 -0.0064
  617TIP3    H123266   1.874   2.407   2.133 -0.7708  0.1421  0.4305
  617TIP3    H223267   1.903   2.302   2.027 -1.0285  0.2746  0.2259
  618TIP3   OH223268   0.307   2.199   3.358  0.0401 -0.2348 -0.0545
  618TIP3    H123269   0.250   2.266   3.394  2.2579  1.3146  0.8452
  618TIP3    H223270   0.334   2.233   3.272  1.2254  0.1368  0.4348
  619TIP3   OH223271   4.139   6.147  13.702 -0.5935 -0.3497 -0.2992
  619TIP3    H123272   4.124   6.242  13.708  0.9709  0.0396 -1.6044
  619TIP3    H223273   4.195   6.127  13.777  0.9810  0.2463 -1.2680
  620TIP3   OH223274   0.679   2.087  13.000  0.1915  0.9904  0.4373
  620TIP3    H123275   0.712   2.012  12.949  0.7671  0.5328  1.4431
  620TIP3    H223276   0.676   2.159  12.937 -0.5733  0.0861 -0.6112
  621TIP3   OH223277   1.203   3.106  13.929  0.3389  0.5190 -0.3049
  621TIP3    H123278   1.189   3.101  13.834 -0.1639  1.6152 -0.3113
  621TIP3    H223279   1.222   3.199  13.945  0.0950  0.4023  0.7043
  622TIP3   OH223280   5.629   1.375   1.990 -0.8593  0.1396 -0.5191
  622TIP3    H123281   5.544   1.336   2.010 -1.2321  0.4406 -1.4835
  622TIP3    H223282   5.689   1.336   2.055 -1.6186 -0.4680 -0.1649
  623TIP3   OH223283   5.339   4.440   2.731 -1.3728  0.4681 -0.6255
  623TIP3    H123284   5.245   4.442   2.753 -1.1310 -0.6145  0.6580
  623TIP3    H223285   5.368   4.530   2.740 -1.8070  0.4630  1.4487
  624TIP3   OH223286   4.797   5.417  13.652  0.2613 -0.0469  0.0192
  624TIP3    H123287   4.735   5.365  13.704  0.5375 -1.4614 -0.9902
  624TIP3    H223288   4.743   5.484  13.610 -0.4891 -0.8233 -0.2879
  625TIP3   OH223289   1.707   1.464   4.701  0.1707 -0.1228  0.2874
  625TIP3    H123290   1.761   1.535   4.666 -0.7149  0.2696 -0.3220
  625TIP3    H223291   1.643   1.446   4.632 -0.1975 -0.8907  0.8063
  626TIP3   OH223292   5.258   4.275   5.145 -0.3502  0.3861 -0.2833
  626TIP3    H123293   5.226   4.342   5.084 -2.5418  0.9093  1.3227
  626TIP3    H223294   5.212   4.293   5.227  0.8955 -1.5902  0.9341
  627TIP3   OH223295   0.212   5.630  17.185 -0.6070  0.6662 -0.2208
  627TIP3    H123296   0.217   5.601  17.276 -1.4257  0.0508 -0.3670
  627TIP3    H223297   0.216   5.726  17.191 -1.6021  0.6768  0.5418
  628TIP3   OH223298   3.064   0.717  16.860 -0.0090  0.1164  0.3919
  628TIP3    H123299   3.045   0.771  16.937  2.0903 -1.3929  2.0949
  628TIP3    H223300   3.005   0.750  16.792  0.9316  4.3318  1.3635
  629TIP3   OH223301   6.702   4.316   3.882 -0.0470  0.1900 -0.4871
  629TIP3    H123302   6.768   4.368   3.929  1.8704 -1.3834 -1.2589
  629TIP3    H223303   6.670   4.254   3.948 -0.7871  0.9731 -0.1019
  630TIP3   OH223304   5.328   3.532   2.702 -0.1272  0.6760  0.5497
  630TIP3    H123305   5.412   3.485   2.700 -0.0568  0.7925 -0.9760
  630TIP3    H223306   5.340   3.604   2.639 -1.8490 -0.2319 -0.9180
  631TIP3   OH223307   0.090   6.166  16.820 -0.5210 -1.0322 -0.2956
  631TIP3    H123308   0.078   6.251  16.777  0.6968 -0.7491 -0.0959
  631TIP3    H223309   0.001   6.139  16.844 -0.9988 -0.1877 -1.0685
  632TIP3   OH223310   5.239   3.100   4.374 -0.0337 -0.0489  0.2482
  632TIP3    H123311   5.187   3.166   4.419  1.2977  0.4618  1.1144
  632TIP3    H223312   5.297   3.149   4.316 -0.3067 -0.5797 -0.4875
  633TIP3   OH223313   0.504   1.215  16.715 -0.3224  0.5164  0.0630
  633TIP3    H123314   0.517   1.163  16.636  0.6167 -2.4513  1.9726
  633TIP3    H223315   0.593   1.236  16.744 -0.6253  0.9226  0.7170
  634TIP3   OH223316   4.476   5.123  16.384  0.0623  0.1544 -0.1374
  634TIP3    H123317   4.440   5.101  16.298 -1.2255 -0.8052  0.6237
  634TIP3    H223318   4.502   5.215  16.375  0.3583 -0.0401 -1.6715
  635TIP3   OH223319   1.764   5.521   0.162 -0.5013  0.2715 -0.4701
  635TIP3    H123320   1.858   5.534   0.146 -0.7090  1.1522 -1.0568
  635TIP3    H223321   1.732   5.478   0.083 -0.5749 -0.1295 -0.2232
  636TIP3   OH223322   0.311   2.979   2.703  0.5584  0.7058 -0.4817
  636TIP3    H123323   0.404   2.978   2.724  0.3948  2.0156  0.4555
  636TIP3    H223324   0.294   3.068   2.673 -0.4002  0.4977 -0.5843
  637TIP3   OH223325   2.810   0.172   1.136  0.3102 -0.0588 -0.0311
  637TIP3    H123326   2.806   0.080   1.165  1.1258  0.0599  0.4636
  637TIP3    H223327   2.884   0.175   1.076  1.1738  0.5728  1.0462
  638TIP3   OH223328   6.074   1.538  13.951 -0.1618  0.0254  0.2253
  638TIP3    H123329   6.008   1.490  13.900  1.1358 -0.1161 -1.4085
  638TIP3    H223330   6.089   1.618  13.900  1.8975 -0.5828 -0.2073
  639TIP3   OH223331   4.271   1.180   4.718  0.5636  0.4003 -0.0497
  639TIP3    H123332   4.256   1.100   4.667  0.9415  1.1426 -1.3934
  639TIP3    H223333   4.294   1.149   4.805 -0.5705 -0.9202 -0.1857
  640TIP3   OH223334   1.145   6.376   1.293  0.0779  0.3532  0.1376
  640TIP3    H123335   1.236   6.398   1.271 -0.1750  0.2192 -1.1295
  640TIP3    H223336   1.125   6.300   1.238 -1.2879  1.3372 -0.8097
  641TIP3   OH223337   1.359   3.715  15.569  0.0718  0.0725 -0.6448
  641TIP3    H123338   1.286   3.726  15.630  0.7652  1.0979  0.0330
  641TIP3    H223339   1.402   3.634  15.598  0.1675  0.3460 -0.0025
  642TIP3   OH223340   5.240   0.871   2.593  0.4531 -0.5082  0.1044
  642TIP3    H123341   5.253   0.929   2.518 -0.2044 -1.0824 -0.4648
  642TIP3    H223342   5.325   0.870   2.638  0.7506  0.1080 -0.4412
  643TIP3   OH223343   4.249   3.218  11.253 -0.3077  0.4485 -0.2825
  643TIP3    H123344   4.187   3.291  11.258 -1.3605 -0.3250 -1.3093
  643TIP3    H223345   4.219   3.157  11.321 -0.6388  0.1184 -0.7148
  644TIP3   OH223346   5.507   3.926   2.960 -0.4739  0.2602 -0.3066
  644TIP3    H123347   5.466   3.840   2.970  1.0995 -0.5892 -0.7265
  644TIP3    H223348   5.471   3.962   2.879  0.5477 -1.0647 -1.4029
  645TIP3   OH223349   1.747   6.773  13.097  0.4251  0.2347 -0.0625
  645TIP3    H123350   1.720   6.684  13.115  2.1262 -0.2320  0.3624
  645TIP3    H223351   1.771   6.773  13.004 -1.1312  0.7006 -0.4946
  646TIP3   OH223352   0.697   6.357  15.425 -0.2070 -0.5192 -0.1921
  646TIP3    H123353   0.608   6.384  15.448  0.0884  1.5310 -1.2796
  646TIP3    H223354   0.694   6.344  15.330  0.9119  0.7729 -0.4349
  647TIP3   OH223355   2.506   0.163   5.220  0.2354 -0.5586  0.0922
  647TIP3    H123356   2.526   0.239   5.166  2.6070 -1.7918 -0.9065
  647TIP3    H223357   2.539   0.185   5.307  0.0516 -0.1021  0.0474
  648TIP3   OH223358   4.800   1.076   3.047 -0.2401 -0.3207  0.3694
  648TIP3    H123359   4.831   0.986   3.038 -0.2276 -0.3106  0.3070
  648TIP3    H223360   4.826   1.102   3.135  1.8787  0.4280 -0.4145
  649TIP3   OH223361   1.098   3.928  13.680 -0.3509  0.1857 -0.3304
  649TIP3    H123362   1.078   3.842  13.642  1.6142 -0.1524 -0.6929
  649TIP3    H223363   1.102   3.912  13.774  0.4526 -0.2567 -0.4248
  650TIP3   OH223364   0.631   3.904  15.077 -0.3084 -0.4580 -0.2508
  650TIP3    H123365   0.539   3.921  15.055 -0.1374 -0.0898 -0.6915
  650TIP3    H223366   0.679   3.929  14.999  0.1639 -0.7330 -0.0483
  651TIP3   OH223367   4.324   1.447   6.297  0.1507 -0.1783 -0.2373
  651TIP3    H123368   4.250   1.440   6.236  0.0506  0.6597 -0.2131
  651TIP3    H223369   4.317   1.368   6.351 -0.0324 -0.7042 -0.9943
  652TIP3   OH223370   4.384   3.755  14.053 -0.0836 -0.1088  0.1123
  652TIP3    H123371   4.418   3.695  14.119 -0.4359 -0.5093 -0.0674
  652TIP3    H223372   4.460   3.775  13.998  0.8128  2.0833  1.9743
  653TIP3   OH223373   4.000   4.309   4.024 -0.1842 -0.0659  0.2594
  653TIP3    H123374   3.931   4.251   3.992 -0.0575 -0.1316  0.1067
  653TIP3    H223375   4.021   4.276   4.111  1.2106 -1.4311 -0.5418
  654TIP3   OH223376   0.586   5.482   5.000  0.8585 -0.3708  0.1412
  654TIP3    H123377   0.498   5.517   5.013  0.0553 -2.0601 -0.4739
  654TIP3    H223378   0.609   5.445   5.086  1.1906  0.4973  0.4379
  655TIP3   OH223379   1.242   1.184  11.867 -0.1873  0.0402  0.1236
  655TIP3    H123380   1.192   1.266  11.868 -0.7797 -0.2312 -2.1352
  655TIP3    H223381   1.319   1.204  11.813  0.6733 -0.3681  1.1674
  656TIP3   OH223382   0.437   3.430  16.815 -0.3556  0.3870  0.4489
  656TIP3    H123383   0.469   3.340  16.823  0.2976  0.0584 -3.7742
  656TIP3    H223384   0.500   3.482  16.865  0.7239 -1.2590  0.8748
  657TIP3   OH223385   2.463   1.187  13.330  0.4971 -0.6669 -0.1416
  657TIP3    H123386   2.545   1.202  13.283  0.5936 -0.4838  0.0859
  657TIP3    H223387   2.395   1.214  13.269  0.6715  0.9963  0.3649
  658TIP3   OH223388   6.573   1.998  16.478 -0.1649 -0.3852 -0.4758
  658TIP3    H123389   6.580   1.906  16.503  1.7273 -0.0406  0.4251
  658TIP3    H223390   6.565   1.996  16.382  0.2018 -1.4843 -0.4952
  659TIP3   OH223391   3.115   6.421   0.762 -0.3240 -0.3123  0.1544
  659TIP3    H123392   3.021   6.434   0.762 -0.5562 -1.8285  0.7249
  659TIP3    H223393   3.133   6.370   0.841  0.7875 -1.1670 -0.6154
  660TIP3   OH223394   1.688   0.510   4.728 -0.2355  0.0399 -0.1293
  660TIP3    H123395   1.628   0.547   4.794 -1.4716  0.8952 -1.6726
  660TIP3    H223396   1.750   0.580   4.709 -0.1606 -0.0470 -0.2057
  661TIP3   OH223397   1.044   0.661   5.191  0.3367 -0.3313 -0.8722
  661TIP3    H123398   0.952   0.639   5.205  0.2472 -0.4111 -1.5342
  661TIP3    H223399   1.045   0.756   5.178  0.8408  0.3555  2.9469
  662TIP3   OH223400   1.587   0.420  14.195  0.5523  0.3189 -1.0663
  662TIP3    H123401   1.596   0.359  14.121 -0.0207 -0.3196 -0.6154
  662TIP3    H223402   1.645   0.384  14.262  0.6267  0.5743 -0.9941
  663TIP3   OH223403   4.268   0.812  13.087 -0.0981  0.1059 -0.3931
  663TIP3    H123404   4.236   0.728  13.054 -1.3869  1.3873 -2.7172
  663TIP3    H223405   4.287   0.796  13.179  0.2021 -2.8405 -0.8405
  664TIP3   OH223406   4.015   6.188  16.896 -0.2995  0.1052  0.5013
  664TIP3    H123407   4.107   6.208  16.878 -0.0254  1.6200  2.9991
  664TIP3    H223408   4.013   6.166  16.989 -2.3248 -1.1595  0.2298
  665TIP3   OH223409   6.426   5.016  16.698  0.4514  0.3089  0.6334
  665TIP3    H123410   6.509   4.981  16.729  0.1570 -0.1921  0.8801
  665TIP3    H223411   6.363   4.990  16.766  0.3116  1.7990  1.1031
  666TIP3   OH223412   5.552   3.882   1.232 -0.0861  0.0372  0.1511
  666TIP3    H123413   5.609   3.958   1.230 -0.2418  0.2544  2.0493
  666TIP3    H223414   5.581   3.828   1.158  0.6960  1.4337 -0.6059
  667TIP3   OH223415   2.205   6.675  11.755 -0.2746 -0.7444 -0.0385
  667TIP3    H123416   2.189   6.632  11.671 -0.9547  0.7629 -0.7105
  667TIP3    H223417   2.236   6.604  11.812  0.2777 -1.7776 -1.5619
  668TIP3   OH223418   4.890   5.168  13.511  0.3407 -0.3510 -0.5233
  668TIP3    H123419   4.941   5.121  13.577  0.7487  0.2678 -0.3878
  668TIP3    H223420   4.871   5.253  13.551  2.4375  0.8922 -1.9743
  669TIP3   OH223421   1.716   2.569  12.703 -0.3975  0.1461 -0.4156
  669TIP3    H123422   1.706   2.649  12.652  1.1595  0.9711  0.4860
  669TIP3    H223423   1.627   2.534  12.712 -1.1224  1.8183 -0.7563
  670TIP3   OH223424   5.532   5.844  10.625 -0.2884 -0.0372  0.0165
  670TIP3    H123425   5.514   5.924  10.674  0.0798  0.8323 -1.2057
  670TIP3    H223426   5.584   5.873  10.550  0.2808 -1.4960 -0.2054
  671TIP3   OH223427   5.581   5.569  13.125 -0.3137  0.2450 -0.2915
  671TIP3    H123428   5.533   5.522  13.194 -0.6750  0.7059 -0.2234
  671TIP3    H223429   5.672   5.567  13.154 -0.2212 -0.9660 -0.6093
  672TIP3   OH223430   4.806   2.688  12.109 -0.5490 -0.4601 -0.0600
  672TIP3    H123431   4.762   2.756  12.057 -1.1308 -0.5260  0.3411
  672TIP3    H223432   4.760   2.688  12.193  0.3218 -0.4200  0.4311
  673TIP3   OH223433   2.252   4.645   5.297  0.3277  0.0060  0.4826
  673TIP3    H123434   2.319   4.651   5.229  0.6795 -1.3742  0.6814
  673TIP3    H223435   2.283   4.701   5.368  1.8720 -1.4898  1.0410
  674TIP3   OH223436   4.016   0.950   2.455  0.2717  0.3256 -0.0565
  674TIP3    H123437   3.957   0.877   2.436  0.1890  0.0623  1.0971
  674TIP3    H223438   4.016   1.003   2.375 -1.0403 -0.0097 -0.3066
  675TIP3   OH223439   3.685   4.242   5.863  0.1362  0.2362 -0.4069
  675TIP3    H123440   3.766   4.239   5.814 -0.2754  1.0471 -1.1473
  675TIP3    H223441   3.705   4.296   5.940  0.4904 -0.1755 -0.2045
  676TIP3   OH223442   0.322   1.284  15.381  0.4217  0.9084 -0.1462
  676TIP3    H123443   0.407   1.321  15.403  0.0574  2.1508 -0.6963
  676TIP3    H223444   0.306   1.314  15.291 -0.3419  0.2142 -0.2542
  677TIP3   OH223445   3.687   3.513   4.193  0.2115  0.6739  0.7052
  677TIP3    H123446   3.752   3.576   4.225  0.3069  0.4433  0.9643
  677TIP3    H223447   3.625   3.567   4.143  0.6635  0.8754  0.3563
  678TIP3   OH223448   5.276   6.429  13.938 -0.1173  0.0733  0.6860
  678TIP3    H123449   5.265   6.374  13.861 -1.4875  1.3050 -0.0662
  678TIP3    H223450   5.305   6.514  13.903 -2.0490  1.0625  1.3302
  679TIP3   OH223451   2.448   2.645   1.276  0.5197  0.4422 -0.4009
  679TIP3    H123452   2.384   2.649   1.205  0.3840 -0.8850 -0.3780
  679TIP3    H223453   2.396   2.626   1.354  0.9318 -0.8851 -0.4182
  680TIP3   OH223454   6.288   1.493  11.088 -0.1581 -0.3607 -0.1822
  680TIP3    H123455   6.289   1.404  11.051  1.3301 -1.0661  1.4450
  680TIP3    H223456   6.336   1.546  11.023  0.4360 -1.0998 -0.3618
  681TIP3   OH223457   0.126   0.461  12.169  0.4575  0.0462  0.1088
  681TIP3    H123458   0.198   0.519  12.192  1.3759 -0.9453 -0.1569
  681TIP3    H223459   0.156   0.374  12.195 -0.8924 -0.3205  0.5197
  682TIP3   OH223460   0.960   0.861  16.456 -0.2881 -0.1529  0.4065
  682TIP3    H123461   1.040   0.891  16.501 -0.0676  0.7372 -0.5313
  682TIP3    H223462   0.906   0.825  16.526  0.2916  0.6497  1.3087
  683TIP3   OH223463   1.236   5.511  16.952  0.4534  0.0656 -0.4731
  683TIP3    H123464   1.319   5.504  17.001  0.5302 -1.4752 -0.7894
  683TIP3    H223465   1.244   5.447  16.881 -0.8936  0.1151 -0.6927
  684TIP3   OH223466   5.813   6.554   0.531 -0.0672  0.0630  0.0896
  684TIP3    H123467   5.839   6.462   0.524 -0.2770  0.0825 -1.1160
  684TIP3    H223468   5.753   6.556   0.605  0.8982 -0.5386  0.9172
  685TIP3   OH223469   5.510   3.888  14.264  0.1584  0.0962  0.0850
  685TIP3    H123470   5.456   3.967  14.255 -1.6041 -0.7860  1.9385
  685TIP3    H223471   5.466   3.823  14.208  0.3020 -0.1569  0.2645
  686TIP3   OH223472   5.048   5.815  15.344 -0.1844  0.5563 -0.1265
  686TIP3    H123473   5.045   5.785  15.253 -1.2924 -0.4547  0.2187
  686TIP3    H223474   5.141   5.810  15.368  0.1821  1.2977 -1.3348
  687TIP3   OH223475   6.019   0.627   3.756 -0.8569  0.1363  0.3031
  687TIP3    H123476   6.032   0.655   3.847  0.1395 -1.2800  0.6310
  687TIP3    H223477   6.017   0.709   3.706 -1.4890  0.9516  1.5825
  688TIP3   OH223478   5.267   5.321   0.410  0.3503 -0.6039 -0.7465
  688TIP3    H123479   5.236   5.254   0.471 -2.6159  0.2400 -1.1655
  688TIP3    H223480   5.332   5.276   0.356 -0.2244 -2.6176  0.1442
  689TIP3   OH223481   1.202   1.088  11.387 -0.8587 -0.5810 -0.5987
  689TIP3    H123482   1.189   0.995  11.364 -0.1838 -0.5679 -1.0592
  689TIP3    H223483   1.118   1.129  11.364 -0.7170 -0.8468 -1.6767
  690TIP3   OH223484   6.295   3.316  16.210 -0.3132 -0.1513  0.1728
  690TIP3    H123485   6.378   3.363  16.199 -0.3317  0.0084  0.6872
  690TIP3    H223486   6.319   3.236  16.257 -0.2179 -0.8701 -1.0496
  691TIP3   OH223487   0.843   6.194  15.573 -0.4753 -0.1206  0.4608
  691TIP3    H123488   0.922   6.181  15.520  0.0670  0.7731  1.0136
  691TIP3    H223489   0.806   6.276  15.540 -1.2548 -0.6021  0.1194
  692TIP3   OH223490   1.007   3.016   5.038 -0.5541  0.2832 -0.0326
  692TIP3    H123491   0.980   2.998   5.128  0.6566 -0.9056  0.1175
  692TIP3    H223492   0.943   3.080   5.006 -2.1770 -0.7511  1.0241
  693TIP3   OH223493   2.479   1.223   3.204  0.3904  0.1407 -0.0326
  693TIP3    H123494   2.428   1.209   3.124 -2.0849  0.1163  1.4392
  693TIP3    H223495   2.509   1.135   3.229  0.5012  0.0366 -0.5293
  694TIP3   OH223496   2.510   1.101  13.023  0.0420 -0.1402  0.3297
  694TIP3    H123497   2.428   1.120  13.067 -0.6048 -1.4434 -0.2695
  694TIP3    H223498   2.541   1.186  12.992 -0.5297  0.5025  1.4837
  695TIP3   OH223499   1.600   4.652   5.502  0.2941  0.2435 -0.9314
  695TIP3    H123500   1.690   4.621   5.498  0.8749  0.7262  3.5969
  695TIP3    H223501   1.602   4.726   5.563 -3.3369 -0.7790  0.6993
  696TIP3   OH223502   1.291   3.742  14.366  0.1857 -0.4174 -0.0446
  696TIP3    H123503   1.322   3.784  14.446  1.5496 -2.5810  0.6355
  696TIP3    H223504   1.233   3.672  14.395 -0.3054 -0.4363 -1.0167
  697TIP3   OH223505   0.438   2.349   5.125 -0.4503 -0.1485  0.3016
  697TIP3    H123506   0.406   2.438   5.137 -0.1443 -0.0509  0.4086
  697TIP3    H223507   0.369   2.305   5.075 -1.0961 -0.1599  1.1802
  698TIP3   OH223508   5.750   2.484   1.080  0.2697 -0.4178  0.0224
  698TIP3    H123509   5.704   2.486   1.164 -0.0254 -1.7188 -0.0948
  698TIP3    H223510   5.680   2.483   1.015  0.4683  2.2055 -0.3572
  699TIP3   OH223511   3.558   1.314   4.364 -0.0371  0.5026 -0.3789
  699TIP3    H123512   3.542   1.219   4.361 -0.4700  0.4035  2.2944
  699TIP3    H223513   3.525   1.346   4.280 -3.3742 -1.2929  0.0508
  700TIP3   OH223514   5.651   1.133   5.185  0.4685  0.0397  0.3677
  700TIP3    H123515   5.592   1.125   5.261 -0.8906 -1.8145 -0.7826
  700TIP3    H223516   5.733   1.094   5.214 -0.1279 -0.9159  0.8385
  701TIP3   OH223517   1.882   4.109   4.240  0.2242  0.4016 -0.3423
  701TIP3    H123518   1.862   4.161   4.318 -0.1969 -0.7431  0.3395
  701TIP3    H223519   1.946   4.044   4.270 -0.6902 -0.6928 -0.6816
  702TIP3   OH223520   5.329   2.776   4.092  0.1915  0.2749  0.4402
  702TIP3    H123521   5.330   2.699   4.036 -0.0668  2.0270 -2.1049
  702TIP3    H223522   5.238   2.803   4.094  0.0317 -0.2365  2.5220
  703TIP3   OH223523   0.406   6.744  12.167  0.8119 -0.3319  0.4167
  703TIP3    H123524   0.404   6.765  12.074 -0.1836 -1.3074  0.1904
  703TIP3    H223525   0.341   6.675  12.177  2.5774 -1.9306  1.4328
  704TIP3   OH223526   5.865   5.633  14.282  0.2369  0.2451 -0.1864
  704TIP3    H123527   5.845   5.551  14.328  1.0331  0.9306  1.4898
  704TIP3    H223528   5.889   5.693  14.352  1.1034  1.4936 -1.5130
  705TIP3   OH223529   3.568   4.471  15.660  0.0217  0.3595  0.0607
  705TIP3    H123530   3.512   4.488  15.584  0.7179  2.2820 -0.0635
  705TIP3    H223531   3.628   4.402  15.631 -1.4503 -0.8738 -0.1936
  706TIP3   OH223532   2.012   6.396   5.831 -0.0446 -0.6579 -0.6999
  706TIP3    H123533   2.063   6.439   5.763  0.6003  0.1416  0.2613
  706TIP3    H223534   1.930   6.372   5.788  0.5576 -0.6501 -1.8828
  707TIP3   OH223535   3.227   4.293   1.463 -0.4220 -0.4258 -0.0881
  707TIP3    H123536   3.307   4.240   1.463 -1.5002 -2.2950  2.8423
  707TIP3    H223537   3.242   4.360   1.529 -0.1027  1.3756 -1.8891
  708TIP3   OH223538   6.661   1.776  15.119  0.2351  0.2665 -0.1548
  708TIP3    H123539   6.752   1.800  15.098  0.4071 -0.8767 -0.7832
  708TIP3    H223540   6.655   1.683  15.097 -1.0669  0.2984 -0.0030
  709TIP3   OH223541   3.556   3.622   1.456  0.4133  0.2441  0.0415
  709TIP3    H123542   3.474   3.669   1.474  1.4312  1.3465  2.0978
  709TIP3    H223543   3.580   3.651   1.368 -1.1349  0.2494 -0.4242
  710TIP3   OH223544   2.243   5.484  14.285 -0.2103  0.7732  0.2295
  710TIP3    H123545   2.321   5.445  14.324 -0.5517  1.5371  1.7623
  710TIP3    H223546   2.214   5.549  14.350 -2.0038  0.6418 -0.3944
  711TIP3   OH223547   1.890   4.243  12.520 -0.0037  0.1216  0.3872
  711TIP3    H123548   1.931   4.326  12.545  0.0353  0.1219  0.3234
  711TIP3    H223549   1.959   4.194  12.477  0.1967 -0.2847  1.1662
  712TIP3   OH223550   3.148   6.674  15.941  0.2563 -0.8289 -0.6287
  712TIP3    H123551   3.209   6.735  15.982 -0.8030  0.5832 -1.0721
  712TIP3    H223552   3.064   6.720  15.941 -0.2639 -1.6917 -2.3491
  713TIP3   OH223553   2.722   4.067  12.145  0.1661  0.3576  0.0140
  713TIP3    H123554   2.771   3.995  12.106  1.1676  1.0661 -0.0887
  713TIP3    H223555   2.688   4.032  12.227 -0.1310 -0.4978 -0.4656
  714TIP3   OH223556   4.874   0.499   0.383  0.0174  0.1272 -0.5827
  714TIP3    H123557   4.963   0.534   0.386  0.2177 -0.3824 -0.5531
  714TIP3    H223558   4.837   0.520   0.469  0.9171 -1.7538  0.3144
  715TIP3   OH223559   4.813   4.241  12.144 -0.0535  0.5566 -0.0566
  715TIP3    H123560   4.778   4.192  12.219 -2.1949  2.7165  0.4620
  715TIP3    H223561   4.893   4.193  12.120 -0.6181 -1.6360  2.0086
  716TIP3   OH223562   4.965   5.230  17.243 -0.1102  0.1344  0.1792
  716TIP3    H123563   4.889   5.250  17.297 -1.7899 -1.8182 -1.3031
  716TIP3    H223564   5.019   5.174  17.298  1.1580  2.7324  1.7987
  717TIP3   OH223565   3.271   2.607   1.722 -0.4488 -0.2633 -0.0680
  717TIP3    H123566   3.199   2.668   1.739 -1.3470 -1.1249 -0.6699
  717TIP3    H223567   3.228   2.521   1.714  0.3157 -0.4861 -2.7883
  718TIP3   OH223568   5.622   6.152   2.279 -0.0630 -0.3171  1.2250
  718TIP3    H123569   5.630   6.138   2.374 -0.1367 -1.0704  1.1292
  718TIP3    H223570   5.567   6.079   2.249  1.0151 -0.8261  0.4193
  719TIP3   OH223571   5.185   5.709  11.390  0.0533 -0.1550 -0.5635
  719TIP3    H123572   5.235   5.668  11.319  0.8796  2.5014 -1.6569
  719TIP3    H223573   5.156   5.792  11.353 -0.0068  1.0626  2.0382
  720TIP3   OH223574   2.868   5.759   6.950  0.2470  0.5115  0.9298
  720TIP3    H123575   2.879   5.784   6.858 -1.6030 -1.0420  0.2267
  720TIP3    H223576   2.937   5.695   6.965 -0.7403 -0.8468 -0.0736
  721TIP3   OH223577   3.508   1.883  14.453 -0.4146  0.1887 -0.3438
  721TIP3    H123578   3.419   1.878  14.486  0.4279  0.4718  2.2447
  721TIP3    H223579   3.529   1.977  14.455 -0.4091  0.2558 -2.0737
  722TIP3   OH223580   2.638   2.161  11.402  0.0887 -0.0426  1.0626
  722TIP3    H123581   2.589   2.083  11.379 -1.5995  0.6467  2.1158
  722TIP3    H223582   2.645   2.210  11.320  2.6683 -1.9780 -0.0224
  723TIP3   OH223583   4.444   2.964   2.841 -0.4028 -0.1593 -0.1263
  723TIP3    H123584   4.520   2.960   2.899  0.2489 -0.6882 -0.9947
  723TIP3    H223585   4.374   3.001   2.896  0.5888  0.7765  0.5537
  724TIP3   OH223586   2.842   1.139  13.642  0.1293 -0.5690 -0.3111
  724TIP3    H123587   2.770   1.113  13.698 -1.7060  1.2435 -1.6840
  724TIP3    H223588   2.919   1.139  13.699 -1.7992  2.3437  2.6051
  725TIP3   OH223589   0.275   1.477  11.799  0.3623 -0.0141  0.1115
  725TIP3    H123590   0.293   1.402  11.856  0.1952  0.5668  0.9494
  725TIP3    H223591   0.339   1.543  11.825  0.7851 -0.0122 -0.9168
  726TIP3   OH223592   0.362   1.731  14.923 -0.4706  0.7747 -0.3300
  726TIP3    H123593   0.329   1.648  14.888  1.5635 -0.1391 -0.2298
  726TIP3    H223594   0.398   1.708  15.009 -0.3665  1.8853 -0.0583
  727TIP3   OH223595   5.170   0.884   5.391  0.1536 -0.4671 -0.1275
  727TIP3    H123596   5.170   0.842   5.477 -0.8358 -3.0370 -1.2668
  727TIP3    H223597   5.261   0.879   5.362  0.4734  0.3103  0.6833
  728TIP3   OH223598   0.936   4.248  13.009 -0.9562 -1.0668  0.2463
  728TIP3    H123599   0.893   4.230  12.925  1.6846  0.3219 -1.5623
  728TIP3    H223600   0.968   4.162  13.038 -1.6365 -1.5229 -0.3220
  729TIP3   OH223601   0.915   2.317   5.802 -0.0446  0.2243  0.1761
  729TIP3    H123602   0.954   2.267   5.874 -0.5595 -1.1753 -0.4813
  729TIP3    H223603   0.889   2.250   5.738  0.5323  1.4356 -1.3813
  730TIP3   OH223604   6.589   1.490   5.683 -0.3813 -0.4961 -0.1458
  730TIP3    H123605   6.499   1.461   5.696 -1.1408  0.4901 -2.6192
  730TIP3    H223606   6.606   1.474   5.590  1.0205  1.9261 -0.3889
  731TIP3   OH223607   3.935   1.861   4.099  0.0766 -0.7317 -0.1791
  731TIP3    H123608   4.024   1.879   4.067 -0.0706 -1.9318 -1.3182
  731TIP3    H223609   3.887   1.942   4.084  0.5734 -0.5845 -1.0363
  732TIP3   OH223610   0.904   5.969  12.335  0.6298 -0.5189  0.3037
  732TIP3    H123611   0.956   6.049  12.326  0.0776 -0.3101 -1.3495
  732TIP3    H223612   0.821   5.999  12.372 -0.0489 -0.0722 -1.4586
  733TIP3   OH223613   2.753   3.338   1.403  0.1304 -0.4809 -0.6965
  733TIP3    H123614   2.776   3.430   1.416 -1.4425 -0.0440 -0.8135
  733TIP3    H223615   2.822   3.304   1.346  2.1466 -0.0644  1.3180
  734TIP3   OH223616   5.280   0.988  11.399 -0.0676  0.1951 -0.9675
  734TIP3    H123617   5.221   1.050  11.442 -0.8966  0.2927 -2.1808
  734TIP3    H223618   5.268   0.906  11.447 -2.1593 -0.1183 -1.9121
  735TIP3   OH223619   2.741   0.015  13.877 -0.1890 -0.0428  0.2692
  735TIP3    H123620   2.818   0.018  13.934 -0.9048 -0.1651  1.2920
  735TIP3    H223621   2.675   0.067  13.924 -0.4242  0.9149 -1.0797
  736TIP3   OH223622   4.578   3.873   2.698 -0.4360  0.1825  0.0032
  736TIP3    H123623   4.512   3.936   2.669  0.8405  1.6797  0.2514
  736TIP3    H223624   4.635   3.922   2.757  1.0961 -0.9772 -0.4303
  737TIP3   OH223625   0.828   4.014  11.410 -0.6613 -0.3121 -0.5398
  737TIP3    H123626   0.871   4.051  11.487  2.8996  1.7744 -3.2314
  737TIP3    H223627   0.875   3.933  11.393 -1.8708 -1.1030 -0.2262
  738TIP3   OH223628   0.282   6.406   2.733 -0.4974  0.1691  0.5611
  738TIP3    H123629   0.219   6.419   2.663 -0.4696 -0.7373  0.3536
  738TIP3    H223630   0.236   6.354   2.798  0.3144 -1.3487 -0.0328
  739TIP3   OH223631   4.191   0.426   2.724  0.1023  0.6928 -0.4324
  739TIP3    H123632   4.124   0.358   2.725 -0.3051  1.0226 -1.9715
  739TIP3    H223633   4.273   0.380   2.707 -0.0509  0.5010 -0.6507
  740TIP3   OH223634   0.716   6.346  13.638  0.1565  0.1644 -0.2304
  740TIP3    H123635   0.768   6.404  13.582 -0.8419  1.1518 -0.1711
  740TIP3    H223636   0.630   6.388  13.643 -0.3275 -0.8704  0.5462
  741TIP3   OH223637   6.405   1.143   6.532 -0.0930 -0.8583  0.1996
  741TIP3    H123638   6.318   1.165   6.498 -0.8930 -0.5122  2.3551
  741TIP3    H223639   6.457   1.222   6.515 -1.3790  0.6170  2.6315
  742TIP3   OH223640   3.999   0.812  13.367  0.1518  0.4256  0.4502
  742TIP3    H123641   3.984   0.731  13.415  0.5482 -0.0041 -0.1398
  742TIP3    H223642   4.020   0.877  13.434  0.2772 -0.0637  0.8858
  743TIP3   OH223643   6.155   6.435  16.764  0.3517  0.2943  0.2522
  743TIP3    H123644   6.074   6.485  16.771  1.6398  2.5442  0.3839
  743TIP3    H223645   6.132   6.356  16.716 -2.0177  0.5380  0.8790
  744TIP3   OH223646   6.090   2.823  17.138 -0.1345  0.5693 -0.2814
  744TIP3    H123647   6.086   2.913  17.108  0.3069  0.3298 -1.0645
  744TIP3    H223648   6.099   2.770  17.059  3.2109  0.0566  0.2771
  745TIP3   OH223649   0.358   0.260   3.004 -0.1277 -0.3293 -0.5634
  745TIP3    H123650   0.371   0.339   2.951 -0.7700 -0.5697 -1.0777
  745TIP3    H223651   0.278   0.277   3.053  0.2927 -0.2395  0.1003
  746TIP3   OH223652   5.925   3.807   0.851  0.0922  0.1934  0.5627
  746TIP3    H123653   5.974   3.726   0.834  3.2006  2.0823 -0.4270
  746TIP3    H223654   5.919   3.849   0.765 -2.1796  0.6999  0.9259
  747TIP3   OH223655   2.215   2.493   6.180  0.1485  0.1729  0.2688
  747TIP3    H123656   2.157   2.494   6.257  0.6217 -2.5393  0.7724
  747TIP3    H223657   2.293   2.540   6.208 -1.0003  2.1933  0.2339
  748TIP3   OH223658   3.728   5.733   1.137 -0.0981 -0.3660 -0.1744
  748TIP3    H123659   3.750   5.729   1.044  0.5306 -0.6358 -0.0194
  748TIP3    H223660   3.806   5.700   1.182  0.5717  2.0266  0.5873
  749TIP3   OH223661   1.241   5.602  13.608 -0.1616  0.3698  0.1619
  749TIP3    H123662   1.295   5.638  13.678  0.5122  2.5352 -1.3391
  749TIP3    H223663   1.258   5.508  13.610  2.9848  0.8320  0.3847
  750TIP3   OH223664   0.349   3.600  12.536 -0.2174  0.2253 -0.0061
  750TIP3    H123665   0.413   3.529  12.537 -0.5015 -0.1020 -1.5465
  750TIP3    H223666   0.267   3.559  12.562 -0.4115 -0.0712 -1.0355
  751TIP3   OH223667   1.681   0.645  16.998 -0.1627  0.4003 -0.8725
  751TIP3    H123668   1.702   0.586  16.925  0.4991 -0.2098 -0.2057
  751TIP3    H223669   1.586   0.640  17.006 -0.4349  1.6490 -2.6573
  752TIP3   OH223670   1.601   6.047   4.138  0.0546  0.2541  0.0938
  752TIP3    H123671   1.571   6.128   4.179  0.6385  1.2619 -1.3850
  752TIP3    H223672   1.614   5.987   4.211 -0.9395  1.2994  1.1780
  753TIP3   OH223673   2.450   1.579   6.380  0.0563  0.5865 -0.3194
  753TIP3    H123674   2.453   1.595   6.475 -0.3924  1.2456 -0.4096
  753TIP3    H223675   2.526   1.524   6.363 -0.6120 -0.6768  0.6263
  754TIP3   OH223676   4.695   0.165  14.074 -0.1709 -0.1500  0.3771
  754TIP3    H123677   4.681   0.088  14.019 -0.5698 -0.8653  1.4465
  754TIP3    H223678   4.756   0.219  14.024 -2.9619  0.8202 -2.2777
  755TIP3   OH223679   4.991   3.749   1.286 -0.1370  0.1462 -0.3817
  755TIP3    H123680   4.993   3.698   1.205 -0.1020  1.3282 -1.1491
  755TIP3    H223681   5.082   3.749   1.316 -0.3676 -1.4518  0.4385
  756TIP3   OH223682   0.288   4.233  16.169  0.0148  0.2147 -0.0653
  756TIP3    H123683   0.375   4.271  16.184  0.4284 -0.7284 -0.0175
  756TIP3    H223684   0.303   4.164  16.104 -0.9041  0.8375 -0.9660
  757TIP3   OH223685   3.139   0.197   2.411  0.0046 -1.2370 -0.1642
  757TIP3    H123686   3.201   0.258   2.372  0.2128  0.0412  1.9896
  757TIP3    H223687   3.175   0.110   2.391  1.8502 -0.5538  0.0150
  758TIP3   OH223688   3.022   2.881   2.220  0.1116 -0.7143 -0.0266
  758TIP3    H123689   2.937   2.837   2.219 -0.2767  0.0400 -0.8552
  758TIP3    H223690   3.005   2.969   2.187  1.1237 -0.3718  0.3150
  759TIP3   OH223691   0.455   2.083  10.638  0.0876  0.3506  0.5595
  759TIP3    H123692   0.468   2.174  10.665  0.1499 -0.0616  2.0049
  759TIP3    H223693   0.361   2.077  10.620  0.2865  1.0083 -0.8281
  760TIP3   OH223694   5.055   5.587  14.761 -0.2879  0.2654  0.1145
  760TIP3    H123695   5.150   5.579  14.762  0.0759  2.6066 -2.5293
  760TIP3    H223696   5.025   5.506  14.721  0.7228  0.0409 -0.2276
  761TIP3   OH223697   5.943   6.505  12.701 -0.1490  0.5620 -0.8492
  761TIP3    H123698   5.876   6.565  12.735 -1.6135 -1.4029 -0.0731
  761TIP3    H223699   5.897   6.452  12.636  1.1298  0.3176 -1.5969
  762TIP3   OH223700   5.549   0.607   5.521  0.1990  0.0835  0.1024
  762TIP3    H123701   5.631   0.606   5.471  0.0337  0.4820 -0.1773
  762TIP3    H223702   5.480   0.602   5.455 -0.0051 -0.6308  0.3562
  763TIP3   OH223703   4.487   4.011   0.621  0.0718  0.1323  0.4078
  763TIP3    H123704   4.439   3.982   0.543 -1.4205  1.1617  0.9152
  763TIP3    H223705   4.565   3.955   0.623 -0.4036 -0.6386 -1.2140
  764TIP3   OH223706   3.702   2.266   5.184 -0.0910 -0.0768  0.3997
  764TIP3    H123707   3.783   2.297   5.224 -0.5276 -0.0012  1.2597
  764TIP3    H223708   3.719   2.175   5.161  0.2982 -0.0052  0.4001
  765TIP3   OH223709   3.312   4.173   6.226 -0.3782 -0.0221 -0.0708
  765TIP3    H123710   3.272   4.248   6.271 -0.3532 -0.0654  0.0246
  765TIP3    H223711   3.406   4.182   6.245 -0.1148  1.0202 -1.6623
  766TIP3   OH223712   1.059   4.370   5.587  0.3713  0.7710  0.2865
  766TIP3    H123713   1.067   4.441   5.522  1.1083  1.5332  1.1779
  766TIP3    H223714   1.109   4.401   5.662  0.7051 -0.7189  0.6997
  767TIP3   OH223715   4.137   1.631  16.853 -0.1674  0.4406  0.2001
  767TIP3    H123716   4.191   1.703  16.819 -0.7093  1.0090  0.5310
  767TIP3    H223717   4.080   1.608  16.780  0.1545  0.1904  0.0219
  768TIP3   OH223718   6.314   4.162   2.516  0.5260 -0.3891  0.3832
  768TIP3    H123719   6.273   4.081   2.484  1.2486 -0.9353  0.8076
  768TIP3    H223720   6.391   4.173   2.461  0.1736  0.2807  0.0142
  769TIP3   OH223721   4.795   5.983  12.339 -0.2480  0.4304 -0.0964
  769TIP3    H123722   4.852   5.910  12.315 -0.2676 -0.2238  1.7158
  769TIP3    H223723   4.830   6.058  12.290  0.4269 -0.5349 -1.1603
  770TIP3   OH223724   0.440   2.360  15.556  0.4462 -0.6803  0.5613
  770TIP3    H123725   0.376   2.391  15.619  2.1439  1.5265  1.3234
  770TIP3    H223726   0.523   2.358  15.604  1.2072 -2.3178 -0.6841
  771TIP3   OH223727   3.960   0.984   1.039 -0.4428 -0.7925 -0.1392
  771TIP3    H123728   3.994   0.975   1.128  1.5871 -0.1151 -0.7996
  771TIP3    H223729   3.867   1.001   1.051 -0.0040  0.5285  1.9140
  772TIP3   OH223730   1.950   0.580  13.617  0.0663 -0.3620  0.4993
  772TIP3    H123731   1.952   0.493  13.657  0.7324  0.4129  2.2158
  772TIP3    H223732   2.012   0.632  13.668 -0.5463  1.2191 -0.2949
  773TIP3   OH223733   4.126   4.728  15.397  0.1019  0.4131 -0.5435
  773TIP3    H123734   4.032   4.742  15.394 -0.0075 -0.3790 -1.6776
  773TIP3    H223735   4.145   4.707  15.488 -1.1792 -1.6119 -0.6802
  774TIP3   OH223736   1.746   1.088  13.765 -0.2946 -0.4587 -0.2050
  774TIP3    H123737   1.749   1.010  13.709 -2.2671 -0.2807 -0.6051
  774TIP3    H223738   1.687   1.148  13.721 -2.1051 -0.3774  2.1295
  775TIP3   OH223739   3.207   5.861  11.561  0.1414  0.4938 -0.1352
  775TIP3    H123740   3.301   5.873  11.546 -0.0446  1.3511 -0.6449
  775TIP3    H223741   3.166   5.939  11.525 -0.5609  1.3802  2.3628
  776TIP3   OH223742   5.056   0.428  15.341  0.4029  0.2682 -0.3211
  776TIP3    H123743   4.993   0.428  15.269  0.0022 -0.0122  0.0217
  776TIP3    H223744   5.023   0.360  15.401  0.6341  0.6210  0.2099
  777TIP3   OH223745   3.305   6.144   0.423  0.0416 -0.0821 -0.0245
  777TIP3    H123746   3.335   6.174   0.509 -0.8555 -0.2899  0.3695
  777TIP3    H223747   3.237   6.080   0.443  1.3452 -1.8032 -0.8538
  778TIP3   OH223748   3.939   5.844   5.068 -0.4382 -0.4494  0.1658
  778TIP3    H123749   3.975   5.845   5.157 -0.1793  0.1026  0.0603
  778TIP3    H223750   3.861   5.900   5.073 -0.6587 -0.7507  0.1381
  779TIP3   OH223751   0.863   0.363   1.506  0.4551  0.3117  0.4211
  779TIP3    H123752   0.934   0.362   1.571  1.3983 -2.6841 -0.4922
  779TIP3    H223753   0.788   0.328   1.552  0.1868  1.3042  0.7581
  780TIP3   OH223754   5.498   0.174   5.739  0.2536 -0.3502  0.0532
  780TIP3    H123755   5.479   0.119   5.815 -1.4872 -2.9445 -2.1039
  780TIP3    H223756   5.572   0.131   5.697 -1.2166 -1.2479 -1.7404
  781TIP3   OH223757   0.086   3.375   1.117 -0.0132 -0.0298 -0.1773
  781TIP3    H123758   0.151   3.333   1.060 -1.0687 -0.9664 -0.7272
  781TIP3    H223759   0.047   3.444   1.062 -1.9928 -1.8064 -1.1516
  782TIP3   OH223760   3.434   5.267   0.943 -0.7637  0.3762  0.1956
  782TIP3    H123761   3.504   5.231   0.889 -0.2398 -0.8077  1.5767
  782TIP3    H223762   3.364   5.288   0.881 -0.6976 -2.1204 -0.8710
  783TIP3   OH223763   5.091   2.307  17.242  0.3319  0.2656  0.1032
  783TIP3    H123764   5.063   2.378  17.183  0.0076 -0.2639 -0.3937
  783TIP3    H223765   5.083   2.344  17.330 -0.9965  0.4625 -0.0803
  784TIP3   OH223766   0.566   2.682   3.664 -0.0926 -0.2095  0.4638
  784TIP3    H123767   0.604   2.722   3.586  0.3778 -1.3812  0.0716
  784TIP3    H223768   0.478   2.654   3.636 -0.2781  0.1923  0.6308
  785TIP3   OH223769   2.055   3.338   4.386  0.0731  0.1713  0.3761
  785TIP3    H123770   2.067   3.424   4.345 -0.8533  1.5530  2.8492
  785TIP3    H223771   1.965   3.313   4.363 -0.9159  1.5486  2.4620
  786TIP3   OH223772   3.356   6.652  13.155 -0.0775  0.1211  0.6909
  786TIP3    H123773   3.310   6.572  13.178 -2.4831  1.0324 -0.5184
  786TIP3    H223774   3.336   6.713  13.226  1.3123 -0.1615  1.3492
  787TIP3   OH223775   2.052   1.122  13.739 -0.2500  0.1524 -0.4099
  787TIP3    H123776   1.970   1.170  13.755  0.0180  0.6480 -0.5121
  787TIP3    H223777   2.070   1.137  13.646 -1.2316 -1.8202 -0.9828
  788TIP3   OH223778   3.015   0.684  11.959 -0.3014 -0.2944 -0.1204
  788TIP3    H123779   2.943   0.726  12.004 -0.3174  1.9639 -2.0368
  788TIP3    H223780   2.988   0.593  11.949 -3.1564  0.5811 -1.2136
  789TIP3   OH223781   3.724   6.732   2.146 -0.1274  0.4115  0.1762
  789TIP3    H123782   3.639   6.697   2.120  0.1787 -0.6887  0.6295
  789TIP3    H223783   3.787   6.689   2.087  0.0596  1.8091 -0.6919
  790TIP3   OH223784   1.374   3.899  14.571  0.1828 -0.2021 -0.1589
  790TIP3    H123785   1.381   3.981  14.521 -0.9341 -0.1951 -0.3268
  790TIP3    H223786   1.421   3.917  14.653 -1.6397  1.2787  0.6196
  791TIP3   OH223787   1.006   2.846  12.380  0.1139 -0.0104  0.8140
  791TIP3    H123788   1.010   2.896  12.462 -0.2776 -1.1169  1.5266
  791TIP3    H223789   0.941   2.779  12.396 -1.4740  0.9605 -1.1127
  792TIP3   OH223790   6.184   5.044   0.951  0.0428  0.0304  0.3550
  792TIP3    H123791   6.113   5.050   0.887 -0.1734  1.5100  0.7129
  792TIP3    H223792   6.151   4.983   1.017 -0.8659  0.6416  0.4777
  793TIP3   OH223793   0.396   1.996   6.437 -0.3682 -0.0767  1.0340
  793TIP3    H123794   0.307   1.981   6.469 -0.1888  0.2260  1.6836
  793TIP3    H223795   0.447   1.926   6.477 -0.4903 -0.8795 -0.1639
  794TIP3   OH223796   3.231   0.513  15.329  0.5226  0.1538  0.4321
  794TIP3    H123797   3.220   0.439  15.269  1.2315 -0.1557  0.6723
  794TIP3    H223798   3.324   0.534  15.325  0.3807  0.8518  0.5889
  795TIP3   OH223799   2.044   3.970   4.728  0.2628 -0.1629 -0.0453
  795TIP3    H123800   2.025   3.878   4.750  0.0717 -0.0884  0.1038
  795TIP3    H223801   1.958   4.008   4.708  0.5544 -0.6081 -2.4743
  796TIP3   OH223802   4.016   4.708  13.789  0.2320 -0.3316 -0.2745
  796TIP3    H123803   4.024   4.800  13.767  0.0271 -0.2436  0.0131
  796TIP3    H223804   3.964   4.670  13.718 -1.8982  0.2791  0.8679
  797TIP3   OH223805   2.378   4.512  15.955  0.0135 -0.1320  0.0367
  797TIP3    H123806   2.347   4.591  15.911  2.0535 -0.4087 -2.1033
  797TIP3    H223807   2.320   4.442  15.924 -1.0035  0.2729  0.9516
  798TIP3   OH223808   3.804   1.114  13.963  0.2463 -0.0725 -0.1651
  798TIP3    H123809   3.788   1.206  13.943 -0.0473 -0.0792  0.0210
  798TIP3    H223810   3.738   1.066  13.913  0.8080 -0.2302 -0.7645
  799TIP3   OH223811   5.288   0.004   1.768  0.0805 -0.4446 -0.2711
  799TIP3    H123812   5.210   0.027   1.818 -0.1062 -3.0167  0.7931
  799TIP3    H223813   5.258  -0.003   1.678  0.0925  2.7617 -0.6444
  800TIP3   OH223814   1.278   3.132  16.976 -1.1609 -0.3846  0.3823
  800TIP3    H123815   1.261   3.061  16.914 -0.0675 -0.1541 -0.2028
  800TIP3    H223816   1.248   3.211  16.932 -0.2187 -0.1969  0.0449
  801TIP3   OH223817   2.087   3.506  15.321  0.3040  1.1929  0.2850
  801TIP3    H123818   2.087   3.448  15.246 -0.1730  1.1697  0.3002
  801TIP3    H223819   2.083   3.448  15.397  1.8225  1.1721  0.3792
  802TIP3   OH223820   3.004   4.230  12.219 -0.7551  0.0522 -0.5828
  802TIP3    H123821   2.943   4.155  12.220 -0.0564 -0.5213 -0.4064
  802TIP3    H223822   2.950   4.304  12.247 -0.9980 -0.7525  1.1895
  803TIP3   OH223823   4.586   2.864   0.307  0.0651 -0.1959 -0.4132
  803TIP3    H123824   4.530   2.809   0.253  0.9348 -0.8267 -0.6909
  803TIP3    H223825   4.644   2.803   0.351  0.2275  0.4139  0.2437
  804TIP3   OH223826   2.635   6.601  14.570 -0.1102  0.1572 -0.8815
  804TIP3    H123827   2.711   6.568  14.617 -1.2008  1.5415  2.0745
  804TIP3    H223828   2.650   6.575  14.479  3.0192 -1.0848 -0.1301
  805TIP3   OH223829   5.122   6.599  16.056  0.0852 -0.1768  0.4509
  805TIP3    H123830   5.140   6.617  15.964 -0.4696  2.3910  0.7702
  805TIP3    H223831   5.203   6.623  16.101 -0.5468  1.3279  0.8597
  806TIP3   OH223832   2.480   0.963  11.151  0.3531 -0.4414  0.4762
  806TIP3    H123833   2.478   0.911  11.071 -0.4639  1.1613 -0.6097
  806TIP3    H223834   2.430   0.912  11.215 -0.7298 -0.8421 -0.6565
  807TIP3   OH223835   4.959   4.862   4.968 -0.2031  0.1414  0.1382
  807TIP3    H123836   5.000   4.909   4.895 -1.0090  0.0379 -0.3921
  807TIP3    H223837   4.963   4.923   5.041  1.0782  0.0567  0.1623
  808TIP3   OH223838   6.055   2.426   3.988 -0.3456 -0.2438  0.1414
  808TIP3    H123839   6.009   2.452   4.068  1.8767 -0.3374  1.5204
  808TIP3    H223840   6.116   2.358   4.016  1.5139  0.7202 -1.3367
  809TIP3   OH223841   6.618   1.786   4.148  0.0594  1.0973 -0.4715
  809TIP3    H123842   6.577   1.774   4.062 -1.4905  0.4410  0.3208
  809TIP3    H223843   6.709   1.809   4.128 -0.1514  0.5272 -2.2711
  810TIP3   OH223844   1.826   6.764   4.279  0.9213  0.3715 -0.0997
  810TIP3    H123845   1.789   6.839   4.325  1.1195 -0.3234  1.2261
  810TIP3    H223846   1.909   6.746   4.324  1.5177  0.1481 -1.2293
  811TIP3   OH223847   3.220   2.569   4.461  0.1183  0.0893  0.0559
  811TIP3    H123848   3.300   2.557   4.513  1.2247  0.5171 -1.4809
  811TIP3    H223849   3.251   2.572   4.370 -1.2282  3.3522 -0.4317
  812TIP3   OH223850   0.206   4.918   5.538 -0.5514 -0.5225  0.4335
  812TIP3    H123851   0.259   4.942   5.613  0.0174  1.4378 -0.5203
  812TIP3    H223852   0.250   4.842   5.501  0.4468 -0.1654  0.8376
  813TIP3   OH223853   1.259   4.666  12.699 -0.0783 -0.4610 -0.1197
  813TIP3    H123854   1.279   4.614  12.777 -0.4580  0.0309  0.3074
  813TIP3    H223855   1.343   4.708  12.677 -0.2427  0.3476  0.7372
  814TIP3   OH223856   6.610   1.618  14.011 -0.3376 -0.0375  0.3135
  814TIP3    H123857   6.626   1.624  13.917 -0.3980  0.3281  0.3251
  814TIP3    H223858   6.533   1.673  14.025 -0.3272 -0.0908  0.5790
  815TIP3   OH223859   0.114   0.228  15.469 -0.6809  0.3195  0.8310
  815TIP3    H123860   0.040   0.269  15.514 -0.4017  0.4423  1.1764
  815TIP3    H223861   0.080   0.143  15.441 -2.1120  1.7143 -2.1511
  816TIP3   OH223862   0.809   0.774  10.801  0.1035 -0.0547  0.7588
  816TIP3    H123863   0.725   0.784  10.847 -0.1286  1.7272  0.0444
  816TIP3    H223864   0.874   0.772  10.871 -0.3193  1.6334  1.2507
  817TIP3   OH223865   1.566   0.937   5.884 -0.7062 -0.1337 -0.2536
  817TIP3    H123866   1.493   0.999   5.878 -0.8146 -0.3129 -0.8326
  817TIP3    H223867   1.526   0.857   5.918 -0.2750  0.5786  2.0683
  818TIP3   OH223868   0.696   3.024  15.853  0.5340  0.1420 -0.3650
  818TIP3    H123869   0.730   2.960  15.791 -1.4500  0.4549 -1.8574
  818TIP3    H223870   0.705   3.108  15.809 -0.2422  0.4550  0.0547
  819TIP3   OH223871   2.234   1.883   4.912 -0.1426  0.1137  0.4069
  819TIP3    H123872   2.184   1.812   4.870 -0.8756  2.3607 -2.9278
  819TIP3    H223873   2.324   1.868   4.885 -0.1714  0.0152  0.3640
  820TIP3   OH223874   3.304   5.976   3.418 -0.1630  0.9557  0.8187
  820TIP3    H123875   3.299   6.044   3.485 -0.6142 -1.0137  2.8833
  820TIP3    H223876   3.275   5.896   3.461  0.0339 -0.5416 -1.5949
  821TIP3   OH223877   6.707   4.642  16.655  0.1617  0.1869 -0.9819
  821TIP3    H123878   6.676   4.561  16.696  3.4597 -0.1491  1.2674
  821TIP3    H223879   6.746   4.614  16.572  1.3888 -0.6337 -0.1655
  822TIP3   OH223880   0.820   3.229  15.598 -0.0815  0.1390  0.3978
  822TIP3    H123881   0.895   3.257  15.649  0.1812 -0.3860  0.3049
  822TIP3    H223882   0.816   3.291  15.525 -1.2041  1.6570  1.6933
  823TIP3   OH223883   0.409   2.913  11.813  0.3425 -0.1797 -0.6974
  823TIP3    H123884   0.463   2.990  11.798  0.1403 -0.0650 -0.8396
  823TIP3    H223885   0.469   2.848  11.850 -0.1350  1.1284  2.6950
  824TIP3   OH223886   3.895   2.448  13.350  0.1642  0.0302 -0.0695
  824TIP3    H123887   3.933   2.528  13.389  0.5017 -0.7339  1.2528
  824TIP3    H223888   3.816   2.432  13.401 -0.0684 -0.3150 -0.5328
  825TIP3   OH223889   2.122   5.751  17.076  0.1778 -0.1720 -0.7052
  825TIP3    H123890   2.215   5.768  17.095  0.0593 -0.0298 -0.2380
  825TIP3    H223891   2.123   5.671  17.023  0.4306 -1.5721  1.3111
  826TIP3   OH223892   4.643   0.654  14.017  0.0635  0.2062  0.0309
  826TIP3    H123893   4.596   0.604  14.084  0.6112 -1.4079 -0.7129
  826TIP3    H223894   4.733   0.622  14.023 -0.1328 -1.0229 -2.3330
  827TIP3   OH223895   5.051   4.884   3.134  0.4524  0.1330  0.5448
  827TIP3    H123896   5.120   4.925   3.187  0.4477 -1.3066  1.7658
  827TIP3    H223897   5.099   4.831   3.070  0.4631  0.3143  0.4008
  828TIP3   OH223898   5.157   6.312  16.073  0.2882  0.4486  0.3204
  828TIP3    H123899   5.230   6.263  16.113  0.3858  0.4908  0.1911
  828TIP3    H223900   5.186   6.403  16.073 -1.0961  1.0423  3.4188
  829TIP3   OH223901   2.118   1.534  15.717  0.9272 -0.0962 -0.4390
  829TIP3    H123902   2.167   1.616  15.719 -0.6476  0.8946  1.1292
  829TIP3    H223903   2.177   1.470  15.755  1.5916  0.6990 -0.0929
  830TIP3   OH223904   1.723   3.385   0.123 -0.4295  0.2134  0.1184
  830TIP3    H123905   1.766   3.393   0.208 -0.0251 -0.7013  0.0111
  830TIP3    H223906   1.752   3.462   0.074 -0.5577  0.6749  0.7525
  831TIP3   OH223907   0.325   5.656   0.987  0.1846 -0.0911  0.1311
  831TIP3    H123908   0.318   5.668   0.892 -0.9440  0.9001  0.3096
  831TIP3    H223909   0.398   5.712   1.013 -1.0075  1.5320  0.1257
  832TIP3   OH223910   4.893   4.826   4.305 -0.2486  0.2560  0.2569
  832TIP3    H123911   4.889   4.823   4.210 -1.1706  0.2291  0.2947
  832TIP3    H223912   4.938   4.909   4.324 -1.2318  0.8975 -0.1790
  833TIP3   OH223913   1.580   3.959  17.162  0.3180  1.0738 -0.1263
  833TIP3    H123914   1.574   3.878  17.214  1.8156 -1.3967 -3.4266
  833TIP3    H223915   1.592   4.028  17.227  1.9926 -1.7118  2.8298
  834TIP3   OH223916   0.422   4.156  14.732  0.1166  0.5268 -0.1577
  834TIP3    H123917   0.410   4.115  14.818 -2.2671  0.0429 -0.6564
  834TIP3    H223918   0.517   4.152  14.717  0.6275  0.7463  2.4731
  835TIP3   OH223919   2.369   2.252  16.937 -0.3311  0.6322  0.5817
  835TIP3    H123920   2.442   2.240  16.877 -0.2926  1.4367  0.4545
  835TIP3    H223921   2.303   2.299  16.886 -0.0528  1.8788  1.3263
  836TIP3   OH223922   4.861   1.982   3.126 -0.3376 -0.1369 -0.5488
  836TIP3    H123923   4.925   1.984   3.055 -0.7971  0.0771 -0.9600
  836TIP3    H223924   4.867   2.068   3.167  1.6426 -1.0505  1.2272
  837TIP3   OH223925   3.595   3.364  12.038  0.1645  0.4223  0.2560
  837TIP3    H123926   3.563   3.302  11.973 -1.7097  1.2418  0.3362
  837TIP3    H223927   3.635   3.310  12.106 -0.0075 -0.5814 -0.4238
  838TIP3   OH223928   4.949   6.167  12.223 -0.2959  1.0095  0.1443
  838TIP3    H123929   4.983   6.243  12.270  0.2315  1.2521 -0.5940
  838TIP3    H223930   4.996   6.168  12.139  0.0899 -0.4119  0.3125
  839TIP3   OH223931   4.299   5.190  11.605 -0.1950 -0.6867 -0.5858
  839TIP3    H123932   4.312   5.273  11.651  0.4896 -0.8254 -0.5125
  839TIP3    H223933   4.277   5.215  11.515 -1.8626 -0.4071 -0.1273
  840TIP3   OH223934   2.071   3.511  13.245  0.0989  0.2218  0.3942
  840TIP3    H123935   2.059   3.527  13.338 -0.1470  0.5542  0.3064
  840TIP3    H223936   1.984   3.524  13.207 -0.6910 -3.3393  0.5942
  841TIP3   OH223937   5.020   5.072  13.888  0.6057 -0.2296  0.4590
  841TIP3    H123938   4.949   5.018  13.854  0.6014  0.3585 -0.5013
  841TIP3    H223939   5.087   5.070  13.818  0.7552  0.7027  0.5617
  842TIP3   OH223940   3.875   3.954   0.073  0.5573  0.3607  0.3521
  842TIP3    H123941   3.948   3.891   0.078  0.6197  0.3113 -0.8822
  842TIP3    H223942   3.843   3.946  -0.017  1.7760  3.4164 -0.4928
  843TIP3   OH223943   2.699   2.400  11.572  0.0586  0.2431 -0.2225
  843TIP3    H123944   2.660   2.328  11.522 -0.1732 -0.6934  1.2622
  843TIP3    H223945   2.707   2.367  11.661  0.5712  1.8337  0.3644
  844TIP3   OH223946   0.811   3.031   3.192  0.5245  0.2518 -0.2743
  844TIP3    H123947   0.877   3.077   3.243  0.2549 -0.2805  0.5678
  844TIP3    H223948   0.760   2.982   3.257 -0.8472  0.8294 -0.8667
  845TIP3   OH223949   4.789   0.839   4.891  0.3431 -0.0114 -0.4937
  845TIP3    H123950   4.818   0.749   4.874 -0.3669 -0.4499  0.5087
  845TIP3    H223951   4.854   0.874   4.953  0.9784  0.3997 -1.3721
  846TIP3   OH223952   5.911   2.409  13.505  0.1211  0.1761 -0.2810
  846TIP3    H123953   5.846   2.392  13.436 -1.0802 -0.3345  0.9432
  846TIP3    H223954   5.876   2.366  13.583  1.2745  1.0365  0.7555
  847TIP3   OH223955   2.945   2.572  13.558 -0.6304 -0.0845 -0.0146
  847TIP3    H123956   2.868   2.629  13.558 -1.4577 -1.1448  1.6740
  847TIP3    H223957   2.913   2.488  13.591  0.9105 -1.0625 -0.8968
  848TIP3   OH223958   2.667   4.910   3.004 -0.2200 -0.1424 -0.1666
  848TIP3    H123959   2.737   4.964   2.967 -2.2985  0.9325 -2.7901
  848TIP3    H223960   2.687   4.821   2.974  0.7376 -0.0934  0.2901
  849TIP3   OH223961   5.695   0.273  11.746  0.0879  0.0348 -0.1381
  849TIP3    H123962   5.618   0.293  11.694 -1.7256  2.1904  3.0414
  849TIP3    H223963   5.704   0.347  11.806  2.5839 -1.7397  1.9232
  850TIP3   OH223964   3.369   5.666  15.414  0.1125  0.5113  0.4168
  850TIP3    H123965   3.353   5.578  15.448 -0.8130  0.2043 -0.7439
  850TIP3    H223966   3.358   5.723  15.490 -0.1525 -0.3006  1.0062
  851TIP3   OH223967   6.747   0.647   1.146  0.1641 -0.2548  0.1280
  851TIP3    H123968   6.697   0.692   1.078  0.0516 -0.6438 -0.0498
  851TIP3    H223969   6.682   0.624   1.212  0.2775  0.1447  0.3815
  852TIP3   OH223970   0.018   2.682   6.132 -0.3553  0.0624  0.4627
  852TIP3    H123971  -0.064   2.690   6.084 -0.9882 -1.0032  1.3137
  852TIP3    H223972   0.010   2.744   6.204 -0.3565  0.0645  0.4607
  853TIP3   OH223973   0.846   1.171   3.083 -0.1031 -0.3249  0.0513
  853TIP3    H123974   0.869   1.242   3.142 -0.7839  0.8012 -0.9922
  853TIP3    H223975   0.754   1.152   3.102  0.1343 -1.1136  0.4837
  854TIP3   OH223976   3.331   5.047   2.572  0.1656  0.0149 -0.3289
  854TIP3    H123977   3.343   5.083   2.660  0.2860  0.8015 -0.6596
  854TIP3    H223978   3.419   5.017   2.547  0.6329  1.8010 -1.0267
  855TIP3   OH223979   4.644   0.068  17.096 -0.0918 -0.1172  0.5253
  855TIP3    H123980   4.590   0.030  17.027  0.1221 -2.6500  1.6417
  855TIP3    H223981   4.722   0.101  17.051 -0.2390 -1.1549 -0.5182
  856TIP3   OH223982   3.499   2.925   0.210  0.0273  0.2051  0.2914
  856TIP3    H123983   3.446   2.858   0.253  1.4079 -1.5533 -0.6191
  856TIP3    H223984   3.436   2.993   0.186 -1.2316 -0.1365  2.3542
  857TIP3   OH223985   3.426   6.279  10.755 -0.3452 -0.1772 -0.2368
  857TIP3    H123986   3.503   6.322  10.719 -0.7212  1.0312  0.3419
  857TIP3    H223987   3.388   6.231  10.682 -0.5939  1.4845 -1.2410
  858TIP3   OH223988   3.534   4.523  16.866 -0.0469  0.2177  0.5622
  858TIP3    H123989   3.562   4.532  16.957  0.4872 -1.2423  0.5654
  858TIP3    H223990   3.555   4.608  16.826  0.2347  0.6788  1.6490
  859TIP3   OH223991   4.023   2.275  12.331  0.2772  0.3465  0.1891
  859TIP3    H123992   4.046   2.333  12.259  1.0244 -3.9632 -3.5384
  859TIP3    H223993   4.106   2.236  12.359 -0.3880 -0.5694  0.9892
  860TIP3   OH223994   6.689   5.365  14.962 -0.0352  0.9742  0.2085
  860TIP3    H123995   6.671   5.410  15.045  0.0377  0.3731  0.5535
  860TIP3    H223996   6.783   5.376  14.950  0.4091 -0.9810  1.4418
  861TIP3   OH223997   4.788   5.113  16.572 -0.0580 -0.0651  0.0474
  861TIP3    H123998   4.750   5.193  16.535 -1.6751 -0.0805  1.5297
  861TIP3    H223999   4.882   5.122  16.557 -0.2997  1.6833 -0.6430
  862TIP3   OH224000   2.060   6.032   1.650 -0.7711 -1.0374  0.6270
  862TIP3    H124001   2.023   6.050   1.563 -1.1916  0.5883  1.1017
  862TIP3    H224002   2.057   5.937   1.658 -0.0026 -1.2914 -1.4497
  863TIP3   OH224003   3.277   6.522   3.571  0.1177 -0.7468  0.0457
  863TIP3    H124004   3.208   6.573   3.528 -0.0511  0.2837  1.4620
  863TIP3    H224005   3.249   6.516   3.662  2.0620  0.0289  0.7416
  864TIP3   OH224006   3.138   1.121  13.485  0.2024 -0.1824 -0.2282
  864TIP3    H124007   3.067   1.151  13.428 -0.4923  1.0167  1.1846
  864TIP3    H224008   3.195   1.198  13.493  0.3304 -0.3539  0.5948
  865TIP3   OH224009   2.883   1.969  12.658 -0.0393 -0.3772  0.1820
  865TIP3    H124010   2.943   1.917  12.605  0.7540 -0.4361  1.1238
  865TIP3    H224011   2.931   1.988  12.738 -0.8534  0.5733  0.4645
  866TIP3   OH224012   0.962   3.550   0.696 -0.0333  0.3072  0.0196
  866TIP3    H124013   1.021   3.476   0.709 -0.4198  0.3988  2.9114
  866TIP3    H224014   0.903   3.522   0.626  1.5006 -0.9981 -0.8121
  867TIP3   OH224015   6.292   4.530   5.302 -0.1559 -0.1855  0.1602
  867TIP3    H124016   6.291   4.438   5.278  2.1379 -0.8265  2.1558
  867TIP3    H224017   6.275   4.530   5.396  0.5479  1.3636  0.3172
  868TIP3   OH224018   0.019   5.365   4.529  0.8771  0.0862 -1.0199
  868TIP3    H124019   0.066   5.311   4.465  1.0554 -0.0171 -0.7994
  868TIP3    H224020  -0.013   5.303   4.595 -0.8709 -0.0716 -1.9366
  869TIP3   OH224021   1.347   3.171  16.685  0.7124 -0.1331  0.0965
  869TIP3    H124022   1.258   3.206  16.695  0.7204  1.0755 -3.1510
  869TIP3    H224023   1.341   3.109  16.613  3.0441  2.5444 -2.6397
  870TIP3   OH224024   3.759   6.660   4.232  0.2333  0.2619  0.1403
  870TIP3    H124025   3.833   6.679   4.174  2.0533 -0.5091  2.0686
  870TIP3    H224026   3.796   6.669   4.320 -1.2733 -2.6473  1.1792
  871TIP3   OH224027   4.072   1.944  11.376 -0.3212  0.7571  0.3134
  871TIP3    H124028   4.135   1.960  11.306  0.2971  1.5304  1.0267
  871TIP3    H224029   4.037   1.857  11.358  2.6348 -0.7358  1.1888
  872TIP3   OH224030   1.287   3.295  11.847  0.2684 -0.3553 -0.7491
  872TIP3    H124031   1.243   3.247  11.917 -1.6747  0.2374 -1.5145
  872TIP3    H224032   1.330   3.368  11.892  2.1626 -1.9716  0.2486
  873TIP3   OH224033   1.160   5.099  12.087 -0.0063 -0.0001 -0.3787
  873TIP3    H124034   1.208   5.083  12.006  1.6502 -0.4785  0.6386
  873TIP3    H224035   1.216   5.062  12.155  0.5404  3.6229  1.4172
  874TIP3   OH224036   5.830   3.480   6.024  0.2777  0.0108  0.6650
  874TIP3    H124037   5.806   3.390   6.000 -1.8748  0.8396 -0.5896
  874TIP3    H224038   5.760   3.508   6.084  0.5729  1.0367  0.5499
  875TIP3   OH224039   6.234   5.387   5.387 -0.6244  0.5887  0.2102
  875TIP3    H124040   6.205   5.317   5.328 -2.0138  2.4012 -1.4165
  875TIP3    H224041   6.181   5.377   5.465 -1.3568  0.2709 -0.3212
  876TIP3   OH224042   4.415   1.667   1.359 -0.1046 -0.2812 -0.0835
  876TIP3    H124043   4.354   1.722   1.409  0.4845 -0.7956  1.2650
  876TIP3    H224044   4.381   1.578   1.372 -1.3361 -0.2737 -2.6402
  877TIP3   OH224045   4.123   2.641  16.678  0.2009 -0.1330  0.1220
  877TIP3    H124046   4.071   2.683  16.609 -1.6433 -2.1236  0.1853
  877TIP3    H224047   4.214   2.655  16.651 -0.4311  0.2505 -2.0219
  878TIP3   OH224048   5.677   2.665   0.300 -0.2118  0.0138  0.0287
  878TIP3    H124049   5.702   2.630   0.386  2.2208  0.5728 -0.3761
  878TIP3    H224050   5.757   2.659   0.248 -1.2435  1.0511 -1.7525
  879TIP3   OH224051   5.367   0.332  13.417  0.0068 -0.0143  0.1117
  879TIP3    H124052   5.372   0.379  13.334 -0.8007 -1.6603 -0.9169
  879TIP3    H224053   5.388   0.241  13.395  0.3074 -0.4006  1.8159
  880TIP3   OH224054   3.195   3.842   2.014  0.5321  0.2538 -0.2198
  880TIP3    H124055   3.138   3.814   1.943 -0.1393 -1.5237  0.9667
  880TIP3    H224056   3.196   3.769   2.075 -1.1831  2.6751  3.0312
  881TIP3   OH224057   0.980   0.122  15.930 -0.4024  0.0100  0.1336
  881TIP3    H124058   0.891   0.144  15.902 -0.0180 -0.8578 -1.9882
  881TIP3    H224059   1.034   0.195  15.900 -0.4138  0.8221  1.9360
  882TIP3   OH224060   2.513   6.776  12.504 -0.2410  0.5230 -0.1783
  882TIP3    H124061   2.459   6.722  12.447 -0.7392 -0.4017  1.1340
  882TIP3    H224062   2.603   6.755  12.480 -0.4410 -0.4011 -0.1200
  883TIP3   OH224063   6.005   2.627  13.179 -0.1830 -0.0213 -0.0662
  883TIP3    H124064   6.015   2.695  13.113  0.1682 -0.0634 -0.0591
  883TIP3    H224065   6.087   2.577  13.175 -0.2683 -0.1890  0.2142
  884TIP3   OH224066   5.091   2.416   3.261 -0.3182  0.5897 -0.6549
  884TIP3    H124067   5.066   2.502   3.297 -0.3611  0.2757  0.0808
  884TIP3    H224068   5.182   2.428   3.234  0.0207  0.5800  0.4251
  885TIP3   OH224069   3.981   1.772  12.398 -0.1223  0.1325 -0.6778
  885TIP3    H124070   4.008   1.836  12.464 -1.7760  0.4287 -0.2522
  885TIP3    H224071   3.965   1.824  12.319 -0.6428  0.1462 -0.5692
  886TIP3   OH224072   6.147   0.954  12.905  0.4516  0.5225 -0.7260
  886TIP3    H124073   6.182   1.004  12.978 -1.5258  0.1989  0.5064
  886TIP3    H224074   6.055   0.978  12.900 -0.2403 -1.8643 -1.0139
  887TIP3   OH224075   0.457   5.797   1.928 -0.9246  0.1714  0.1018
  887TIP3    H124076   0.519   5.846   1.981 -0.7978 -0.3699  0.4651
  887TIP3    H224077   0.413   5.863   1.874  0.3173  0.5262 -0.5261
  888TIP3   OH224078   3.775   5.753   1.776 -0.3591 -0.5811 -0.0062
  888TIP3    H124079   3.728   5.770   1.695 -0.4832 -1.1736 -0.0647
  888TIP3    H224080   3.722   5.688   1.822 -1.6354  1.5458  1.7574
  889TIP3   OH224081   3.395   0.450  11.589 -0.0733 -0.0318  0.1677
  889TIP3    H124082   3.424   0.443  11.680  0.5814 -1.4743 -0.1159
  889TIP3    H224083   3.396   0.359  11.557 -3.0731  0.0453 -0.4444
  890TIP3   OH224084   3.251   5.918   4.507  0.4904 -0.1964  0.3477
  890TIP3    H124085   3.242   5.854   4.578 -1.5308  0.2186  0.5115
  890TIP3    H224086   3.231   6.002   4.547  0.4676  0.1886 -0.4535
  891TIP3   OH224087   5.679   1.953   3.527  0.1353  0.1601  0.2024
  891TIP3    H124088   5.683   2.022   3.593  1.5494  0.2333  0.0872
  891TIP3    H224089   5.644   1.877   3.574  1.5840  0.0628  1.2136
  892TIP3   OH224090   2.541   0.014  11.581  0.0896 -0.1810 -0.2611
  892TIP3    H124091   2.520   0.096  11.626  0.6164 -0.9667  1.4903
  892TIP3    H224092   2.625   0.031  11.538 -0.8044  0.8341 -1.7008
  893TIP3   OH224093   1.011   6.096  13.611  0.0515  0.0387 -0.2432
  893TIP3    H124094   0.943   6.069  13.551  0.4072 -0.3914 -0.4621
  893TIP3    H224095   1.032   6.016  13.661  1.2805 -0.1804 -1.0588
  894TIP3   OH224096   1.568   6.730  11.485  0.2872  0.0954  0.7969
  894TIP3    H124097   1.604   6.787  11.417 -0.1480 -0.1702  0.3364
  894TIP3    H224098   1.571   6.783  11.565  3.6905 -0.6132  1.2829
  895TIP3   OH224099   3.149   1.039  12.854  0.1479 -0.3326  0.3216
  895TIP3    H124100   3.227   1.088  12.829 -0.2753  0.0382 -0.2684
  895TIP3    H224101   3.175   0.993  12.934  1.7637 -2.1244 -1.1337
  896TIP3   OH224102   0.975   0.392  14.259  0.6171  0.1545 -0.1215
  896TIP3    H124103   0.996   0.309  14.301  0.9424  0.9605  1.3826
  896TIP3    H224104   1.005   0.382  14.168  1.6154 -0.9961  0.3133
  897TIP3   OH224105   4.149   0.013   5.772 -0.0170 -0.3701  0.2898
  897TIP3    H124106   4.086  -0.011   5.840  1.4301  0.4612  2.0079
  897TIP3    H224107   4.187   0.096   5.802  0.9876 -0.1884 -1.3349
  898TIP3   OH224108   2.253   3.833   1.305  0.3146  0.2791 -0.0547
  898TIP3    H124109   2.274   3.846   1.213  0.1567 -1.4667 -0.3727
  898TIP3    H224110   2.268   3.740   1.320 -0.1351  0.4404  1.5659
  899TIP3   OH224111   4.221   1.593  12.346  0.0720  0.4304 -0.3062
  899TIP3    H124112   4.130   1.607  12.319  1.0799  3.2678 -2.7009
  899TIP3    H224113   4.233   1.648  12.423 -0.5843 -1.2435  1.0642
  900TIP3   OH224114   5.818   4.614   1.309  0.0703 -0.4898 -0.0495
  900TIP3    H124115   5.739   4.665   1.331  0.4006 -0.1307  0.3115
  900TIP3    H224116   5.820   4.543   1.373  0.6465  0.1487  0.6550
  901TIP3   OH224117   4.383   0.121  14.144  0.6661 -0.3406  0.0583
  901TIP3    H124118   4.458   0.169  14.109  0.4203 -0.0092 -0.0196
  901TIP3    H224119   4.326   0.106  14.068  1.9263 -3.0400 -0.4538
  902TIP3   OH224120   0.816   3.298  11.856  0.1576 -0.2704  0.1137
  902TIP3    H124121   0.871   3.268  11.928 -0.6820 -0.4010  0.7097
  902TIP3    H224122   0.833   3.392  11.850 -0.1803 -0.1582  0.8478
  903TIP3   OH224123   3.505   2.807  11.574  0.0158  0.2261  0.4057
  903TIP3    H124124   3.458   2.756  11.508  2.2559 -0.0612 -1.1120
  903TIP3    H224125   3.528   2.889  11.530  2.2011 -0.2742  0.4953
  904TIP3   OH224126   4.502   2.004  12.112 -0.2384  0.4897  0.1955
  904TIP3    H124127   4.461   2.050  12.186  0.5514  0.6436  0.5467
  904TIP3    H224128   4.449   2.028  12.037 -0.3843  1.2517  0.5277
  905TIP3   OH224129   4.901   5.700  11.187 -0.5402 -0.0568 -0.2843
  905TIP3    H124130   4.819   5.652  11.198  0.1675 -1.1087  0.7278
  905TIP3    H224131   4.889   5.780  11.237 -1.1623  0.0897 -0.6556
  906TIP3   OH224132   3.650   6.373  17.063 -0.1748  0.6299 -0.3174
  906TIP3    H124133   3.670   6.318  17.138 -0.2892 -1.3808 -1.6923
  906TIP3    H224134   3.721   6.436  17.059  0.0855  0.4639  1.1647
  907TIP3   OH224135   3.263   4.971  15.850  0.3765  0.3056  0.6168
  907TIP3    H124136   3.354   4.974  15.821  0.4529  0.4030  0.8596
  907TIP3    H224137   3.267   4.987  15.945  0.0656  0.8047  0.5502
  908TIP3   OH224138   3.131   1.479   4.244 -0.3716  0.4917 -0.1091
  908TIP3    H124139   3.147   1.573   4.234 -0.6675  0.4245 -1.4513
  908TIP3    H224140   3.124   1.447   4.154 -0.6278 -0.7542  0.3424
  909TIP3   OH224141   1.822   2.948  10.631 -0.3986 -0.2118  0.1112
  909TIP3    H124142   1.901   3.003  10.630 -1.4826  1.4034 -0.3473
  909TIP3    H224143   1.749   3.011  10.630 -1.7026 -1.6741 -0.4341
  910TIP3   OH224144   4.010   5.484  15.601 -0.3004 -0.2067 -0.1732
  910TIP3    H124145   4.071   5.425  15.644  0.2226 -0.3692 -1.1003
  910TIP3    H224146   4.052   5.570  15.604 -1.3667  0.3180  1.7901
  911TIP3   OH224147   6.012   4.838  12.683  0.3109  0.1834 -0.5591
  911TIP3    H124148   5.992   4.911  12.624  1.0175 -2.1840 -4.0413
  911TIP3    H224149   6.104   4.819  12.667  0.5211 -0.6233  1.3419
  912TIP3   OH224150   1.775   5.782  14.756 -0.0395  0.0671  0.2187
  912TIP3    H124151   1.711   5.734  14.810  0.8123  0.0851  1.2880
  912TIP3    H224152   1.852   5.789  14.812  0.9037  0.0671 -1.0323
  913TIP3   OH224153   0.555   1.498  11.166  0.0507 -0.4046  0.1727
  913TIP3    H124154   0.613   1.569  11.196 -1.7528  0.2610  2.3790
  913TIP3    H224155   0.506   1.537  11.093  0.4318 -0.0647  0.0918
  914TIP3   OH224156   4.830   4.487   4.803 -0.1504 -0.0001  0.5301
  914TIP3    H124157   4.818   4.433   4.882 -0.4434 -2.2195 -0.9259
  914TIP3    H224158   4.751   4.470   4.751  0.2146  1.1185 -0.4266
  915TIP3   OH224159   4.677   4.804  13.038  1.2424 -0.1625 -0.4942
  915TIP3    H124160   4.616   4.732  13.056  1.2012 -0.2526 -0.9725
  915TIP3    H224161   4.620   4.878  13.015  1.3171 -0.6299 -2.3514
  916TIP3   OH224162   3.968   0.101  11.971  0.1092  0.3489  0.5018
  916TIP3    H124163   4.033   0.113  11.902  0.5733  0.0723  0.8784
  916TIP3    H224164   3.984   0.012  12.003 -0.5846  0.2072  0.4715
  917TIP3   OH224165   5.016   4.538   0.814  0.3739 -0.0354 -0.3178
  917TIP3    H124166   5.100   4.521   0.857 -1.2534 -1.1812  2.7131
  917TIP3    H224167   4.975   4.451   0.806 -1.1052  0.6394 -0.3825
  918TIP3   OH224168   6.040   1.767   3.390  0.5659 -0.0801  0.3158
  918TIP3    H124169   6.011   1.846   3.434  0.0103 -0.2592  0.2789
  918TIP3    H224170   5.960   1.716   3.377  0.8415 -0.4040 -0.1437
  919TIP3   OH224171   5.212   3.875  15.192  0.2768 -0.8687  0.1630
  919TIP3    H124172   5.162   3.927  15.256  0.8017  0.0134 -0.1241
  919TIP3    H224173   5.253   3.940  15.136 -0.4917 -1.6291 -1.3440
  920TIP3   OH224174   1.220   6.147  14.109  0.0544  0.1557  0.3252
  920TIP3    H124175   1.250   6.066  14.150  0.6508  0.6860  0.9520
  920TIP3    H224176   1.204   6.207  14.182  0.6838  0.9600 -0.1903
  921TIP3   OH224177   4.654   3.026  12.809 -0.3765  0.6818 -0.2863
  921TIP3    H124178   4.591   2.968  12.767  0.7693 -0.7404 -0.1292
  921TIP3    H224179   4.688   3.080  12.737 -2.0272  1.7727 -0.3036
  922TIP3   OH224180   4.042   4.600   4.457  0.1377  0.0349  0.1439
  922TIP3    H124181   3.968   4.546   4.486  1.2589 -2.2615 -1.0028
  922TIP3    H224182   4.001   4.676   4.414 -1.5589 -1.1371 -0.4088
  923TIP3   OH224183   0.092   4.276   2.812 -0.2556 -0.1935  0.1857
  923TIP3    H124184   0.077   4.230   2.894 -0.3188  0.4633  0.5437
  923TIP3    H224185   0.006   4.281   2.771 -0.5608  1.1227  0.9514
  924TIP3   OH224186   4.100   1.587   2.493  0.8370 -0.1587 -0.0572
  924TIP3    H124187   4.168   1.574   2.426  2.1746 -0.9750  1.4046
  924TIP3    H224188   4.081   1.500   2.526  1.0852  0.3409  1.4634
  925TIP3   OH224189   1.846   2.835   5.327  0.2939  0.1247 -0.3876
  925TIP3    H124190   1.831   2.846   5.233 -0.6183  1.3085 -0.1168
  925TIP3    H224191   1.760   2.847   5.367  0.4476 -1.5022  0.5303
  926TIP3   OH224192   3.249   5.328  12.546  0.7874 -0.4166  0.2291
  926TIP3    H124193   3.336   5.338  12.506  0.6089  0.8189  0.1095
  926TIP3    H224194   3.199   5.280  12.480  1.7344 -2.3516  0.8598
  927TIP3   OH224195   6.593   3.724  13.083  0.2017  0.0254  0.0567
  927TIP3    H124196   6.622   3.658  13.146  0.9582 -1.3878 -1.7089
  927TIP3    H224197   6.497   3.723  13.090  0.2761  0.3466  1.5673
  928TIP3   OH224198   0.618   2.603  16.815  0.5814  0.1672 -0.0904
  928TIP3    H124199   0.548   2.564  16.867  0.4884 -0.7910 -0.8894
  928TIP3    H224200   0.574   2.661  16.754  0.6206  0.6678  0.3502
  929TIP3   OH224201   3.763   0.535   3.886 -0.6929 -0.4086 -0.7343
  929TIP3    H124202   3.823   0.485   3.941  0.0481  2.1210  0.9556
  929TIP3    H224203   3.807   0.541   3.801  0.1920 -0.8060 -0.3117
  930TIP3   OH224204   2.511   6.599  12.002  0.5494  0.0784  0.6279
  930TIP3    H124205   2.450   6.538  11.962  2.9315 -1.2010 -1.3240
  930TIP3    H224206   2.490   6.684  11.963 -1.0041 -0.0002  1.2525
  931TIP3   OH224207   6.008   3.105  16.385  0.4291  0.1944 -1.2816
  931TIP3    H124208   5.947   3.154  16.440 -1.6005 -2.1969 -1.2487
  931TIP3    H224209   6.012   3.154  16.303 -0.6414  1.0252 -0.8535
  932TIP3   OH224210   1.203   5.788  12.643  0.5652 -0.0619 -0.0165
  932TIP3    H124211   1.132   5.803  12.581  0.2444 -1.1289  0.0759
  932TIP3    H224212   1.163   5.796  12.729  0.4401 -1.1093  0.0370
  933TIP3   OH224213   1.902   5.265   4.645 -0.0843 -0.0608  0.0341
  933TIP3    H124214   1.859   5.276   4.560 -0.7042  1.1367  0.4839
  933TIP3    H224215   1.832   5.279   4.709  0.9729  2.1376  0.7874
  934TIP3   OH224216   5.354   1.453  12.284 -0.1056  0.4978  0.2305
  934TIP3    H124217   5.261   1.453  12.305 -0.0713  0.7691  0.3900
  934TIP3    H224218   5.399   1.450  12.369  0.0552 -2.3550  0.1324
  935TIP3   OH224219   0.712   6.522   3.853 -0.3946 -0.1684 -0.6050
  935TIP3    H124220   0.744   6.436   3.825 -0.9410 -0.5148 -0.1916
  935TIP3    H224221   0.684   6.509   3.944 -0.1902  0.5262 -0.4403
  936TIP3   OH224222   2.464   2.013  12.193 -0.1226  0.8595 -0.3012
  936TIP3    H124223   2.393   2.015  12.257  0.0647  0.8530 -0.0949
  936TIP3    H224224   2.543   2.031  12.243 -0.0516  1.5323 -0.6370
  937TIP3   OH224225   3.897   6.230   3.279  0.1666  0.1046 -0.3467
  937TIP3    H124226   3.875   6.148   3.324 -0.7972  0.3890 -0.2792
  937TIP3    H224227   3.957   6.203   3.209  0.6117 -0.5263  0.2638
  938TIP3   OH224228   4.374   5.438  14.073 -0.0419 -0.4339  0.4592
  938TIP3    H124229   4.412   5.475  13.994  0.5957 -1.9656  0.0225
  938TIP3    H224230   4.420   5.356  14.086 -1.1177 -0.8858  1.6403
  939TIP3   OH224231   4.952   1.512   3.838  0.0988  0.3018 -0.3222
  939TIP3    H124232   4.989   1.578   3.896 -0.6711 -0.9091  1.6383
  939TIP3    H224233   4.880   1.557   3.794 -2.1190  0.2196  2.9029
  940TIP3   OH224234   1.956   0.642  11.074  0.3236 -0.0949 -0.4038
  940TIP3    H124235   1.962   0.552  11.103 -0.5730 -1.1116 -3.0297
  940TIP3    H224236   1.886   0.642  11.008  0.6425  2.3921 -0.8753
  941TIP3   OH224237   5.131   3.428   5.209  0.2607 -0.5187 -0.3793
  941TIP3    H124238   5.180   3.349   5.189  1.7356  0.1653  0.3552
  941TIP3    H224239   5.119   3.472   5.124  0.9829 -0.6679 -0.5623
  942TIP3   OH224240   2.480   4.541  14.051 -0.0333 -0.6092 -1.1411
  942TIP3    H124241   2.469   4.506  13.962 -0.7448 -0.7330 -1.0113
  942TIP3    H224242   2.415   4.494  14.103  1.8092 -2.0952 -0.0984
  943TIP3   OH224243   0.906   1.616  14.255 -0.0989  0.5531  0.4630
  943TIP3    H124244   0.861   1.602  14.339  0.0766  0.5273  0.5515
  943TIP3    H224245   0.837   1.606  14.189  0.2871 -2.3965  0.3753
  944TIP3   OH224246   5.640   4.957   3.948 -0.6935 -0.1533  0.1249
  944TIP3    H124247   5.671   4.936   3.860 -2.5347 -0.6744 -0.4435
  944TIP3    H224248   5.584   4.884   3.972 -2.2444  1.1550  0.6709
  945TIP3   OH224249   4.653   1.276  12.273  0.6903  0.3188 -0.0372
  945TIP3    H124250   4.748   1.269  12.264  0.6671 -0.6462  0.3367
  945TIP3    H224251   4.639   1.362  12.313  1.4330  0.2834  0.3286
  946TIP3   OH224252   2.494   1.429   5.024  0.5215 -0.6322 -0.0049
  946TIP3    H124253   2.467   1.340   4.998  0.1748 -0.5358  0.0235
  946TIP3    H224254   2.421   1.462   5.075  0.0355  0.1919 -1.1855
  947TIP3   OH224255   6.572   0.008   2.194  0.0119  0.0335  0.0041
  947TIP3    H124256   6.592  -0.070   2.142 -1.3642  0.7892 -1.7850
  947TIP3    H224257   6.483  -0.007   2.226  0.5999 -0.1153  1.6306
  948TIP3   OH224258   6.271   4.348   0.728 -0.3251  0.4331  0.4143
  948TIP3    H124259   6.289   4.265   0.685 -1.3723 -0.1987  1.1286
  948TIP3    H224260   6.357   4.386   0.744  0.1535 -0.3078 -0.3225
  949TIP3   OH224261   3.735   1.813  14.598 -0.5710 -0.5198 -0.6883
  949TIP3    H124262   3.716   1.860  14.517 -0.9744  0.6031  0.0405
  949TIP3    H224263   3.651   1.777  14.625 -0.4145 -0.9925 -0.8255
  950TIP3   OH224264   5.582   0.535  14.884 -0.0731  0.0635  0.0390
  950TIP3    H124265   5.577   0.618  14.836  1.5951  1.7756  2.5390
  950TIP3    H224266   5.608   0.561  14.973 -0.6325 -3.0852  1.2360
  951TIP3   OH224267   3.920   6.451   2.832  0.3158  0.7357 -0.1067
  951TIP3    H124268   3.870   6.447   2.913 -0.3419 -3.3101 -0.5082
  951TIP3    H224269   3.854   6.451   2.762  0.8819  1.5793 -0.6583
  952TIP3   OH224270   2.304   0.093   3.213 -0.0104  0.6571  0.3308
  952TIP3    H124271   2.249   0.130   3.282 -0.0553  1.5907 -0.1879
  952TIP3    H224272   2.391   0.130   3.228  0.4799 -0.7194  1.0739
  953TIP3   OH224273   6.577   0.971  10.061  0.2064  0.4049  0.2689
  953TIP3    H124274   6.646   0.971  10.128 -0.5188  1.4207  1.0403
  953TIP3    H224275   6.591   1.053  10.013  0.2255  0.0654 -0.3190
  954TIP3   OH224276   0.109   1.216  12.844  0.1078 -0.1844 -0.1688
  954TIP3    H124277   0.151   1.148  12.791 -0.9478  0.4527 -1.8778
  954TIP3    H224278   0.182   1.261  12.887  1.0390 -0.4784 -1.3932
  955TIP3   OH224279   1.016   2.862   1.196 -0.1735 -0.1671 -0.4573
  955TIP3    H124280   0.924   2.836   1.187 -0.0312 -0.8571 -0.0024
  955TIP3    H224281   1.014   2.957   1.201 -0.9116 -0.2061  0.1031
  956TIP3   OH224282   2.294   3.677  16.387  0.2373 -0.0072 -0.4861
  956TIP3    H124283   2.381   3.651  16.416  0.4063  1.5403  0.5416
  956TIP3    H224284   2.300   3.772  16.376 -1.3419  0.1518 -0.2720
  957TIP3   OH224285   0.195   4.680   2.292  0.2158 -0.1103  0.0714
  957TIP3    H124286   0.163   4.707   2.207  0.4299  2.6419  0.7757
  957TIP3    H224287   0.139   4.606   2.317 -0.8332  0.0192 -1.7581
  958TIP3   OH224288   6.590   3.265  14.990 -0.2281  0.5413 -0.7215
  958TIP3    H124289   6.518   3.238  15.047 -0.1453  0.7073 -0.5386
  958TIP3    H224290   6.547   3.289  14.908 -0.2304 -0.8739 -1.1534
  959TIP3   OH224291   6.423   0.031  12.926  0.1914  0.2670  0.5374
  959TIP3    H124292   6.514   0.049  12.906  0.1616  0.4874  0.6022
  959TIP3    H224293   6.383   0.117  12.938 -0.1640  0.2046 -0.1064
  960TIP3   OH224294   3.140   2.817   0.896  0.3138 -0.4020  0.2789
  960TIP3    H124295   3.155   2.726   0.870  0.2469 -0.3488  0.0505
  960TIP3    H224296   3.061   2.814   0.950 -1.4194 -0.1141 -2.0705
  961TIP3   OH224297   6.335   2.970  11.168  0.2254 -0.1499  0.3336
  961TIP3    H124298   6.305   3.058  11.144 -0.7992 -0.2654  1.1135
  961TIP3    H224299   6.256   2.925  11.198  0.5993 -1.5836 -0.7156
  962TIP3   OH224300   6.336   6.402   6.415 -0.3006  0.3918 -0.5546
  962TIP3    H124301   6.397   6.367   6.349 -0.4861  0.0776 -0.5591
  962TIP3    H224302   6.291   6.325   6.449  2.3400  0.0179  2.5880
  963TIP3   OH224303   3.217   2.856  14.804  0.1600  0.4616 -0.2720
  963TIP3    H124304   3.286   2.832  14.741 -1.5116 -1.5418 -1.4904
  963TIP3    H224305   3.203   2.949  14.790 -0.3680  0.0414 -3.1999
  964TIP3   OH224306   5.708   1.159  15.485 -0.4028 -0.5823  0.1755
  964TIP3    H124307   5.782   1.193  15.435 -1.8832  2.3567 -0.2253
  964TIP3    H224308   5.666   1.096  15.427  0.0169  0.0625 -0.8478
  965TIP3   OH224309   3.676   4.761   6.119  0.1717  0.6099  0.1875
  965TIP3    H124310   3.662   4.768   6.025  2.3817 -3.4763 -0.6895
  965TIP3    H224311   3.598   4.717   6.152 -0.1612  1.1114  0.0631
  966TIP3   OH224312   4.819   5.530   4.351  0.3618  0.1502  0.0682
  966TIP3    H124313   4.828   5.522   4.256  1.4662 -1.7403  0.2910
  966TIP3    H224314   4.890   5.588   4.377 -1.4519  2.8002 -0.4569
  967TIP3   OH224315   3.890   3.768   1.108 -0.0308  0.0147 -0.0847
  967TIP3    H124316   3.803   3.743   1.139  0.4120 -2.5681 -0.7153
  967TIP3    H224317   3.947   3.756   1.184  0.0305  0.2331 -0.0935
  968TIP3   OH224318   0.265   2.433   2.716  0.2770  0.6255  0.4543
  968TIP3    H124319   0.288   2.411   2.806  0.0580  2.4961  1.0158
  968TIP3    H224320   0.170   2.422   2.712  0.1523  1.5059  0.7681
  969TIP3   OH224321   0.215   1.505  14.556 -0.4976 -0.2775  0.1621
  969TIP3    H124322   0.132   1.538  14.522  0.5527 -0.5570 -2.9191
  969TIP3    H224323   0.282   1.556  14.511  1.0500 -1.4078  1.0680
  970TIP3   OH224324   3.426   3.501  14.654 -0.7225  0.0167 -0.4461
  970TIP3    H124325   3.332   3.521  14.644 -0.6879  1.5931  1.8131
  970TIP3    H224326   3.470   3.574  14.610 -0.5708  0.5867  0.6419
  971TIP3   OH224327   5.368   3.101   1.903 -0.1570 -0.2148  0.2204
  971TIP3    H124328   5.411   3.017   1.892  1.6835  0.8831 -1.4506
  971TIP3    H224329   5.307   3.107   1.829  0.5416  0.3922 -0.3104
  972TIP3   OH224330   4.415   5.615  15.329 -0.0353 -0.1368 -0.1259
  972TIP3    H124331   4.351   5.653  15.270  2.1557  0.5815 -2.2014
  972TIP3    H224332   4.432   5.528  15.294 -0.3545 -0.5845  0.8068
  973TIP3   OH224333   3.543   0.297   5.286  0.0298  0.0420  0.2876
  973TIP3    H124334   3.623   0.349   5.295  0.0224  0.3465 -1.1259
  973TIP3    H224335   3.517   0.309   5.195 -0.6078 -1.5515  0.2276
  974TIP3   OH224336   4.517   5.901  15.476 -0.4171 -0.3679  0.1673
  974TIP3    H124337   4.603   5.858  15.470  0.4081  1.3038 -1.2503
  974TIP3    H224338   4.485   5.901  15.386 -1.3744  0.0588  0.5011
  975TIP3   OH224339   5.174   6.696  15.806 -0.0940 -0.1149 -0.0157
  975TIP3    H124340   5.126   6.674  15.727  0.1396 -0.6659 -0.0073
  975TIP3    H224341   5.134   6.778  15.836 -1.4158 -0.8595  0.3273
  976TIP3   OH224342   5.598   2.580   1.315 -0.2689 -1.1264  0.2615
  976TIP3    H124343   5.672   2.587   1.376 -0.9118  1.0702  0.8563
  976TIP3    H224344   5.524   2.554   1.370 -0.4684 -0.9016  0.1010
  977TIP3   OH224345   6.048   5.245  15.135  0.1594  0.7385 -0.0875
  977TIP3    H124346   6.069   5.154  15.158 -1.3345  0.0509 -1.3028
  977TIP3    H224347   6.058   5.293  15.218 -0.3723 -0.7776  0.9005
  978TIP3   OH224348   6.273   5.868   4.997 -0.0581  0.1468 -0.4050
  978TIP3    H124349   6.350   5.868   4.941  0.2489 -1.0096 -0.0204
  978TIP3    H224350   6.252   5.775   5.009 -1.0649  0.4161  0.1065
  979TIP3   OH224351   2.029   1.592   1.429 -0.2946 -0.1739  0.1874
  979TIP3    H124352   1.971   1.535   1.480 -1.3792  0.8576  0.1567
  979TIP3    H224353   2.031   1.674   1.477  1.3625 -0.2501  0.3005
  980TIP3   OH224354   1.371   4.815   2.745  0.6297 -0.0266 -0.1689
  980TIP3    H124355   1.386   4.866   2.825  1.1863 -0.7603  0.2103
  980TIP3    H224356   1.279   4.787   2.752  0.2559  1.0708 -0.4821
  981TIP3   OH224357   5.887   3.295  14.205  0.2959 -0.2084 -0.4148
  981TIP3    H124358   5.813   3.238  14.188  1.3232 -1.0994 -2.1636
  981TIP3    H224359   5.960   3.236  14.224  1.1026  0.5346 -1.0921
  982TIP3   OH224360   6.572   6.394  15.053 -0.2572 -0.5307  0.4271
  982TIP3    H124361   6.479   6.406  15.033  0.0824  0.8388 -0.4839
  982TIP3    H224362   6.609   6.482  15.046  0.8598 -0.8232  2.2032
  983TIP3   OH224363   0.896   4.047   2.005  0.4204  0.2412  0.2956
  983TIP3    H124364   0.809   4.028   1.967 -0.1408  1.4747  0.9082
  983TIP3    H224365   0.951   3.976   1.974 -0.3872  0.3641 -1.5944
  984TIP3   OH224366   2.228   6.661   5.008 -0.2607 -0.4007 -0.5941
  984TIP3    H124367   2.169   6.665   5.083  0.0378 -0.6805 -0.3414
  984TIP3    H224368   2.255   6.752   4.993  4.2247 -0.7010  3.2765
  985TIP3   OH224369   5.939   4.929  15.695  0.9816 -0.0645  0.0265
  985TIP3    H124370   5.953   5.013  15.739  0.5103  0.1603 -0.2552
  985TIP3    H224371   5.921   4.868  15.767  0.0805  0.3281  0.1484
  986TIP3   OH224372   2.671   0.666   5.712  0.0220 -0.7819  0.3208
  986TIP3    H124373   2.625   0.638   5.791  0.0315  0.8109  0.9250
  986TIP3    H224374   2.755   0.700   5.744  0.7152 -1.5955 -0.5523
  987TIP3   OH224375   2.866   0.936  14.990  0.0932 -0.1723  0.0814
  987TIP3    H124376   2.866   0.898  14.902 -0.4250 -0.6961  0.3021
  987TIP3    H224377   2.879   1.030  14.976  0.7869 -0.3440 -0.5080
  988TIP3   OH224378   5.707   6.435  14.081  0.3740  0.5943 -0.3568
  988TIP3    H124379   5.621   6.452  14.120 -0.1753  0.9528 -1.6862
  988TIP3    H224380   5.709   6.340  14.067  0.6404  0.4392  0.6569
  989TIP3   OH224381   2.509   3.071  14.927 -0.4898  0.1701 -0.0338
  989TIP3    H124382   2.571   3.088  14.857 -0.1662 -0.2317  0.1523
  989TIP3    H224383   2.448   3.145  14.924 -1.9533 -1.0115 -2.2994
  990TIP3   OH224384   3.085   4.798   6.549  0.2304  0.1896  0.2407
  990TIP3    H124385   3.093   4.773   6.641  0.3279  0.7410  0.3837
  990TIP3    H224386   3.056   4.718   6.505  1.2737 -0.3855  0.5634
  991TIP3   OH224387   1.499   6.343   5.470  0.1646  0.0111 -0.1705
  991TIP3    H124388   1.469   6.333   5.561 -2.7777 -1.2390 -1.1747
  991TIP3    H224389   1.460   6.425   5.441 -0.9165 -0.7618 -0.9721
  992TIP3   OH224390   6.720   5.039   1.859 -0.2229  0.3727  0.1563
  992TIP3    H124391   6.748   5.087   1.937 -0.5357  0.9669 -0.0921
  992TIP3    H224392   6.650   4.982   1.890  0.6666 -0.5072  0.6096
  993TIP3   OH224393   2.174   5.810   0.340  0.4258 -0.2199  0.4003
  993TIP3    H124394   2.195   5.826   0.432  1.3821  1.0519 -0.0144
  993TIP3    H224395   2.213   5.724   0.322 -0.3788 -0.8088  1.3458
  994TIP3   OH224396   1.030   5.174  14.626  0.1688 -0.2366 -0.2517
  994TIP3    H124397   0.936   5.154  14.627 -0.0799  0.8772  0.6500
  994TIP3    H224398   1.046   5.205  14.537 -0.6703  1.0182  0.0075
  995TIP3   OH224399   3.135   2.863   0.272  0.0754  0.2816  0.0614
  995TIP3    H124400   3.203   2.800   0.248 -0.6475 -0.3440 -0.3871
  995TIP3    H224401   3.056   2.829   0.231  0.0280  2.5057 -1.9482
  996TIP3   OH224402   4.379   0.067   3.830 -0.3072  0.5696 -0.0806
  996TIP3    H124403   4.455   0.099   3.878  1.4440 -0.1539 -2.2081
  996TIP3    H224404   4.314   0.047   3.898  0.9719  2.2156  1.7226
  997TIP3   OH224405   0.144   4.680  15.383  0.4580 -0.3592  0.3468
  997TIP3    H124406   0.233   4.696  15.415  0.1108  0.1680  1.1037
  997TIP3    H224407   0.088   4.703  15.458 -0.2849 -1.2663  0.0882
  998TIP3   OH224408   0.644   1.930   4.262 -0.1290 -0.0584 -0.0344
  998TIP3    H124409   0.733   1.963   4.255  0.1040 -0.8424 -1.1658
  998TIP3    H224410   0.591   1.993   4.213  0.3360 -1.3261 -2.3240
  999TIP3   OH224411   3.289   3.080   0.109  0.1027  0.3779 -0.7401
  999TIP3    H124412   3.238   3.156   0.140 -0.3246 -0.3641  0.4630
  999TIP3    H224413   3.242   3.004   0.145  0.8975 -0.4283 -1.3705
 1000TIP3   OH224414   2.111   2.876   4.919 -0.2374 -0.7639 -0.5547
 1000TIP3    H124415   2.120   2.783   4.897  0.6362 -1.1042  1.0783
 1000TIP3    H224416   2.194   2.915   4.891  0.3922 -0.9768  0.8911
 1001TIP3   OH224417   3.092   0.664   4.336 -0.0660 -0.2259 -0.0977
 1001TIP3    H124418   3.083   0.745   4.286  2.0391 -0.5702 -1.1705
 1001TIP3    H224419   3.114   0.693   4.424  1.9312  0.4303 -0.7587
 1002TIP3   OH224420   5.136   4.880   0.377  0.0904 -0.4211  0.3930
 1002TIP3    H124421   5.210   4.873   0.438 -0.4758 -1.1966  1.0171
 1002TIP3    H224422   5.173   4.858   0.292  1.3722  2.6977  0.0174
 1003TIP3   OH224423   4.552   1.242  13.884  0.3873  0.3346 -0.3783
 1003TIP3    H124424   4.562   1.337  13.872 -0.5100  0.3533 -1.1088
 1003TIP3    H224425   4.485   1.217  13.820  2.0838 -1.1469 -1.6786
 1004TIP3   OH224426   2.695   4.819  11.118  0.1126 -0.0982  0.0899
 1004TIP3    H124427   2.667   4.907  11.143  0.1527 -0.2710  0.7776
 1004TIP3    H224428   2.790   4.826  11.105 -0.0292  0.1749 -0.8370
 1005TIP3   OH224429   0.981   1.886   2.603  0.1512 -0.0519 -0.3896
 1005TIP3    H124430   0.991   1.802   2.558 -0.1106 -0.5426  0.4534
 1005TIP3    H224431   0.959   1.863   2.693  1.0813  0.9107  0.1010
 1006TIP3   OH224432   6.608   1.768  15.759  0.3776  0.5834  0.3812
 1006TIP3    H124433   6.601   1.673  15.744 -1.4186  0.6709  0.5018
 1006TIP3    H224434   6.701   1.782  15.774  0.4907 -1.4333  2.0619
 1007TIP3   OH224435   1.201   1.864   0.319  0.0182  0.0471  0.0709
 1007TIP3    H124436   1.151   1.943   0.337 -0.3632  0.3363 -2.0189
 1007TIP3    H224437   1.291   1.896   0.308  0.4102 -0.2351  1.9764
 1008TIP3   OH224438   6.346   4.681  11.147  0.8415  0.1734  0.6621
 1008TIP3    H124439   6.266   4.729  11.130 -1.6312 -3.2337  1.4546
 1008TIP3    H224440   6.361   4.692  11.241  1.3155  0.7793  0.5209
 1009TIP3   OH224441   4.424   3.919  15.213  0.1895  0.2576  0.3099
 1009TIP3    H124442   4.507   3.934  15.168  0.0586 -1.4448 -0.5841
 1009TIP3    H224443   4.358   3.936  15.146 -0.0751 -0.7302  0.3159
 1010TIP3   OH224444   0.269   2.790   5.827  0.2118 -0.1498 -0.1895
 1010TIP3    H124445   0.331   2.835   5.770 -0.1872  0.2581 -0.3103
 1010TIP3    H224446   0.251   2.853   5.897 -0.9097  0.1809 -0.7478
 1011TIP3   OH224447   6.386   2.880   4.148 -0.4562  0.1312  0.2706
 1011TIP3    H124448   6.296   2.888   4.179 -0.6772 -0.6445 -0.1382
 1011TIP3    H224449   6.387   2.928   4.065 -0.7142 -0.5504 -0.1348
 1012TIP3   OH224450   0.879   1.082  11.790  0.4700 -0.0526  0.5699
 1012TIP3    H124451   0.830   1.012  11.747  0.3409  0.5490 -0.2907
 1012TIP3    H224452   0.969   1.071  11.757 -0.1381  2.0864 -2.1578
 1013TIP3   OH224453   3.849   1.501   0.983  0.3207  0.2357  0.3371
 1013TIP3    H124454   3.792   1.436   1.023 -0.3355  0.5487 -0.0727
 1013TIP3    H224455   3.844   1.483   0.890  2.5536 -1.0699  0.4102
 1014TIP3   OH224456   6.039   0.881  11.105  0.7328 -0.3214  0.4243
 1014TIP3    H124457   5.994   0.863  11.023  0.4002 -2.2723  0.9783
 1014TIP3    H224458   6.132   0.873  11.084  0.7211  0.5914 -0.0370
 1015TIP3   OH224459   4.802   4.438  14.097 -0.1587 -0.5258  0.2159
 1015TIP3    H124460   4.814   4.360  14.043 -0.9238 -0.3241 -0.2523
 1015TIP3    H224461   4.707   4.447  14.106 -0.1449  1.2205 -1.0056
 1016TIP3   OH224462   6.572   5.271   1.105 -0.3096 -0.7513  0.0624
 1016TIP3    H124463   6.580   5.323   1.025 -0.0880  0.0072  0.5598
 1016TIP3    H224464   6.610   5.186   1.083  1.9948  0.1967  0.0293
 1017TIP3   OH224465   0.724   5.058   4.300 -0.3834  0.4306  0.3564
 1017TIP3    H124466   0.762   5.136   4.260  1.9804 -1.6287 -1.7938
 1017TIP3    H224467   0.650   5.037   4.243 -0.4124  0.5468  0.3504
 1018TIP3   OH224468   4.061   3.498   0.275  0.5984 -0.0681  0.1640
 1018TIP3    H124469   3.992   3.478   0.338  2.8928 -1.9068  2.2395
 1018TIP3    H224470   4.058   3.425   0.212  0.8483 -0.3103  0.4326
 1019TIP3   OH224471   4.285   5.769  15.925 -0.0122  0.3240  0.1473
 1019TIP3    H124472   4.191   5.765  15.940 -0.0649  0.2474 -0.1960
 1019TIP3    H224473   4.294   5.808  15.837  0.2619 -0.0371  0.0132
 1020TIP3   OH224474   2.728   4.806  16.507 -0.1320 -0.3697 -0.7219
 1020TIP3    H124475   2.758   4.716  16.495 -0.0271 -0.0987 -2.7382
 1020TIP3    H224476   2.637   4.805  16.479 -0.0726  0.2028 -0.9429
 1021TIP3   OH224477   1.333   1.796   1.026 -0.2869 -0.5726 -0.3896
 1021TIP3    H124478   1.427   1.785   1.038 -0.6518 -2.2577  1.4657
 1021TIP3    H224479   1.312   1.878   1.069  0.3002 -0.2853 -0.6475
 1022TIP3   OH224480   4.671   5.974   3.682 -0.1402 -0.1130  0.6099
 1022TIP3    H124481   4.656   6.018   3.598  0.2644 -1.4835 -0.2140
 1022TIP3    H224482   4.594   5.995   3.734 -0.2893  0.9619 -0.0133
 1023TIP3   OH224483   4.036   6.216  14.385  0.1617 -0.2665 -0.3875
 1023TIP3    H124484   4.001   6.133  14.352 -0.2979 -0.7508  1.2024
 1023TIP3    H224485   4.021   6.212  14.480  0.7234  1.3604 -0.1954
 1024TIP3   OH224486   1.945   6.222  16.573  0.3037 -0.3181  0.2393
 1024TIP3    H124487   1.961   6.187  16.486 -0.2101  0.0859 -0.0246
 1024TIP3    H224488   1.995   6.304  16.575 -0.6415  0.2892 -0.1222
 1025TIP3   OH224489   5.842   1.591   4.340 -0.6380  0.4723 -0.0001
 1025TIP3    H124490   5.829   1.552   4.426  0.2414  1.8315  0.7754
 1025TIP3    H224491   5.911   1.538   4.299  0.2066  0.8836  0.8515
 1026TIP3   OH224492   1.901   3.092  15.360 -0.3977  0.2148 -0.0517
 1026TIP3    H124493   1.834   3.071  15.426 -1.2447  1.8611 -0.3256
 1026TIP3    H224494   1.976   3.039  15.385 -1.3011 -0.5637  1.1701
 1027TIP3   OH224495   5.708   3.772  15.252 -0.2871  0.1526 -0.4485
 1027TIP3    H124496   5.701   3.854  15.203 -1.0004  0.0296 -0.5567
 1027TIP3    H224497   5.730   3.799  15.341  0.1811  0.4214 -0.6431
 1028TIP3   OH224498   0.219   4.040  13.963  0.0753  0.7870  0.6711
 1028TIP3    H124499   0.313   4.055  13.962  0.5140 -1.3090  2.3391
 1028TIP3    H224500   0.209   3.953  14.002 -2.5126  0.5103 -0.3751
 1029TIP3   OH224501   1.784   4.550   2.734  0.3237  0.1201 -0.0352
 1029TIP3    H124502   1.866   4.586   2.698  0.7459 -1.1050 -0.3411
 1029TIP3    H224503   1.715   4.600   2.690  0.8812  1.5996  0.6810
 1030TIP3   OH224504   2.474   5.566  12.225  0.0035 -0.2518  0.3325
 1030TIP3    H124505   2.437   5.478  12.232 -0.3596 -0.3715 -2.2008
 1030TIP3    H224506   2.418   5.620  12.280 -2.5291 -0.8871 -1.4525
 1031TIP3   OH224507   6.639   1.784  16.282 -0.4529  0.8686 -0.6247
 1031TIP3    H124508   6.669   1.693  16.273 -0.1187  0.8935  0.1881
 1031TIP3    H224509   6.596   1.803  16.198 -0.2904  0.0517 -0.9040
 1032TIP3   OH224510   6.575   3.662   0.719 -0.2757  0.0348  0.2649
 1032TIP3    H124511   6.585   3.752   0.689 -0.5172  0.8196  2.4137
 1032TIP3    H224512   6.529   3.669   0.802 -2.3218 -2.2374 -0.5469
 1033TIP3   OH224513   4.819   6.740   1.395 -0.0351 -0.1516  0.2484
 1033TIP3    H124514   4.834   6.780   1.310  1.4488 -0.4920  0.3239
 1033TIP3    H224515   4.755   6.797   1.437 -1.0975 -0.2042 -1.2363
 1034TIP3   OH224516   0.784   4.008   0.045  0.4281 -0.6118 -0.1767
 1034TIP3    H124517   0.734   4.022   0.125  0.0476 -1.9500 -0.1537
 1034TIP3    H224518   0.860   4.067   0.054 -0.7085  0.8700  0.1365
 1035TIP3   OH224519   1.814   0.880  16.385 -0.5043 -0.0709  0.4479
 1035TIP3    H124520   1.908   0.900  16.390 -0.3097 -0.9903  0.5991
 1035TIP3    H224521   1.793   0.842  16.470 -1.1854  0.7784  0.6749
 1036TIP3   OH224522   1.401   6.208  16.902 -0.5873 -0.0324  0.1201
 1036TIP3    H124523   1.456   6.133  16.925  0.8451  1.4008  1.5899
 1036TIP3    H224524   1.446   6.250  16.830 -0.8482 -0.0095 -0.0291
 1037TIP3   OH224525   1.721   2.535   0.882 -0.5037 -0.4629  0.1225
 1037TIP3    H124526   1.633   2.572   0.884  0.1499  1.1724  0.5335
 1037TIP3    H224527   1.753   2.553   0.793  0.6021  2.0744  0.9273
 1038TIP3   OH224528   2.223   3.453   1.774 -0.4821 -0.2494  0.3076
 1038TIP3    H124529   2.158   3.455   1.844 -1.0332  0.4888 -0.2125
 1038TIP3    H224530   2.230   3.360   1.751  1.1042 -0.7881  2.5826
 1039TIP3   OH224531   6.764   3.917   2.415 -0.3259  0.1287 -0.7144
 1039TIP3    H124532   6.680   3.923   2.460  0.5769 -0.2417  1.0842
 1039TIP3    H224533   6.830   3.930   2.483  1.1742 -3.1955 -1.3298
 1040TIP3   OH224534   1.720   3.363  14.851 -0.1658  0.2185 -0.1415
 1040TIP3    H124535   1.675   3.302  14.792  0.4496  1.4832 -2.0042
 1040TIP3    H224536   1.674   3.446  14.840  0.8798  0.8371  0.0204
 1041TIP3   OH224537   3.754   3.513   5.768  0.2550  0.1501 -0.5247
 1041TIP3    H124538   3.666   3.525   5.805  1.0117 -2.3291  2.4862
 1041TIP3    H224539   3.742   3.526   5.674 -2.8983  1.8293 -0.0238
 1042TIP3   OH224540   0.606   1.750  17.065 -0.4172  0.0218 -0.0582
 1042TIP3    H124541   0.695   1.740  17.099  0.1312  1.3065 -1.0138
 1042TIP3    H224542   0.585   1.665  17.028 -0.2057 -0.7648  1.5432
 1043TIP3   OH224543   0.727   3.331  14.999 -0.2324  0.4830 -0.1955
 1043TIP3    H124544   0.746   3.421  14.970  0.7590  0.3622  0.0319
 1043TIP3    H224545   0.641   3.312  14.962 -1.3863  2.2208  1.3853
 1044TIP3   OH224546   4.233   2.047  12.309  0.1866 -0.7143 -0.2421
 1044TIP3    H124547   4.267   2.129  12.274 -0.5984  0.4048  1.4762
 1044TIP3    H224548   4.209   1.995  12.232 -1.3702  1.5460 -1.3765
 1045TIP3   OH224549   1.106   4.597   1.550 -0.6090 -0.1512  0.0466
 1045TIP3    H124550   1.197   4.622   1.530 -0.7281  1.0349  0.8493
 1045TIP3    H224551   1.113   4.543   1.629 -0.5028 -1.2180 -0.6740
 1046TIP3   OH224552   0.161   6.571   6.312 -0.1445 -0.2884  0.5714
 1046TIP3    H124553   0.134   6.623   6.388 -0.0766 -2.2701  2.0308
 1046TIP3    H224554   0.110   6.607   6.240 -0.4874  1.4392  1.6155
 1047TIP3   OH224555   6.229   0.533  13.291  0.0737  0.5385 -0.1308
 1047TIP3    H124556   6.187   0.619  13.279 -2.2119 -0.2301  1.5894
 1047TIP3    H224557   6.298   0.549  13.355 -0.9802  0.9731  0.9373
 1048TIP3   OH224558   5.867   4.868   3.772 -0.4390 -0.0572  0.1975
 1048TIP3    H124559   5.845   4.921   3.696 -1.4491  0.0963  0.5747
 1048TIP3    H224560   5.958   4.843   3.759 -0.3743  0.5926 -0.6843
 1049TIP3   OH224561   1.666   0.853   0.266 -0.0931  0.4960  0.1203
 1049TIP3    H124562   1.703   0.908   0.335 -2.6439  0.7621  1.3666
 1049TIP3    H224563   1.594   0.806   0.308 -2.0097  0.9632 -2.4242
 1050TIP3   OH224564   6.000   6.300  12.884 -0.2293  0.1110 -0.6008
 1050TIP3    H124565   5.966   6.380  12.844  1.6452  0.8569 -0.8026
 1050TIP3    H224566   5.995   6.316  12.978  1.9463  1.3380 -0.6353
 1051TIP3   OH224567   3.125   3.057   1.882 -0.0207  0.5226  0.6423
 1051TIP3    H124568   3.192   3.058   1.814 -0.6945 -0.4729 -0.0720
 1051TIP3    H224569   3.071   3.134   1.863 -0.5866 -0.1019 -0.3760
 1052TIP3   OH224570   4.687   5.337  15.466 -0.1663  0.2376  0.2035
 1052TIP3    H124571   4.751   5.273  15.497 -0.5091  0.2873  1.0477
 1052TIP3    H224572   4.605   5.288  15.459  0.3515 -0.3968 -3.0286
 1053TIP3   OH224573   4.178   5.384   4.290  0.1528  0.1241 -0.0346
 1053TIP3    H124574   4.229   5.309   4.320  1.4094  1.4281  1.2630
 1053TIP3    H224575   4.105   5.346   4.242  1.3243 -1.8857 -0.3416
 1054TIP3   OH224576   3.948   1.568  16.650  0.1202 -0.2762  0.1869
 1054TIP3    H124577   3.952   1.601  16.561  0.8640 -1.7770 -0.3730
 1054TIP3    H224578   3.908   1.481  16.641 -5.0093  1.4958  1.9386
 1055TIP3   OH224579   2.600   0.485   2.713 -0.6405 -0.2566  0.1594
 1055TIP3    H124580   2.635   0.492   2.802 -2.2835  1.1976  0.7670
 1055TIP3    H224581   2.512   0.523   2.719 -0.7632 -0.0281 -2.1296
 1056TIP3   OH224582   3.935   5.662   0.538  0.1184  0.4187 -0.0794
 1056TIP3    H124583   3.959   5.577   0.501  0.7688  0.2454  0.7164
 1056TIP3    H224584   3.864   5.642   0.599 -0.2680  0.5679 -0.4699
 1057TIP3   OH224585   2.171   0.215  16.051  0.4472  0.4114 -0.6659
 1057TIP3    H124586   2.238   0.211  16.120  0.4701  0.3425 -0.6922
 1057TIP3    H224587   2.155   0.123  16.030 -1.3372  0.2847  0.9800
 1058TIP3   OH224588   5.963   0.885   2.483  0.1913 -0.2069 -0.3871
 1058TIP3    H124589   5.983   0.936   2.561  1.7609  0.1958 -1.0228
 1058TIP3    H224590   5.874   0.852   2.498  0.4071 -0.0380  1.5023
 1059TIP3   OH224591   2.933   2.769  11.001  0.4341  0.6430 -0.4116
 1059TIP3    H124592   2.974   2.714  10.934 -2.2326 -0.4285 -1.2886
 1059TIP3    H224593   2.901   2.845  10.953  0.2947  0.8723  0.0413
 1060TIP3   OH224594   5.339   5.110  17.245  0.6363 -0.3670 -0.2947
 1060TIP3    H124595   5.250   5.090  17.273 -0.0561  1.2003 -1.1913
 1060TIP3    H224596   5.366   5.034  17.193 -0.6890 -0.3414 -1.0858
 1061TIP3   OH224597   1.517   5.208   0.388  0.2830 -0.2284  0.1579
 1061TIP3    H124598   1.461   5.245   0.456  0.5335  0.3340  0.0620
 1061TIP3    H224599   1.468   5.132   0.355  0.1818 -0.5289  0.9881
 1062TIP3   OH224600   4.488   6.527  16.923 -0.4004 -0.4160 -0.0869
 1062TIP3    H124601   4.504   6.433  16.911 -0.9832 -0.7375  1.4222
 1062TIP3    H224602   4.416   6.547  16.864 -0.1245 -0.8700 -0.5817
 1063TIP3   OH224603   4.953   5.802   5.770  0.3030  0.0655  0.5375
 1063TIP3    H124604   4.900   5.753   5.833 -0.2522 -0.2299 -0.1483
 1063TIP3    H224605   4.912   5.784   5.685  1.6859 -0.4454 -0.0569
 1064TIP3   OH224606   3.607   1.937   0.214 -0.1418  0.9341 -0.8105
 1064TIP3    H124607   3.657   1.871   0.166  0.0961  1.4979 -1.3474
 1064TIP3    H224608   3.599   2.010   0.154  1.3145  2.2023  0.4424
 1065TIP3   OH224609   1.130   4.463  10.909 -0.2242 -0.0529  0.1128
 1065TIP3    H124610   1.153   4.495  10.996  1.0314 -0.1672 -0.1493
 1065TIP3    H224611   1.156   4.371  10.910 -3.4300 -1.0733  0.7302
 1066TIP3   OH224612   2.561   5.096   2.072  0.2768  0.0314  0.7787
 1066TIP3    H124613   2.643   5.077   2.117  0.0936 -0.6299  0.8497
 1066TIP3    H224614   2.562   5.191   2.058  1.4715 -0.0776 -0.0425
 1067TIP3   OH224615   4.107   3.279  16.901 -0.6297 -0.1513  0.2974
 1067TIP3    H124616   4.082   3.212  16.964 -0.9459  0.1807  0.5249
 1067TIP3    H224617   4.068   3.360  16.934 -0.9552 -0.0077 -0.4151
 1068TIP3   OH224618   6.644   2.780  12.497  0.7790 -0.7155 -0.5356
 1068TIP3    H124619   6.702   2.813  12.565  1.2316 -1.1279 -0.7133
 1068TIP3    H224620   6.700   2.725  12.442  0.0394 -1.8729 -0.1892
 1069TIP3   OH224621   4.295   1.137  11.683  0.1840 -0.4006 -0.6748
 1069TIP3    H124622   4.367   1.074  11.686 -0.5335 -1.2880 -1.4064
 1069TIP3    H224623   4.218   1.088  11.712 -0.3392  0.2111 -0.9897
 1070TIP3   OH224624   0.692   4.292   4.502  0.1872 -0.1576 -0.2844
 1070TIP3    H124625   0.702   4.376   4.545  1.3588  0.7738 -2.2433
 1070TIP3    H224626   0.777   4.275   4.461 -0.4888 -1.5406 -1.2117
 1071TIP3   OH224627   2.186   0.951   0.846  0.1895  0.3703  0.6156
 1071TIP3    H124628   2.186   1.043   0.818 -3.1752  0.5117  0.6117
 1071TIP3    H224629   2.277   0.923   0.838  1.1133  3.3283 -0.6043
 1072TIP3   OH224630   4.005   5.705  11.478 -0.2722  0.1549 -0.8183
 1072TIP3    H124631   3.955   5.764  11.535 -1.5567  0.4940 -2.2393
 1072TIP3    H224632   3.948   5.631  11.463  0.5968 -0.5804 -0.5922
 1073TIP3   OH224633   2.317   3.096   4.032 -0.7738 -0.0511 -0.2532
 1073TIP3    H124634   2.331   3.028   3.966 -1.5067 -0.9975  0.5323
 1073TIP3    H224635   2.235   3.137   4.007 -1.2663 -0.6869  0.2733
 1074TIP3   OH224636   6.326   2.897   0.006  0.4402  0.2146 -0.5828
 1074TIP3    H124637   6.267   2.839  -0.041 -0.3601 -1.0825  1.8183
 1074TIP3    H224638   6.414   2.866  -0.016  0.0464 -1.3512 -0.0900
 1075TIP3   OH224639   4.729   4.741  13.701  0.3159 -0.3357 -0.1775
 1075TIP3    H124640   4.635   4.729  13.687  0.1405  1.2844 -0.5719
 1075TIP3    H224641   4.735   4.810  13.767  1.2003  1.4600 -2.0311
 1076TIP3   OH224642   4.066   2.789   2.914 -0.0428 -0.0036  0.1999
 1076TIP3    H124643   4.105   2.704   2.894  0.0036 -0.2154  1.1735
 1076TIP3    H224644   3.989   2.769   2.966  2.2025  0.6212  4.2014
 1077TIP3   OH224645   1.386   1.644  14.377  0.0063 -0.7202  0.3908
 1077TIP3    H124646   1.292   1.640  14.357  0.3438 -2.2185 -1.0859
 1077TIP3    H224647   1.398   1.581  14.448 -0.0243 -0.8432  0.2856
 1078TIP3   OH224648   6.272   4.092  11.044  0.5475  0.3553  0.8748
 1078TIP3    H124649   6.231   4.118  10.961  0.6873 -0.0183  0.6868
 1078TIP3    H224650   6.233   4.007  11.064  0.9571  0.1704  0.8853
 1079TIP3   OH224651   1.839   0.844  13.663  0.0401 -0.1868  0.0276
 1079TIP3    H124652   1.866   0.846  13.755 -0.4019 -1.2849  0.2009
 1079TIP3    H224653   1.859   0.755  13.634  2.3866  0.7642 -1.6499
 1080TIP3   OH224654   4.847   0.717  13.780 -0.1643  0.1997 -0.2246
 1080TIP3    H124655   4.881   0.765  13.705 -0.1369  0.4273 -0.0681
 1080TIP3    H224656   4.771   0.768  13.809 -2.5262 -1.8522 -2.3951
 1081TIP3   OH224657   1.923   2.417   4.856 -1.0395  0.5348  0.2400
 1081TIP3    H124658   1.932   2.349   4.922 -1.5665 -0.2615 -0.4865
 1081TIP3    H224659   1.952   2.376   4.775 -2.3020  0.8295 -0.3945
 1082TIP3   OH224660   1.175   2.920  11.232  0.0786 -0.1587  0.6259
 1082TIP3    H124661   1.206   3.001  11.273 -0.4985  0.3891  0.0145
 1082TIP3    H224662   1.194   2.932  11.139  0.1203 -0.7926  0.5516
 1083TIP3   OH224663   1.532   1.636   0.707  0.3079  0.2544 -0.1382
 1083TIP3    H124664   1.592   1.701   0.746 -0.1501  1.7163 -1.7422
 1083TIP3    H224665   1.540   1.651   0.613 -0.3385 -1.6082 -0.5140
 1084TIP3   OH224666   4.308   1.825  15.422  0.2686  0.0616 -0.1643
 1084TIP3    H124667   4.219   1.850  15.448  0.1306 -0.5474 -0.0166
 1084TIP3    H224668   4.295   1.748  15.367  0.7288 -0.3084  0.2380
 1085TIP3   OH224669   2.610   5.270   4.003 -0.4368 -0.2728 -0.2848
 1085TIP3    H124670   2.533   5.259   3.946  0.0358  0.3123 -1.0498
 1085TIP3    H224671   2.577   5.317   4.079 -0.7513  0.3592 -0.8069
 1086TIP3   OH224672   0.530   6.287  11.530  0.1132 -0.0362 -0.0159
 1086TIP3    H124673   0.540   6.379  11.503  1.6997 -0.4861 -1.1050
 1086TIP3    H224674   0.466   6.251  11.468  0.1543  0.1081 -0.1425
 1087TIP3   OH224675   6.432   5.427  13.847  0.0561  0.2772 -0.5980
 1087TIP3    H124676   6.415   5.379  13.928 -1.6293  0.9451 -0.5217
 1087TIP3    H224677   6.418   5.363  13.778 -2.1104  0.5556 -0.4945
 1088TIP3   OH224678   2.869   5.841  13.658  0.6902  0.2856  0.1404
 1088TIP3    H124679   2.854   5.839  13.564 -1.4467 -1.9013  0.4259
 1088TIP3    H224680   2.828   5.923  13.687 -1.7778 -0.6581 -0.4658
 1089TIP3   OH224681   4.598   1.925  15.808  0.3789  0.3327  0.4978
 1089TIP3    H124682   4.597   2.016  15.838 -0.9955  0.7383 -0.6771
 1089TIP3    H224683   4.648   1.927  15.727 -1.0356  0.3711 -0.4017
 1090TIP3   OH224684   5.503   2.724  17.205 -0.1643  0.1992  0.6728
 1090TIP3    H124685   5.488   2.769  17.288  1.9956 -1.1714  1.8908
 1090TIP3    H224686   5.597   2.733  17.189 -0.1650 -1.4037 -0.5221
 1091TIP3   OH224687   6.318   5.095   2.955  0.1606 -0.5742  0.4164
 1091TIP3    H124688   6.383   5.145   2.906  1.1781 -2.3930 -0.1814
 1091TIP3    H224689   6.317   5.136   3.041  1.2650  0.1999  0.0885
 1092TIP3   OH224690   4.036   4.877  13.434 -0.1168 -0.3268  0.2918
 1092TIP3    H124691   4.102   4.946  13.427  0.1140 -0.6734 -1.4360
 1092TIP3    H224692   3.967   4.916  13.487 -0.4695  1.6619 -1.4766
 1093TIP3   OH224693   0.472   1.060  14.621 -0.1669 -0.3054 -0.4377
 1093TIP3    H124694   0.475   1.093  14.531 -0.6513 -0.6956 -0.6046
 1093TIP3    H224695   0.469   0.965  14.611 -0.0403 -0.3576  0.0006
 1094TIP3   OH224696   5.136   6.187   4.404  0.6089  0.0793 -0.0025
 1094TIP3    H124697   5.206   6.217   4.462  0.8787 -1.4903  0.5442
 1094TIP3    H224698   5.175   6.112   4.358  0.6976  1.7208 -2.8576
 1095TIP3   OH224699   4.878   3.099   1.584  0.0272  0.9271  0.4875
 1095TIP3    H124700   4.811   3.035   1.608  0.5783 -0.5030 -1.5996
 1095TIP3    H224701   4.840   3.183   1.610 -0.9776 -0.1351  2.7102
 1096TIP3   OH224702   0.489   1.189  13.426  0.2536 -0.4543 -0.4197
 1096TIP3    H124703   0.495   1.136  13.506  2.8105  1.5509  0.8513
 1096TIP3    H224704   0.398   1.179  13.398 -0.2044 -2.8746  1.5344
 1097TIP3   OH224705   1.730   1.896  13.972 -0.8553  0.2463  0.0852
 1097TIP3    H124706   1.751   1.811  13.933  1.1472  0.2965  0.9122
 1097TIP3    H224707   1.748   1.959  13.903 -0.9165  0.0902 -0.0741
 1098TIP3   OH224708   3.810   5.984  16.097  0.3038 -0.1233 -0.1998
 1098TIP3    H124709   3.790   5.997  16.005  0.2646  0.4129 -0.1202
 1098TIP3    H224710   3.862   5.904  16.100  0.3079 -0.1385 -0.6854
 1099TIP3   OH224711   0.892   4.203  12.411  0.5452  0.3215  0.0821
 1099TIP3    H124712   0.941   4.194  12.493  0.3133 -0.2925  0.1667
 1099TIP3    H224713   0.917   4.288  12.377  0.6217  0.6032  0.8120
 1100TIP3   OH224714   3.361   2.759   3.809  0.3318 -0.2727  0.5716
 1100TIP3    H124715   3.367   2.851   3.783  0.9492 -0.0270  1.5427
 1100TIP3    H224716   3.292   2.756   3.875 -2.0282 -1.0826 -1.7258
 1101TIP3   OH224717   1.738   5.720  16.083 -0.0944  0.0387 -0.5098
 1101TIP3    H124718   1.657   5.682  16.117 -1.3988  3.4372  0.5779
 1101TIP3    H224719   1.807   5.683  16.139 -1.0171 -1.7675 -0.4874
 1102TIP3   OH224720   3.592   6.182   5.852  0.3808 -0.0111 -0.4497
 1102TIP3    H124721   3.560   6.232   5.777 -1.5626 -0.8883 -0.2622
 1102TIP3    H224722   3.560   6.093   5.837 -1.5003  0.1193  2.1591
 1103TIP3   OH224723   4.714   6.357  12.913 -0.2657  0.5399  0.0263
 1103TIP3    H124724   4.692   6.264  12.915 -1.0955  0.7220  2.8057
 1103TIP3    H224725   4.661   6.393  12.841  0.5180 -1.1767 -1.4863
 1104TIP3   OH224726   4.057   2.045  15.216  0.1734  0.4863 -0.2102
 1104TIP3    H124727   3.964   2.045  15.196  0.1558 -0.2047 -0.1738
 1104TIP3    H224728   4.085   1.955  15.197  0.3735  0.0714  1.8256
 1105TIP3   OH224729   5.670   3.671  13.252 -0.0042 -0.0671 -0.5051
 1105TIP3    H124730   5.606   3.600  13.250  0.5572 -0.6217  0.6395
 1105TIP3    H224731   5.704   3.674  13.162 -1.9309  0.5470 -1.2613
 1106TIP3   OH224732   0.138   1.573   0.421 -0.2918  0.1522 -0.2610
 1106TIP3    H124733   0.178   1.492   0.453  0.9793  1.0258  0.4397
 1106TIP3    H224734   0.075   1.544   0.355 -1.5381 -1.5885  1.5567
 1107TIP3   OH224735   5.259   3.182  13.276 -0.2936 -0.0773 -0.0466
 1107TIP3    H124736   5.299   3.117  13.335 -0.7807 -0.9597 -0.6683
 1107TIP3    H224737   5.182   3.138  13.241 -1.4540  1.3547  0.6154
 1108TIP3   OH224738   1.185   6.708   0.660 -0.2940  0.1239 -0.4976
 1108TIP3    H124739   1.094   6.736   0.653 -0.0396  0.9257 -0.6398
 1108TIP3    H224740   1.236   6.788   0.651  0.4066 -0.2311  0.1980
 1109TIP3   OH224741   5.425   5.132   5.354  0.1260 -0.0561 -0.5223
 1109TIP3    H124742   5.490   5.193   5.388  0.2991  0.3258 -1.5109
 1109TIP3    H224743   5.377   5.182   5.288  0.6089 -1.1252 -1.7147
 1110TIP3   OH224744   2.666   5.055   3.243 -0.1912  0.2107  0.5484
 1110TIP3    H124745   2.666   5.008   3.160  0.9909  2.5895 -0.9009
 1110TIP3    H224746   2.662   4.986   3.310 -0.8094 -1.7923 -1.4315
 1111TIP3   OH224747   0.795   2.826   4.564  0.2644 -0.2702  0.1392
 1111TIP3    H124748   0.866   2.819   4.628  0.5666 -0.9370 -0.2531
 1111TIP3    H224749   0.719   2.789   4.608  0.0997  0.6406  0.6370
 1112TIP3   OH224750   3.223   4.691  14.129 -0.0051  0.5551  0.1475
 1112TIP3    H124751   3.304   4.742  14.133 -0.2724  0.9550  0.5122
 1112TIP3    H224752   3.157   4.748  14.168 -0.1542 -0.3652  1.3161
 1113TIP3   OH224753   3.298   5.592   6.434 -0.0740 -0.5875 -0.1526
 1113TIP3    H124754   3.358   5.583   6.508 -0.1921 -0.2534 -0.0188
 1113TIP3    H224755   3.222   5.539   6.459 -0.2966 -0.1276  0.1550
 1114TIP3   OH224756   6.329   5.885  10.616  0.5488  0.1983 -0.1137
 1114TIP3    H124757   6.275   5.807  10.605 -0.6508  0.5583  2.4723
 1114TIP3    H224758   6.382   5.889  10.536 -2.0411 -1.1028 -2.0386
 1115TIP3   OH224759   4.882   6.740  10.188 -0.2362  0.3242 -0.1517
 1115TIP3    H124760   4.889   6.764  10.096 -1.4515  1.9447  0.1102
 1115TIP3    H224761   4.863   6.823  10.233  1.2734 -0.2477  1.6967
 1116TIP3   OH224762   5.039   5.427   0.777 -0.2733  0.2979  0.0449
 1116TIP3    H124763   5.073   5.492   0.716  2.0504 -0.6157  0.2844
 1116TIP3    H224764   5.096   5.432   0.853 -1.9877  0.1210  1.4014
 1117TIP3   OH224765   5.355   3.055   0.571  0.6305 -0.4245 -0.1609
 1117TIP3    H124766   5.271   3.078   0.531 -0.4988 -0.3980  2.1196
 1117TIP3    H224767   5.387   2.982   0.517 -1.1388 -0.8413 -0.7195
 1118TIP3   OH224768   2.399   0.621   2.132  0.9539 -0.8038 -0.1676
 1118TIP3    H124769   2.360   0.649   2.214  2.1591 -2.1941  0.9301
 1118TIP3    H224770   2.397   0.526   2.135  0.3685 -0.9032 -2.0911
 1119TIP3   OH224771   1.624   4.570  16.070 -0.1497 -0.3715  0.0203
 1119TIP3    H124772   1.638   4.622  15.991  0.0400 -0.4598 -0.0067
 1119TIP3    H224773   1.642   4.630  16.142  0.1711 -0.4276 -0.0120
 1120TIP3   OH224774   1.320   1.074  14.596 -0.3136 -0.5198 -0.5804
 1120TIP3    H124775   1.337   0.998  14.651 -0.1867  0.5190  0.8774
 1120TIP3    H224776   1.314   1.039  14.508  0.7881 -2.0827 -0.0834
 1121TIP3   OH224777   0.890   3.310   3.017 -0.2242  0.4000  0.5108
 1121TIP3    H124778   0.829   3.262   3.072  2.3991 -1.7226  1.8234
 1121TIP3    H224779   0.934   3.243   2.964  2.2888  1.4767  1.0473
 1122TIP3   OH224780   4.728   6.105  11.688 -0.7221  0.2450  0.4807
 1122TIP3    H124781   4.639   6.134  11.671 -0.6586 -0.0182 -0.3495
 1122TIP3    H224782   4.772   6.108  11.602 -0.1368 -0.2922  0.7459
 1123TIP3   OH224783   5.686   6.341   2.052 -0.5899  0.0280  0.0786
 1123TIP3    H124784   5.718   6.285   2.122  0.1950 -0.2605 -0.4859
 1123TIP3    H224785   5.713   6.429   2.078 -0.4676 -0.0531  0.2272
 1124TIP3   OH224786   5.638   3.956   4.128  0.2570  0.5042 -0.2662
 1124TIP3    H124787   5.583   4.034   4.123  0.6171  0.7623 -0.3002
 1124TIP3    H224788   5.645   3.937   4.221  1.8401  1.7467 -0.0759
 1125TIP3   OH224789   0.566   4.572   0.297  0.4155  0.1062  0.2085
 1125TIP3    H124790   0.511   4.561   0.374 -1.2888  3.5726 -0.2958
 1125TIP3    H224791   0.643   4.618   0.329  0.6933 -0.3197  0.1543
 1126TIP3   OH224792   4.854   5.615  12.045  0.2257 -0.2344 -0.2006
 1126TIP3    H124793   4.920   5.682  12.034 -0.9956  0.9882 -0.3798
 1126TIP3    H224794   4.774   5.663  12.069 -0.8791 -1.5328 -1.0771
 1127TIP3   OH224795   3.074   5.535  12.317  0.0539  0.1200 -0.2784
 1127TIP3    H124796   2.985   5.520  12.348 -0.5507 -1.3721 -2.4914
 1127TIP3    H224797   3.126   5.467  12.361 -0.0202  0.5249  0.4497
 1128TIP3   OH224798   1.315   1.935   5.269 -0.0369  0.3973 -0.2694
 1128TIP3    H124799   1.375   1.918   5.342  0.0194 -1.0297 -0.6060
 1128TIP3    H224800   1.254   1.861   5.271  1.3380 -0.9686 -2.9973
 1129TIP3   OH224801   0.565   5.937  15.768 -0.1420 -0.6659  0.6027
 1129TIP3    H124802   0.551   6.025  15.735  1.3867 -1.1106 -1.4436
 1129TIP3    H224803   0.565   5.946  15.864  0.7191  1.6664  0.4231
 1130TIP3   OH224804   0.995   3.141   1.931  0.1387 -0.2418  0.3813
 1130TIP3    H124805   1.064   3.198   1.899  0.4358 -1.0946 -0.5450
 1130TIP3    H224806   0.914   3.190   1.916  0.5468  0.9417  1.8726
 1131TIP3   OH224807   0.780   3.365  15.355  0.4020  0.1302  0.2966
 1131TIP3    H124808   0.713   3.420  15.396 -0.9439  0.0155 -1.6246
 1131TIP3    H224809   0.840   3.427  15.314  0.5471  0.2098  0.6294
 1132TIP3   OH224810   1.269   2.034   3.888  0.3151  0.1099 -0.5761
 1132TIP3    H124811   1.230   2.074   3.966  0.9181  1.7597 -1.0791
 1132TIP3    H224812   1.203   1.972   3.858 -0.7691  0.8860  0.1241
 1133TIP3   OH224813   5.030   5.789  15.048 -0.0917  0.5829 -0.1157
 1133TIP3    H124814   4.937   5.802  15.066 -0.3940 -1.8011  0.3794
 1133TIP3    H224815   5.043   5.828  14.962 -1.4618  1.2757 -0.0395
 1134TIP3   OH224816   5.514   0.163  15.690 -0.1647 -0.0841 -0.5892
 1134TIP3    H124817   5.488   0.242  15.738 -1.4061 -0.4221 -0.6751
 1134TIP3    H224818   5.500   0.184  15.598 -0.2126 -0.3069 -0.6341
 1135TIP3   OH224819   2.613   3.949  15.357 -0.5302  0.1709  1.1556
 1135TIP3    H124820   2.656   3.901  15.427 -0.5694 -0.7310  0.5671
 1135TIP3    H224821   2.520   3.939  15.375 -0.5938  2.6265  2.7781
 1136TIP3   OH224822   4.901   5.559   2.332 -0.1622  0.0003 -0.3262
 1136TIP3    H124823   4.962   5.542   2.405  2.7718  0.3438 -2.5160
 1136TIP3    H224824   4.855   5.476   2.320  0.1998 -0.4389  1.1129
 1137TIP3   OH224825   4.697   3.776  12.401 -0.2109 -0.0307  0.0981
 1137TIP3    H124826   4.789   3.797  12.388  0.4024 -2.0258  0.8980
 1137TIP3    H224827   4.688   3.684  12.375 -2.1634  0.3195 -0.7046
 1138TIP3   OH224828   4.761   6.418  11.595  0.3460  0.1921  0.2193
 1138TIP3    H124829   4.768   6.351  11.663 -1.0357 -0.0617  0.1330
 1138TIP3    H224830   4.758   6.369  11.513 -2.1004  0.2280  0.2334
 1139TIP3   OH224831   5.930   0.509  10.663 -0.4707  0.1479  0.1070
 1139TIP3    H124832   5.869   0.443  10.693 -0.8156 -0.4293 -1.7068
 1139TIP3    H224833   5.881   0.591  10.666 -1.9174 -0.4793 -2.5581
 1140TIP3   OH224834   0.749   5.412  14.707 -0.7687  0.0304 -0.3993
 1140TIP3    H124835   0.668   5.397  14.658  0.1696 -0.0086 -1.9867
 1140TIP3    H224836   0.813   5.438  14.641  1.4592 -3.2352  0.2436
 1141TIP3   OH224837   6.117   2.228  16.434 -0.0481  0.0916  0.3207
 1141TIP3    H124838   6.201   2.219  16.479 -0.0818  3.7716  1.4431
 1141TIP3    H224839   6.140   2.227  16.341  0.8681 -1.2440  0.5254
 1142TIP3   OH224840   1.732   1.848   0.761 -0.0529  0.1462 -0.0708
 1142TIP3    H124841   1.794   1.797   0.813  0.1542  1.4171  0.9834
 1142TIP3    H224842   1.780   1.928   0.738 -0.7631  0.4213 -0.6607
 1143TIP3   OH224843   2.613   0.536  12.160 -0.4582 -0.1239  0.4828
 1143TIP3    H124844   2.536   0.557  12.214  0.2981  0.0216  1.5392
 1143TIP3    H224845   2.578   0.482  12.089 -1.5085 -0.2536  1.0738
 1144TIP3   OH224846   4.916   6.196  11.485 -0.1022 -0.2683  0.0026
 1144TIP3    H124847   4.945   6.191  11.394  0.6427  0.8159  0.1564
 1144TIP3    H224848   4.966   6.128  11.530 -1.8814 -2.1279 -0.7090
 1145TIP3   OH224849   1.678   0.100   2.078  1.1008 -0.3020  0.0843
 1145TIP3    H124850   1.583   0.098   2.073  1.0871 -1.3629  0.4773
 1145TIP3    H224851   1.698   0.058   2.162  1.9282 -0.4007 -0.1555
 1146TIP3   OH224852   0.963   0.181  13.370  0.2497 -0.1508 -0.7975
 1146TIP3    H124853   0.987   0.181  13.277  0.7883  0.0381 -0.6636
 1146TIP3    H224854   0.878   0.226  13.373 -1.0137 -2.3572 -1.4773
 1147TIP3   OH224855   1.497   6.635  12.385  0.3120 -0.0485 -0.3154
 1147TIP3    H124856   1.523   6.689  12.310 -0.1411  0.6519  0.0172
 1147TIP3    H224857   1.502   6.545  12.353 -1.6264  0.3007 -1.7570
 1148TIP3   OH224858   0.322   2.047  11.137  0.2313  0.0042  0.0871
 1148TIP3    H124859   0.265   2.123  11.124 -0.3251 -0.1757  1.3712
 1148TIP3    H224860   0.404   2.083  11.171  0.5099  0.1608 -0.7346
 1149TIP3   OH224861   5.238   4.548   3.847 -0.4048  0.2138 -0.3792
 1149TIP3    H124862   5.149   4.578   3.868 -0.3905 -0.3650  0.5780
 1149TIP3    H224863   5.224   4.471   3.791 -0.5133  0.1114 -0.2137
 1150TIP3   OH224864   2.282   5.758  15.215 -0.0511  0.0615  0.1093
 1150TIP3    H124865   2.306   5.815  15.141 -1.3992  0.5089 -0.0015
 1150TIP3    H224866   2.299   5.669  15.183  0.9038  0.3175 -0.1523
 1151TIP3   OH224867   6.556   4.098   5.651 -0.1641  0.4208 -0.1063
 1151TIP3    H124868   6.523   4.096   5.741 -2.1054 -0.5403 -0.7823
 1151TIP3    H224869   6.552   4.190   5.625 -1.3276  0.4776  0.2221
 1152TIP3   OH224870   3.167   1.724   4.122  0.0184  0.2276 -0.6644
 1152TIP3    H124871   3.181   1.732   4.027 -1.4307  2.7763 -0.7509
 1152TIP3    H224872   3.221   1.793   4.160  1.6996 -1.6599  0.5865
 1153TIP3   OH224873   4.941   4.556   2.152  0.3029  0.2396  0.1147
 1153TIP3    H124874   4.880   4.497   2.109  0.1522  0.1021  0.5183
 1153TIP3    H224875   4.964   4.620   2.085  0.1171 -0.0117 -0.1876
 1154TIP3   OH224876   0.507   0.997  12.677 -0.0588 -0.3117  0.4161
 1154TIP3    H124877   0.569   0.942  12.724  1.6262  0.2190 -1.0653
 1154TIP3    H224878   0.478   1.061  12.741  0.8821 -0.6212  1.1734
 1155TIP3   OH224879   3.027   2.467   6.268 -0.3000 -0.6265 -0.1142
 1155TIP3    H124880   3.053   2.557   6.251 -2.1064 -0.0157  0.1084
 1155TIP3    H224881   2.931   2.470   6.271 -0.3715 -2.0425  2.5721
 1156TIP3   OH224882   0.955   1.787   2.913  0.0698 -0.6306 -0.2488
 1156TIP3    H124883   0.870   1.796   2.956  0.6348 -3.6740  1.8586
 1156TIP3    H224884   1.019   1.808   2.982  1.0294 -0.3765 -1.1900
 1157TIP3   OH224885   3.510   4.245   1.809  0.2052  0.5144  0.1308
 1157TIP3    H124886   3.420   4.233   1.839  0.0418 -0.6578 -0.7308
 1157TIP3    H224887   3.563   4.230   1.886 -0.2988  0.0876  0.4020
 1158TIP3   OH224888   2.847   1.525  13.211  0.6928 -0.3409 -0.5902
 1158TIP3    H124889   2.816   1.530  13.120  4.4772  0.0784 -2.0156
 1158TIP3    H224890   2.786   1.580  13.260 -0.9646  0.1343 -3.0091
 1159TIP3   OH224891   1.197   3.596   2.824  0.6290  0.2481  0.5504
 1159TIP3    H124892   1.127   3.655   2.794  0.7454 -0.3287 -0.9635
 1159TIP3    H224893   1.155   3.541   2.890 -0.1243  0.4868  0.2849
 1160TIP3   OH224894   1.779   4.167  15.690  0.7548 -0.3851  0.6586
 1160TIP3    H124895   1.838   4.190  15.761  1.0285 -0.2075  0.3784
 1160TIP3    H224896   1.734   4.249  15.669  1.4124 -0.1887 -0.0485
 1161TIP3   OH224897   5.649   4.347   6.286 -0.5633 -0.0742 -0.9014
 1161TIP3    H124898   5.647   4.404   6.363 -1.1880  0.0563 -1.0101
 1161TIP3    H224899   5.622   4.402   6.213 -2.4407 -0.8002 -0.8016
 1162TIP3   OH224900   3.762   4.003   2.318  0.0493  0.4535  0.5270
 1162TIP3    H124901   3.787   4.051   2.397 -1.3391  0.0816  1.2200
 1162TIP3    H224902   3.698   3.939   2.348  0.1257 -0.2707 -0.7727
 1163TIP3   OH224903   1.872   1.610   3.559  0.8714  0.0875  0.4026
 1163TIP3    H124904   1.881   1.520   3.592 -1.0711 -0.4846 -0.4481
 1163TIP3    H224905   1.798   1.645   3.609 -0.0039  0.3260 -1.0212
 1164TIP3   OH224906   4.483   3.319  11.373  0.5065  0.0084 -0.2776
 1164TIP3    H124907   4.408   3.268  11.404 -0.1536  1.8526  1.4185
 1164TIP3    H224908   4.455   3.353  11.288 -0.0701 -0.3829 -0.2487
 1165TIP3   OH224909   0.907   2.037   1.393  0.4729  0.1397 -0.2081
 1165TIP3    H124910   0.914   1.949   1.431  2.1768  0.2953 -0.0519
 1165TIP3    H224911   0.949   2.029   1.307 -1.4285  0.2969 -1.1956
 1166TIP3   OH224912   4.281   5.811   5.308 -0.2502  0.1408  0.4892
 1166TIP3    H124913   4.344   5.883   5.314 -1.6248  1.3476  1.1886
 1166TIP3    H224914   4.313   5.756   5.236  0.6488  1.6634 -0.3196
 1167TIP3   OH224915   6.008   0.555   1.667  0.0740  0.0950  0.3446
 1167TIP3    H124916   5.981   0.614   1.596 -1.0260 -0.2952  0.4126
 1167TIP3    H224917   6.044   0.613   1.734  1.0789  0.4754 -0.4963
 1168TIP3   OH224918   3.379   0.120  16.827 -0.0905 -0.1992  0.3159
 1168TIP3    H124919   3.319   0.061  16.781 -0.1256 -0.6288  0.9053
 1168TIP3    H224920   3.452   0.131  16.766 -0.0674 -0.8793  0.2128
 1169TIP3   OH224921   6.669   0.248   2.901 -0.0307 -0.0156  0.1302
 1169TIP3    H124922   6.671   0.222   2.809  0.7720 -0.1918  0.1837
 1169TIP3    H224923   6.678   0.343   2.900  1.8237 -0.1492  0.0555
 1170TIP3   OH224924   6.041   4.343   0.023 -0.2939  0.1875  0.1394
 1170TIP3    H124925   6.053   4.313   0.113  0.7979 -1.5468 -0.5039
 1170TIP3    H224926   6.034   4.438   0.029  0.9359  0.2115  1.9480
 1171TIP3   OH224927   4.795   0.973   2.755  0.0359 -0.3337  0.3322
 1171TIP3    H124928   4.736   0.914   2.801  0.3234 -0.9885 -0.1335
 1171TIP3    H224929   4.835   1.026   2.824 -1.6349  0.6473  0.6063
 1172TIP3   OH224930   3.985   5.887   5.331  0.2527 -0.0914 -0.6676
 1172TIP3    H124931   4.081   5.880   5.336  0.6115  3.0455 -1.1558
 1172TIP3    H224932   3.959   5.916   5.418  0.2126  2.2092 -1.3717
 1173TIP3   OH224933   4.609   4.871   0.175  0.0042 -0.5276  0.1543
 1173TIP3    H124934   4.662   4.840   0.101 -0.0040  0.3573 -0.2423
 1173TIP3    H224935   4.582   4.960   0.149 -1.4385 -0.8417  0.4630
 1174TIP3   OH224936   2.785   0.322  14.117 -0.2957 -0.1999  0.3193
 1174TIP3    H124937   2.720   0.275  14.170 -0.4231 -1.8740 -1.2188
 1174TIP3    H224938   2.850   0.255  14.096  0.0960  0.5864 -1.0590
 1175TIP3   OH224939   5.913   1.691   1.192  0.0320  0.2779  0.9865
 1175TIP3    H124940   5.954   1.604   1.185 -0.1334  0.1612  1.4139
 1175TIP3    H224941   5.982   1.752   1.166 -0.2389 -0.0449 -0.6057
 1176TIP3   OH224942   0.148   1.744  14.072  0.4093 -0.3211 -0.2094
 1176TIP3    H124943   0.208   1.794  14.016 -0.8380  1.6925  0.1883
 1176TIP3    H224944   0.063   1.753  14.029 -0.0447 -1.2530  0.4634
 1177TIP3   OH224945   2.866   5.522  16.284  0.9509 -0.1885  0.5892
 1177TIP3    H124946   2.775   5.514  16.256  0.4991  1.0938  1.5711
 1177TIP3    H224947   2.911   5.447  16.244 -0.4450 -0.6197 -0.2252
 1178TIP3   OH224948   0.081   4.220   5.922 -0.7476  0.1116  0.0564
 1178TIP3    H124949   0.105   4.130   5.944  0.4449  0.6577  1.0859
 1178TIP3    H224950   0.117   4.273   5.993  0.4169  1.6213 -1.5764
 1179TIP3   OH224951   6.662   1.733  13.471 -0.2679  0.2466  0.0340
 1179TIP3    H124952   6.700   1.819  13.454 -0.4399  0.3826  0.3283
 1179TIP3    H224953   6.666   1.688  13.387  1.2172 -0.0156  0.2182
 1180TIP3   OH224954   4.747   6.704   0.677 -0.1960  0.2532  0.2634
 1180TIP3    H124955   4.729   6.733   0.588 -0.0687  2.5462  0.9254
 1180TIP3    H224956   4.680   6.747   0.731  0.2434 -0.4128  1.3943
 1181TIP3   OH224957   2.890   1.370   3.175  0.4348  0.3222 -0.0265
 1181TIP3    H124958   2.835   1.323   3.112 -1.7202  2.2933  0.2310
 1181TIP3    H224959   2.867   1.333   3.260  1.1172 -0.2992 -0.1056
 1182TIP3   OH224960   6.726   2.857  14.684  0.1961  0.3842  0.2680
 1182TIP3    H124961   6.781   2.802  14.628 -0.4200 -0.8801  0.8718
 1182TIP3    H224962   6.776   2.864  14.766 -1.1169 -2.0042  1.3668
 1183TIP3   OH224963   1.765   0.351  11.701  0.7258 -0.2162 -0.3699
 1183TIP3    H124964   1.808   0.365  11.617  0.9487 -0.8856 -0.3772
 1183TIP3    H224965   1.727   0.436  11.724 -0.0203 -0.2214 -1.5236
 1184TIP3   OH224966   3.669   5.069   1.723  0.1707 -0.2054 -0.0233
 1184TIP3    H124967   3.669   5.159   1.690  0.2100  0.5516  1.9498
 1184TIP3    H224968   3.758   5.037   1.708  0.9017  0.9816  1.5028
 1185TIP3   OH224969   3.514   2.786   0.579 -0.1462  0.7807 -0.4467
 1185TIP3    H124970   3.496   2.694   0.597  1.6091  0.9783  3.0790
 1185TIP3    H224971   3.468   2.834   0.647  3.1319  2.0548  1.0573
 1186TIP3   OH224972   3.854   5.370  10.859 -0.2058 -0.1204 -0.0240
 1186TIP3    H124973   3.791   5.418  10.913 -1.3946 -0.8985 -0.6731
 1186TIP3    H224974   3.878   5.431  10.790  1.2425  0.8482  1.2637
 1187TIP3   OH224975   5.435   0.848  15.548  0.4165  0.0960  0.0079
 1187TIP3    H124976   5.420   0.850  15.642 -1.8225 -1.9835 -0.1924
 1187TIP3    H224977   5.523   0.882  15.537  0.6875  0.5468  2.8295
 1188TIP3   OH224978   6.647   0.066   5.605  0.2128  0.4748  0.1109
 1188TIP3    H124979   6.686   0.046   5.520  1.2300 -0.3749  0.7582
 1188TIP3    H224980   6.672   0.156   5.622  0.5111  0.4570 -0.2196
 1189TIP3   OH224981   6.047   0.521   3.413 -0.2580  0.7452 -0.2336
 1189TIP3    H124982   6.005   0.523   3.327  0.2263  0.0138 -0.4901
 1189TIP3    H224983   6.035   0.610   3.447  0.3487  1.3180 -1.4447
 1190TIP3   OH224984   0.949   3.529   5.784 -0.3100  0.2159 -0.0014
 1190TIP3    H124985   0.884   3.507   5.718 -0.3022 -1.0830  0.4088
 1190TIP3    H224986   0.929   3.472   5.859  1.4391 -0.4138  0.0318
 1191TIP3   OH224987   2.299   4.806   4.554  0.2842  0.1545 -0.3131
 1191TIP3    H124988   2.309   4.863   4.630 -0.0863  1.9768 -1.5462
 1191TIP3    H224989   2.386   4.807   4.513  0.6869 -1.4242  0.4516
 1192TIP3   OH224990   2.120   3.788  14.676 -0.3865 -0.3093 -0.4457
 1192TIP3    H124991   2.087   3.826  14.595  0.0906 -0.7226 -0.8351
 1192TIP3    H224992   2.212   3.814  14.680 -0.7503  0.9284  0.6896
 1193TIP3   OH224993   2.769   0.061   1.977  0.2281 -0.5262  0.4273
 1193TIP3    H124994   2.864   0.057   1.992  0.2714  0.4879  0.4782
 1193TIP3    H224995   2.746  -0.026   1.945  1.5657 -0.1134 -1.8350
 1194TIP3   OH224996   6.259   3.746   4.278  0.5251 -0.1409  0.5410
 1194TIP3    H124997   6.248   3.822   4.335  1.7289  0.1831  0.3609
 1194TIP3    H224998   6.313   3.685   4.329  0.4862 -0.4177  0.2542
 1195TIP3   OH224999   6.345   4.627   2.939 -0.6078 -0.2777 -0.3959
 1195TIP3    H125000   6.401   4.588   2.873 -0.4861 -0.8050  0.0121
 1195TIP3    H225001   6.314   4.709   2.900  0.4993  0.0566 -0.5956
 1196TIP3   OH225002   0.061   6.139   3.773 -0.3245  0.3707  0.0497
 1196TIP3    H125003  -0.008   6.190   3.816 -0.9809  0.1103 -0.6701
 1196TIP3    H225004   0.100   6.200   3.711  0.4721  0.6781  0.8231
 1197TIP3   OH225005   0.177   0.442   1.670  1.2301 -0.3188  0.2336
 1197TIP3    H125006   0.142   0.355   1.651  0.8438 -0.0017 -0.5670
 1197TIP3    H225007   0.114   0.480   1.731  1.9967 -1.0068  1.5009
 1198TIP3   OH225008   2.608   1.933  11.590  0.5536  0.3034 -0.2211
 1198TIP3    H125009   2.688   1.881  11.584 -0.0983 -0.9122  1.2190
 1198TIP3    H225010   2.557   1.907  11.513 -0.2498 -2.0983  1.0407
 1199TIP3   OH225011   1.387   5.944   4.480  0.1926 -0.0287  0.5514
 1199TIP3    H125012   1.372   5.849   4.479 -0.0987  0.0065 -1.4679
 1199TIP3    H225013   1.398   5.965   4.573  1.6150 -2.2316  0.9455
 1200TIP3   OH225014   6.758   3.716  16.526  0.0722 -0.0598 -0.5463
 1200TIP3    H125015   6.694   3.652  16.494 -0.2273  0.3192 -0.7019
 1200TIP3    H225016   6.707   3.779  16.576  0.1971  0.7395 -1.4044
 1201TIP3   OH225017   4.932   5.513  15.032 -0.6614 -0.6473 -0.2610
 1201TIP3    H125018   5.011   5.460  15.038  0.6106  1.3294  1.6633
 1201TIP3    H225019   4.957   5.588  14.977 -1.8115 -0.9451 -1.2391
 1202TIP3   OH225020   3.740   3.870  17.098  0.0357  0.0146 -0.2917
 1202TIP3    H125021   3.721   3.866  17.004  0.7143  0.2182 -0.4412
 1202TIP3    H225022   3.662   3.833  17.140 -0.7816  1.0088 -0.8824
 1203TIP3   OH225023   4.459   4.674   5.141 -0.2052 -0.2719  0.0447
 1203TIP3    H125024   4.378   4.723   5.125  0.3757  0.4172 -0.9165
 1203TIP3    H225025   4.528   4.740   5.135  0.4834 -0.9659  0.1930
 1204TIP3   OH225026   3.813   3.560  14.905  0.0905 -0.0604 -0.1901
 1204TIP3    H125027   3.881   3.504  14.941  0.1820 -0.4051 -0.8747
 1204TIP3    H225028   3.752   3.500  14.862 -1.6869  0.0558  2.0093
 1205TIP3   OH225029   4.902   3.341   2.992  0.3572 -0.3560 -0.0687
 1205TIP3    H125030   4.907   3.435   2.974  0.6290 -0.1742  0.9143
 1205TIP3    H225031   4.886   3.301   2.906  1.4502  0.4775 -0.6818
 1206TIP3   OH225032   5.732   4.954   0.956 -0.1690  0.0920 -0.0239
 1206TIP3    H125033   5.688   4.949   1.041  3.7166 -1.6907  2.1163
 1206TIP3    H225034   5.718   4.868   0.917 -1.4690  0.7218 -1.0025
 1207TIP3   OH225035   0.126   2.737  14.517 -0.7699 -0.1288  0.0107
 1207TIP3    H125036   0.060   2.708  14.454  1.3140 -0.1033 -2.3196
 1207TIP3    H225037   0.196   2.672  14.511 -0.2010  0.2538  1.8432
 1208TIP3   OH225038   5.011   4.880  13.620  0.2400  0.3120  0.0269
 1208TIP3    H125039   4.946   4.871  13.549  1.3132  1.5282 -1.1659
 1208TIP3    H225040   5.027   4.790  13.649  0.2801 -0.2970 -1.7644
 1209TIP3   OH225041   3.320   5.582  12.219  0.1256  0.0737  0.2763
 1209TIP3    H125042   3.224   5.584  12.216 -0.0458  1.6741  3.2080
 1209TIP3    H225043   3.342   5.490  12.203 -1.7207 -0.0401 -2.1589
 1210TIP3   OH225044   1.872   2.075  11.550 -0.5757  0.0153  0.7316
 1210TIP3    H125045   1.905   1.988  11.528 -0.4743  0.6044 -1.6857
 1210TIP3    H225046   1.945   2.118  11.595 -0.0884 -0.6265  0.5680
 1211TIP3   OH225047   0.915   4.450   0.938  0.0171 -0.2178  0.4060
 1211TIP3    H125048   0.965   4.384   0.985 -0.2048 -0.0004  0.9514
 1211TIP3    H225049   0.953   4.451   0.850  0.3901 -0.6677  0.5608
 1212TIP3   OH225050   4.643   2.195  12.348 -0.1444  0.2460 -0.5887
 1212TIP3    H125051   4.616   2.172  12.259  0.3377  1.8318 -1.1918
 1212TIP3    H225052   4.574   2.252  12.380 -0.4556 -0.5442  0.1820
 1213TIP3   OH225053   1.377   2.436  15.221 -0.2590  0.1566 -0.6603
 1213TIP3    H125054   1.320   2.369  15.184  0.8247 -0.8173 -0.6177
 1213TIP3    H225055   1.459   2.428  15.171 -0.1172  1.4822 -0.6816
 1214TIP3   OH225056   3.352   2.404  11.741  0.7863  0.1398  0.0632
 1214TIP3    H125057   3.302   2.433  11.817  0.0981 -1.5065  0.2742
 1214TIP3    H225058   3.287   2.384  11.675  1.3585  1.0981 -0.8223
 1215TIP3   OH225059   5.065   1.045  17.240 -0.0844 -0.4380 -0.0730
 1215TIP3    H125060   5.077   0.951  17.229  0.9969 -0.5586  1.6717
 1215TIP3    H225061   4.971   1.055  17.257 -0.8685 -0.7430 -3.5895
 1216TIP3   OH225062   3.516   3.809   2.965  0.5395  0.1871 -0.6839
 1216TIP3    H125063   3.439   3.807   3.022  0.5175  0.9193 -0.6862
 1216TIP3    H225064   3.589   3.783   3.021  0.5333  1.0042 -0.2931
 1217TIP3   OH225065   3.910   4.293  16.939 -0.4816  0.6572 -0.6687
 1217TIP3    H125066   3.874   4.280  17.026 -0.8054 -0.9743 -0.9955
 1217TIP3    H225067   3.839   4.333  16.889 -1.1203 -0.5267 -0.7475
 1218TIP3   OH225068   1.503   0.885   0.592 -0.2110 -0.6319 -0.4736
 1218TIP3    H125069   1.521   0.815   0.529 -0.8809 -1.3750  0.1287
 1218TIP3    H225070   1.550   0.858   0.671  0.3145  0.0957 -0.5358
 1219TIP3   OH225071   2.291   2.879  12.262 -0.6257  0.0042  0.0690
 1219TIP3    H125072   2.228   2.893  12.333 -2.3313 -0.2992 -1.3053
 1219TIP3    H225073   2.239   2.889  12.182  1.4335  1.4081 -1.1979
 1220TIP3   OH225074   3.419   3.481  15.395  0.2450  0.2973 -0.1098
 1220TIP3    H125075   3.485   3.536  15.354  0.0190  1.8386  1.4586
 1220TIP3    H225076   3.353   3.467  15.326  1.8390 -0.7556 -1.5012
 1221TIP3   OH225077   3.686   4.060   3.177 -0.5012 -0.2019  0.1883
 1221TIP3    H125078   3.654   4.048   3.087 -1.6602 -0.7818  0.6640
 1221TIP3    H225079   3.775   4.095   3.166  0.4314 -2.7438 -1.2453
 1222TIP3   OH225080   0.960   4.527  14.130  0.2693 -0.2193 -0.2790
 1222TIP3    H125081   1.040   4.480  14.154  1.2462  1.9014  0.9551
 1222TIP3    H225082   0.969   4.612  14.173 -1.3131  1.1871 -2.5192
 1223TIP3   OH225083   1.692   0.332  12.824 -0.6888 -0.5190 -0.1108
 1223TIP3    H125084   1.740   0.373  12.895 -0.4086 -1.0794  0.0310
 1223TIP3    H225085   1.740   0.251  12.807 -0.4131 -0.1268 -1.3134
 1224TIP3   OH225086   2.906   0.862   4.476  0.5545  0.5618  0.0891
 1224TIP3    H125087   2.884   0.918   4.551 -1.3471  0.0352 -0.0411
 1224TIP3    H225088   2.822   0.832   4.443  1.4072  0.0628 -1.7330
 1225TIP3   OH225089   0.048   2.426  16.008  0.7643  0.9318 -0.1548
 1225TIP3    H125090   0.135   2.414  16.047  0.7161  2.3618  0.4531
 1225TIP3    H225091   0.022   2.514  16.034 -1.8348 -0.2084  1.5080
 1226TIP3   OH225092   5.729   4.190   6.092  0.2590  0.0467  0.3571
 1226TIP3    H125093   5.824   4.177   6.084  0.2020 -2.0572  2.1628
 1226TIP3    H225094   5.717   4.234   6.176 -0.3435  1.3758 -0.3934
 1227TIP3   OH225095   5.708   4.992   3.561  0.0610 -0.5360  0.1719
 1227TIP3    H125096   5.789   4.984   3.511  0.5110 -0.2836  0.8585
 1227TIP3    H225097   5.699   5.086   3.578 -0.3009 -0.5772  0.2227
 1228TIP3   OH225098   2.571   3.336  13.154 -0.4382 -0.8423  0.6081
 1228TIP3    H125099   2.507   3.286  13.103 -0.0267 -1.2941  0.5272
 1228TIP3    H225100   2.635   3.366  13.089 -0.9670  0.2493  0.5784
 1229TIP3   OH225101   3.778   6.350  11.340  0.1017 -0.3292  0.0829
 1229TIP3    H125102   3.815   6.376  11.424  0.6243  1.1227 -0.5577
 1229TIP3    H225103   3.690   6.388  11.340  0.5445  0.7397 -0.4959
 1230TIP3   OH225104   4.678   2.230   4.957  1.0325 -0.1804 -0.1558
 1230TIP3    H125105   4.675   2.284   4.878  2.0196 -1.8925 -1.4375
 1230TIP3    H225106   4.770   2.205   4.965  0.6393 -1.5166  0.4661
 1231TIP3   OH225107   2.893   2.597  11.503  0.0884  0.1242  0.5645
 1231TIP3    H125108   2.875   2.666  11.567  0.4619  0.7983 -0.0464
 1231TIP3    H225109   2.824   2.532  11.518  0.9576 -0.4169  2.5913
 1232TIP3   OH225110   2.912   4.839  15.497 -0.5212  0.1301  0.1438
 1232TIP3    H125111   2.826   4.865  15.530 -0.6623 -1.8795  1.5850
 1232TIP3    H225112   2.974   4.883  15.556 -0.5152  1.3428 -0.7156
 1233TIP3   OH225113   1.824   1.905  14.496 -0.7446 -0.3128 -0.2003
 1233TIP3    H125114   1.753   1.899  14.431 -0.7184 -1.4635 -0.1453
 1233TIP3    H225115   1.827   1.818  14.536 -0.2495  0.1586  0.8165
 1234TIP3   OH225116   3.335   5.092  13.926 -0.2191  0.1211 -0.0362
 1234TIP3    H125117   3.423   5.128  13.922  0.0068 -0.4917 -0.9143
 1234TIP3    H225118   3.324   5.045  13.843 -0.3996 -2.0628  1.1468
 1235TIP3   OH225119   3.858   0.267   4.589 -0.6302  0.0374  0.6981
 1235TIP3    H125120   3.946   0.236   4.609  0.1128  0.2099 -1.8627
 1235TIP3    H225121   3.801   0.222   4.651  1.2897  0.4627  2.8844
 1236TIP3   OH225122   5.938   1.646  15.681  0.5298  0.2741 -0.6065
 1236TIP3    H125123   6.009   1.646  15.618 -0.2395 -3.2124 -1.7080
 1236TIP3    H225124   5.943   1.560  15.723 -2.3378  0.3333  0.0827
 1237TIP3   OH225125   1.440   1.966  13.358  0.1223  0.2579  0.2297
 1237TIP3    H125126   1.518   2.017  13.379 -0.3293  1.4335 -0.8921
 1237TIP3    H225127   1.463   1.917  13.279 -0.6512  1.5582 -0.8424
 1238TIP3   OH225128   5.523   0.725  16.947  0.0602 -0.1960  0.0739
 1238TIP3    H125129   5.537   0.716  17.041  0.8280 -0.0434 -0.0244
 1238TIP3    H225130   5.448   0.785  16.940  0.4004  0.2975  0.5810
 1239TIP3   OH225131   6.519   0.806   2.638  0.3151 -0.2886 -0.5845
 1239TIP3    H125132   6.443   0.788   2.693  0.9349  0.3534  0.4981
 1239TIP3    H225133   6.535   0.724   2.591 -0.9512 -0.4691 -0.7321
 1240TIP3   OH225134   1.349   0.253  13.458  0.1936 -0.9039 -0.1430
 1240TIP3    H125135   1.351   0.344  13.428  3.4263 -0.3535  1.3613
 1240TIP3    H225136   1.269   0.247  13.510 -0.3190  0.9401 -0.6424
 1241TIP3   OH225137   2.914   0.119  15.202 -0.4013  0.1209 -0.5505
 1241TIP3    H125138   2.902   0.039  15.253  1.4929  0.1901  0.0762
 1241TIP3    H225139   2.835   0.125  15.148 -1.1732 -1.4588  0.3350
 1242TIP3   OH225140   5.127   5.392   5.298 -0.0058 -0.0632  0.7089
 1242TIP3    H125141   5.182   5.362   5.370 -1.6004 -1.2047  1.5296
 1242TIP3    H225142   5.104   5.482   5.321  0.1510 -0.1503  1.2185
 1243TIP3   OH225143   5.675   0.880  13.160 -0.1408  0.1129 -0.3336
 1243TIP3    H125144   5.757   0.920  13.132  0.1253 -1.0360 -1.2694
 1243TIP3    H225145   5.635   0.847  13.080 -1.0170 -0.2518  0.2318
 1244TIP3   OH225146   3.833   1.252  13.608  0.1506  0.3785  0.7337
 1244TIP3    H125147   3.787   1.241  13.525  0.5363 -1.4902  0.7007
 1244TIP3    H225148   3.764   1.246  13.674  0.1342 -1.1852  0.6324
 1245TIP3   OH225149   5.640   6.703  14.959  0.3241  0.5210 -0.0069
 1245TIP3    H125150   5.621   6.793  14.933 -0.7198 -0.0712 -1.4275
 1245TIP3    H225151   5.560   6.654  14.937  0.5412 -0.6105  1.5294
 1246TIP3   OH225152   3.684   0.075  15.658  0.6888  0.0276  0.1105
 1246TIP3    H125153   3.767   0.029  15.649  1.4032  0.8058  2.1033
 1246TIP3    H225154   3.636   0.026  15.725  0.5864  0.9357  0.7316
 1247TIP3   OH225155   4.341   0.973   5.913  0.5648  0.1217 -0.1150
 1247TIP3    H125156   4.375   1.043   5.968  0.5250  0.5730 -0.6616
 1247TIP3    H225157   4.259   0.947   5.955  0.9970 -0.1928  0.5677
 1248TIP3   OH225158   1.273   1.333   5.998  0.0663  0.4131 -0.0240
 1248TIP3    H125159   1.285   1.260   6.058 -1.3636  0.1375 -0.0287
 1248TIP3    H225160   1.218   1.395   6.046 -0.4705  0.5237 -0.7512
 1249TIP3   OH225161   2.415   3.893  15.616 -0.1905  0.1162  0.1026
 1249TIP3    H125162   2.496   3.937  15.640 -1.8904  3.2268  0.6150
 1249TIP3    H225163   2.387   3.935  15.535 -0.9370 -1.4411 -0.4996
 1250TIP3   OH225164   2.711   5.904   6.001  0.1329 -0.1064  0.6708
 1250TIP3    H125165   2.772   5.854   6.056  1.6002 -0.4433 -1.1694
 1250TIP3    H225166   2.766   5.971   5.959 -0.4843 -1.1026 -1.8865
 1251TIP3   OH225167   2.094   6.007   2.859 -0.3204  0.4182 -0.0022
 1251TIP3    H125168   2.039   6.029   2.784  0.7493  0.9543 -0.6505
 1251TIP3    H225169   2.147   5.933   2.829  2.4371  2.6481 -0.9939
 1252TIP3   OH225170   6.661   3.045  10.991  0.0924 -0.1563 -0.0190
 1252TIP3    H125171   6.567   3.030  10.999  0.0910 -0.1802 -0.0796
 1252TIP3    H225172   6.673   3.068  10.899  0.1733 -0.3443 -0.0553
 1253TIP3   OH225173   5.610   0.119  15.374 -0.5917 -0.0961  0.6706
 1253TIP3    H125174   5.628   0.204  15.414 -0.3220  0.1265  0.0980
 1253TIP3    H225175   5.675   0.111  15.304 -0.0945 -1.1447  1.2377
 1254TIP3   OH225176   0.323   4.160  14.472 -0.4889  0.0962 -0.3755
 1254TIP3    H125177   0.356   4.157  14.561 -0.2938  1.3654 -0.3896
 1254TIP3    H225178   0.264   4.084  14.466 -0.9733  0.3316  1.0144
 1255TIP3   OH225179   5.880   1.027   5.302  0.1652  0.2004 -0.2871
 1255TIP3    H125180   5.968   1.061   5.322 -0.4215  0.8362  1.3146
 1255TIP3    H225181   5.829   1.045   5.380 -1.5766  0.3783 -1.4171
 1256TIP3   OH225182   2.563   0.683   0.205  0.1192  0.1944  0.0360
 1256TIP3    H125183   2.579   0.739   0.280  0.2802 -0.4018  0.4539
 1256TIP3    H225184   2.498   0.619   0.236 -0.0242  0.1176 -0.4140
 1257TIP3   OH225185   1.134   4.258   0.964  0.6409 -0.0438  0.0323
 1257TIP3    H125186   1.099   4.183   0.915 -0.3634  1.0841 -1.0611
 1257TIP3    H225187   1.158   4.222   1.049 -0.2317 -1.5112 -0.3015
 1258TIP3   OH225188   6.368   1.885  15.740 -0.5871  0.1376 -0.0093
 1258TIP3    H125189   6.453   1.840  15.736 -0.7807 -0.1389 -1.3844
 1258TIP3    H225190   6.321   1.841  15.810  0.5196  0.5190  1.0051
 1259TIP3   OH225191   2.513   1.441   1.465 -0.0172 -0.1553  0.2845
 1259TIP3    H125192   2.542   1.460   1.554 -1.7109  2.2258  0.4242
 1259TIP3    H225193   2.433   1.391   1.476  0.3152 -0.7457  0.0609
 1260TIP3   OH225194   4.718   5.197   6.769  0.2585  0.1830 -0.0229
 1260TIP3    H125195   4.741   5.105   6.756 -1.5294  0.1084 -3.7755
 1260TIP3    H225196   4.640   5.195   6.824  2.4183 -0.1107  3.4045
 1261TIP3   OH225197   6.466   3.069  15.719 -0.0366  0.2195 -0.2441
 1261TIP3    H125198   6.477   3.139  15.784 -0.3113  1.1708 -1.2074
 1261TIP3    H225199   6.394   3.016  15.753  1.5097 -0.8631  1.5640
 1262TIP3   OH225200   4.134   5.563   2.982 -0.1128 -0.1140  0.4392
 1262TIP3    H125201   4.204   5.605   2.932 -1.3193  0.4420 -0.8610
 1262TIP3    H225202   4.101   5.631   3.040 -0.8755  0.2387 -0.3833
 1263TIP3   OH225203   5.607   2.181  17.179  0.0465  0.2457 -0.0046
 1263TIP3    H125204   5.518   2.178  17.142 -0.1141  0.3422  0.3757
 1263TIP3    H225205   5.620   2.273  17.201  0.1760  0.1999  0.1038
 1264TIP3   OH225206   2.059   0.224   3.073  0.0461 -0.0307 -0.4353
 1264TIP3    H125207   2.094   0.294   3.128  1.6300  0.9940 -2.5923
 1264TIP3    H225208   2.135   0.169   3.054 -0.2511  0.1026 -2.1824
 1265TIP3   OH225209   0.100   1.258  16.870 -0.3522 -0.1367 -0.4963
 1265TIP3    H125210   0.139   1.263  16.783  2.7255  0.8252  0.7954
 1265TIP3    H225211   0.119   1.170  16.902 -0.8022 -0.2347 -0.4792
 1266TIP3   OH225212   6.531   2.149  10.990  0.0553  0.1477  0.6269
 1266TIP3    H125213   6.544   2.205  10.913  0.9623  0.1985  0.7989
 1266TIP3    H225214   6.576   2.067  10.968 -1.6532 -0.7116  0.1966
 1267TIP3   OH225215   3.621   1.508   6.288  0.0436 -0.3063 -0.0888
 1267TIP3    H125216   3.707   1.551   6.292 -0.3649  0.8502 -2.1158
 1267TIP3    H225217   3.637   1.425   6.245  0.0481  0.3533 -1.4165
 1268TIP3   OH225218   2.377   1.184   5.020 -0.2789 -0.1076  0.6354
 1268TIP3    H125219   2.388   1.159   4.929  1.0203  0.9926  0.4566
 1268TIP3    H225220   2.290   1.224   5.024 -0.4138 -0.3219 -0.0685
 1269TIP3   OH225221   1.613   1.660  15.985 -0.0834  0.3530 -0.0016
 1269TIP3    H125222   1.527   1.646  15.944 -0.0612 -1.0812  0.3804
 1269TIP3    H225223   1.614   1.753  16.006 -2.0711  0.1812  1.1273
 1270TIP3   OH225224   4.075   4.779  12.756 -0.6609 -0.1067 -0.1837
 1270TIP3    H125225   4.140   4.765  12.687 -2.0657  0.1562 -1.6313
 1270TIP3    H225226   4.019   4.702  12.754 -0.1401 -0.5655  1.3882
 1271TIP3   OH225227   3.031   1.611  11.686 -0.3500  0.1136  0.1060
 1271TIP3    H125228   3.097   1.676  11.659 -0.8855  0.2314 -0.9910
 1271TIP3    H225229   2.983   1.654  11.756  1.2534 -0.2904  1.5203
 1272TIP3   OH225230   1.935   6.689  11.251  0.6165 -0.2383  0.5100
 1272TIP3    H125231   1.989   6.765  11.229 -0.9453  0.7648 -0.0550
 1272TIP3    H225232   1.848   6.726  11.267 -0.1393 -1.8994  0.4256
 1273TIP3   OH225233   3.998   0.654  15.324  0.9642 -0.0804 -0.4416
 1273TIP3    H125234   4.032   0.632  15.410  1.3915 -2.3962 -1.1160
 1273TIP3    H225235   4.042   0.593  15.265 -0.8946 -0.0181 -1.9931
 1274TIP3   OH225236   5.967   3.224  15.079  0.8938  0.4742 -0.7726
 1274TIP3    H125237   5.972   3.316  15.051  0.4556  0.0973 -2.1532
 1274TIP3    H225238   6.044   3.183  15.040  0.1246 -0.1213 -1.7064
 1275TIP3   OH225239   4.464   4.634  15.483 -0.0497 -0.4397  0.2969
 1275TIP3    H125240   4.419   4.655  15.401 -0.5292 -0.2122  0.6122
 1275TIP3    H225241   4.393   4.612  15.543  0.3464 -1.3115  0.4493
 1276TIP3   OH225242   1.570   6.438  14.586  0.4997  0.5156  0.3514
 1276TIP3    H125243   1.503   6.413  14.650  0.3980 -1.0846 -0.3470
 1276TIP3    H225244   1.630   6.494  14.636  0.3066 -0.5122  1.8009
 1277TIP3   OH225245   2.738   4.110  16.824 -0.4588  0.1397  0.4207
 1277TIP3    H125246   2.722   4.167  16.749  0.3637 -2.9873 -2.3868
 1277TIP3    H225247   2.654   4.103  16.868 -1.5683  0.3878 -1.5410
 1278TIP3   OH225248   5.820   1.692   2.988 -0.2802  0.0216 -0.2798
 1278TIP3    H125249   5.793   1.783   2.974  0.0405  0.2266  0.4228
 1278TIP3    H225250   5.909   1.688   2.954  0.8653  0.7602  2.3978
 1279TIP3   OH225251   5.657   5.372   0.256 -0.2918 -0.0977 -0.1045
 1279TIP3    H125252   5.690   5.455   0.223 -0.5061  0.4541  1.0278
 1279TIP3    H225253   5.644   5.387   0.350  0.9275 -1.8041  0.3896
 1280TIP3   OH225254   4.620   6.187  14.578  0.6512  0.7033  0.1521
 1280TIP3    H125255   4.622   6.196  14.673  0.5407  0.5323  0.1698
 1280TIP3    H225256   4.629   6.093  14.562 -0.2573  0.6237  0.0279
 1281TIP3   OH225257   3.411   4.270   1.199 -0.3273 -0.1493 -0.0368
 1281TIP3    H125258   3.409   4.272   1.294 -0.6397  0.7218 -0.0520
 1281TIP3    H225259   3.489   4.320   1.175 -0.4078 -0.1151 -0.2348
 1282TIP3   OH225260   4.230   1.117   3.417 -0.2395 -0.2492  0.0335
 1282TIP3    H125261   4.165   1.135   3.350 -0.8391 -2.2235  0.0094
 1282TIP3    H225262   4.187   1.139   3.499 -1.0717 -1.7151  0.0314
 1283TIP3   OH225263   5.860   0.627   5.063  0.0468 -0.1842 -0.5302
 1283TIP3    H125264   5.857   0.597   5.154  0.2059  2.1033  0.3101
 1283TIP3    H225265   5.901   0.555   5.015  1.0185 -1.0079  1.4057
 1284TIP3   OH225266   5.279   6.732   2.247 -0.4455 -0.3804 -0.1848
 1284TIP3    H125267   5.228   6.658   2.215 -1.0805  0.7745 -1.9712
 1284TIP3    H225268   5.216   6.804   2.255  0.5528  0.5763 -0.6605
 1285TIP3   OH225269   2.245   6.717   6.293  0.2464 -0.2679  0.1867
 1285TIP3    H125270   2.318   6.657   6.302 -0.5308 -0.9397  3.4340
 1285TIP3    H225271   2.236   6.758   6.379 -1.2438  2.1725 -0.9984
 1286TIP3   OH225272   1.048   4.446  11.419  0.4075 -0.2499 -0.0032
 1286TIP3    H125273   1.117   4.427  11.482 -0.6306 -1.3786  0.8463
 1286TIP3    H225274   1.058   4.539  11.399  2.6957 -0.5685 -0.5944
 1287TIP3   OH225275   3.958   1.213  15.720 -0.5244  0.6753 -0.3816
 1287TIP3    H125276   3.893   1.223  15.651 -2.1440  0.0830  0.9760
 1287TIP3    H225277   3.974   1.301  15.752 -1.3317  0.7417 -0.1531
 1288TIP3   OH225278   0.200   5.469  11.277  0.5612 -0.2601 -0.6463
 1288TIP3    H125279   0.158   5.489  11.193 -1.5375 -0.5500  0.2730
 1288TIP3    H225280   0.204   5.553  11.322 -2.8650 -0.7016  0.8451
 1289TIP3   OH225281   6.366   4.399   0.272  0.0258  0.5396  0.0417
 1289TIP3    H125282   6.404   4.382   0.186 -0.5309 -0.8183  0.0429
 1289TIP3    H225283   6.346   4.312   0.307  0.4303  1.0494  1.6348
 1290TIP3   OH225284   5.585   0.901  11.394 -0.2902  0.1170  0.3124
 1290TIP3    H125285   5.497   0.865  11.408 -0.2425  0.1545  0.7355
 1290TIP3    H225286   5.595   0.903  11.299 -0.7384  0.0908  0.2600
 1291TIP3   OH225287   4.542   0.656  17.172 -0.0242 -0.3999 -0.2475
 1291TIP3    H125288   4.493   0.574  17.180 -2.1781  0.7249 -0.9186
 1291TIP3    H225289   4.527   0.701  17.255  2.1818 -1.1256  0.6236
 1292TIP3   OH225290   5.919   5.930  16.219 -0.0498  0.5762  0.3747
 1292TIP3    H125291   5.825   5.945  16.227 -0.7269 -1.7561 -1.8612
 1292TIP3    H225292   5.936   5.937  16.125  2.0510  0.9039  0.7269
 1293TIP3   OH225293   4.142   1.335  10.720 -0.0582  0.2591 -0.7959
 1293TIP3    H125294   4.073   1.381  10.672 -0.6700  1.2402  0.9270
 1293TIP3    H225295   4.223   1.378  10.693 -0.1835 -0.2441 -2.0779
 1294TIP3   OH225296   2.989   0.365  16.645  0.6161  0.0758 -0.4353
 1294TIP3    H125297   3.067   0.408  16.682 -0.2608  2.9376 -1.6361
 1294TIP3    H225298   3.017   0.332  16.560  1.3051 -1.9065  0.5068
 1295TIP3   OH225299   6.291   0.294  12.952 -0.2269 -0.2621  0.0561
 1295TIP3    H125300   6.205   0.254  12.944 -0.9884  1.2011  0.6172
 1295TIP3    H225301   6.283   0.377  12.906  0.5371  0.3953  1.0690
 1296TIP3   OH225302   3.861   0.968   3.163  0.1090 -0.1562 -0.4998
 1296TIP3    H125303   3.935   0.919   3.200  0.4556 -0.3574 -1.4184
 1296TIP3    H225304   3.810   0.902   3.115 -0.7414 -0.0411  0.2307
 1297TIP3   OH225305   4.502   4.737   6.359  0.3068  0.8335 -0.2947
 1297TIP3    H125306   4.473   4.674   6.293  1.2937 -0.4414  0.4460
 1297TIP3    H225307   4.593   4.755   6.337  0.2593  1.4332 -0.0386
 1298TIP3   OH225308   4.093   5.111  12.483  0.2504 -0.2886 -0.0668
 1298TIP3    H125309   4.050   5.179  12.431 -0.4395 -0.3212  0.4436
 1298TIP3    H225310   4.053   5.029  12.453  0.5344 -0.3954 -0.1520
 1299TIP3   OH225311   3.218   5.600   0.850 -0.1712  0.0920  0.0708
 1299TIP3    H125312   3.266   5.526   0.815 -1.4667 -2.3346  2.9362
 1299TIP3    H225313   3.140   5.607   0.794 -0.6461 -1.5829  0.4699
 1300TIP3   OH225314   2.735   2.153  14.486 -0.2298  0.9582  0.6509
 1300TIP3    H125315   2.805   2.134  14.423 -0.5429  1.3367  0.1883
 1300TIP3    H225316   2.778   2.207  14.552 -0.0337  1.0151  0.4791
 1301TIP3   OH225317   1.079   5.382   5.495 -0.4162  0.1219  0.1894
 1301TIP3    H125318   1.171   5.394   5.515 -0.5603  3.0632 -0.4395
 1301TIP3    H225319   1.077   5.365   5.400 -0.5345  0.1714  0.1824
 1302TIP3   OH225320   1.692   3.434  15.975  0.2911 -0.1044 -0.2563
 1302TIP3    H125321   1.639   3.504  16.012 -1.0456 -2.5872  3.0110
 1302TIP3    H225322   1.782   3.462  15.988 -0.0025  2.8154 -3.1057
 1303TIP3   OH225323   3.722   0.510   3.542 -0.0206 -0.1645  0.0107
 1303TIP3    H125324   3.737   0.468   3.458 -1.5463 -1.6361  0.4271
 1303TIP3    H225325   3.806   0.551   3.564  1.4793 -2.7466 -0.5726
 1304TIP3   OH225326   2.114   1.195   1.707  0.3843  0.4279  0.8722
 1304TIP3    H125327   2.157   1.274   1.674 -1.6769  1.7404  1.1899
 1304TIP3    H225328   2.038   1.184   1.650 -1.5948  1.0417  3.2751
 1305TIP3   OH225329   1.493   3.512   2.198 -0.1632 -0.2572  0.5256
 1305TIP3    H125330   1.585   3.511   2.172  0.4518 -0.3117  2.5423
 1305TIP3    H225331   1.457   3.431   2.162  1.0421 -1.1339  1.2311
 1306TIP3   OH225332   3.770   3.311   1.049  0.0880 -0.2649 -0.0472
 1306TIP3    H125333   3.689   3.363   1.044  0.7792  0.7596 -1.2844
 1306TIP3    H225334   3.740   3.220   1.057 -1.1929  0.0791 -0.6794
 1307TIP3   OH225335   2.544   6.453   2.697  0.1063 -0.4061  0.1584
 1307TIP3    H125336   2.526   6.452   2.791  1.3510  0.6559  0.4344
 1307TIP3    H225337   2.605   6.381   2.683 -0.0262 -0.5207  0.1584
 1308TIP3   OH225338   5.094   2.211   3.528 -0.3277  0.1051  0.5010
 1308TIP3    H125339   4.999   2.209   3.522 -0.3543  0.8593  0.6251
 1308TIP3    H225340   5.121   2.283   3.471  0.2405 -0.7249 -0.3019
 1309TIP3   OH225341   0.465   2.842  14.315  0.2257 -0.0156 -0.3838
 1309TIP3    H125342   0.539   2.806  14.267 -0.3391 -0.9537 -0.5614
 1309TIP3    H225343   0.501   2.862  14.402  1.0476  0.9530 -0.9175
 1310TIP3   OH225344   3.752   0.824  17.038  0.3484  0.0397  0.4148
 1310TIP3    H125345   3.691   0.862  17.102 -1.0728  0.7760 -1.2836
 1310TIP3    H225346   3.695   0.779  16.975  1.4799  1.1914 -1.5388
 1311TIP3   OH225347   5.981   5.243   4.379 -0.6694 -0.0187 -0.0894
 1311TIP3    H125348   6.044   5.270   4.312 -1.2010 -0.8776 -0.9689
 1311TIP3    H225349   5.905   5.299   4.364 -0.3923  0.5375  0.5205
 1312TIP3   OH225350   2.028   1.547  15.418 -0.7802  0.3035  0.2491
 1312TIP3    H125351   2.006   1.468  15.468 -1.4667  0.5329  0.3173
 1312TIP3    H225352   2.021   1.618  15.482 -0.0780  0.4149  0.2106
 1313TIP3   OH225353   4.257   2.705  11.460 -0.2476  0.9364  0.3147
 1313TIP3    H125354   4.323   2.768  11.489 -0.7847  1.2739  0.8220
 1313TIP3    H225355   4.179   2.758  11.443  0.1575  0.8563 -2.2922
 1314TIP3   OH225356   5.860   3.569   3.011 -0.2549  0.3682  0.2802
 1314TIP3    H125357   5.842   3.624   2.934 -0.4944 -0.2688 -0.1289
 1314TIP3    H225358   5.781   3.576   3.064  0.0336  1.0591  0.6274
 1315TIP3   OH225359   3.119   5.348   4.279 -0.1361 -0.1817  0.4061
 1315TIP3    H125360   3.111   5.252   4.282  1.4892 -0.3853 -0.7163
 1315TIP3    H225361   3.210   5.365   4.302 -0.3718  1.1077  0.4536
 1316TIP3   OH225362   6.375   2.085  15.408  0.2389 -0.1967 -0.0387
 1316TIP3    H125363   6.339   2.103  15.495 -0.5457  0.5650 -0.5037
 1316TIP3    H225364   6.466   2.115  15.413  0.1755 -0.0806  0.4873
 1317TIP3   OH225365   3.186   4.616  17.092 -0.1938 -0.2961  0.6898
 1317TIP3    H125366   3.193   4.677  17.018 -0.0021 -0.5889  0.4617
 1317TIP3    H225367   3.156   4.669  17.165  0.7072  0.2162  0.6886
 1318TIP3   OH225368   5.546   2.368  13.660  0.1545  0.1994  0.1759
 1318TIP3    H125369   5.504   2.297  13.610 -0.7351  0.9284 -0.1483
 1318TIP3    H225370   5.638   2.343  13.664 -0.0949 -0.8441 -0.1587
 1319TIP3   OH225371   5.579   4.503   5.745  0.1180 -0.4190  0.7539
 1319TIP3    H125372   5.639   4.578   5.749  0.2798 -0.5261  0.4002
 1319TIP3    H225373   5.580   4.467   5.834 -1.0736  0.8435  1.3151
 1320TIP3   OH225374   5.128   2.272  11.725  0.0875 -0.3090 -0.0406
 1320TIP3    H125375   5.169   2.234  11.802 -0.2576  1.2543  0.9649
 1320TIP3    H225376   5.191   2.258  11.654 -0.3664 -3.3950  0.0426
 1321TIP3   OH225377   1.791   1.900  13.701 -0.2750  0.3611  0.4537
 1321TIP3    H125378   1.709   1.918  13.656  1.0989  0.9179 -2.0795
 1321TIP3    H225379   1.803   1.806  13.693  0.0886  0.4837 -0.7422
 1322TIP3   OH225380   3.110   1.061   3.853  0.2615  0.0781  0.4781
 1322TIP3    H125381   3.158   0.978   3.842 -0.3936 -0.2247 -0.1778
 1322TIP3    H225382   3.117   1.104   3.768 -2.1725 -0.8306 -0.2691
 1323TIP3   OH225383   5.692   3.255  15.178 -0.0716  0.1570  0.1934
 1323TIP3    H125384   5.712   3.292  15.264  2.1870 -0.5409  0.0572
 1323TIP3    H225385   5.765   3.284  15.123 -0.8982 -0.3388 -1.2094
 1324TIP3   OH225386   3.642   0.351   0.103 -0.6788 -0.2922 -0.0238
 1324TIP3    H125387   3.641   0.401   0.022 -0.1984 -0.2075  0.0193
 1324TIP3    H225388   3.593   0.405   0.165  0.8050  0.6876  0.3403
 1325TIP3   OH225389   4.996   5.196   0.625 -0.4686  0.2767  0.0487
 1325TIP3    H125390   5.002   5.260   0.696  0.5210 -0.8407  1.0218
 1325TIP3    H225391   5.087   5.172   0.606 -0.8411 -1.9170  0.7555
 1326TIP3   OH225392   3.686   4.498   2.419  0.3308  0.1768  0.3417
 1326TIP3    H125393   3.658   4.463   2.335  0.1106  0.2476  0.3843
 1326TIP3    H225394   3.776   4.528   2.405  0.3043  0.1595  0.1414
 1327TIP3   OH225395   5.333   1.710   6.318 -0.3717  0.3436 -0.0909
 1327TIP3    H125396   5.298   1.621   6.314  0.2753  0.0365  0.8678
 1327TIP3    H225397   5.382   1.714   6.400 -0.0133  1.4488 -0.3333
 1328TIP3   OH225398   1.122   3.062  16.155  0.0086  0.2088  0.1673
 1328TIP3    H125399   1.094   3.145  16.117  0.3768  0.7742  1.0845
 1328TIP3    H225400   1.059   2.998  16.123 -2.1426  1.3568  1.8241
 1329TIP3   OH225401   2.390   5.183  17.125 -0.0755  0.1181 -0.1695
 1329TIP3    H125402   2.332   5.259  17.112 -0.6564 -0.1227  0.8421
 1329TIP3    H225403   2.437   5.174  17.043 -1.5523  0.2712 -1.0731
 1330TIP3   OH225404   4.167   4.487  11.954 -0.1924  0.0707 -0.6730
 1330TIP3    H125405   4.104   4.509  11.886  0.8270  0.7071 -1.4392
 1330TIP3    H225406   4.252   4.511  11.917  0.5468 -1.0709  0.1910
 1331TIP3   OH225407   5.867   2.129  14.015  0.0778 -0.4974 -0.3116
 1331TIP3    H125408   5.924   2.191  13.970 -0.5544 -0.0989 -0.5822
 1331TIP3    H225409   5.927   2.069  14.059  0.7019 -0.0729 -0.5635
 1332TIP3   OH225410   0.319   2.174   5.414  0.0300 -0.2155 -0.1768
 1332TIP3    H125411   0.343   2.158   5.323  0.9799 -0.6060  0.1292
 1332TIP3    H225412   0.288   2.089   5.446 -0.8826  0.0663 -0.3051
 1333TIP3   OH225413   0.244   6.636   2.302  0.1589 -0.8117 -0.2714
 1333TIP3    H125414   0.186   6.706   2.331  0.2803 -1.3916  1.4338
 1333TIP3    H225415   0.289   6.607   2.381 -1.4010 -4.2292 -0.4712
 1334TIP3   OH225416   3.675   0.888   3.536  0.1160  0.1784 -0.5769
 1334TIP3    H125417   3.684   0.912   3.628  0.3857  0.5238 -0.6900
 1334TIP3    H225418   3.624   0.959   3.497  1.5471  0.9780 -1.0681
 1335TIP3   OH225419   5.626   5.116   0.453  0.3769 -0.1337 -0.3244
 1335TIP3    H125420   5.561   5.135   0.385 -0.6671 -0.6061  0.5244
 1335TIP3    H225421   5.580   5.128   0.535  1.5834  0.2534  0.3160
 1336TIP3   OH225422   5.106   1.779  11.332  0.5492 -0.3463 -0.3649
 1336TIP3    H125423   5.180   1.754  11.277  0.9060  0.2035 -0.1429
 1336TIP3    H225424   5.110   1.875  11.335 -1.1985 -0.1766 -1.7975
 1337TIP3   OH225425   0.253   5.160  13.150  0.5651 -0.2087  0.2745
 1337TIP3    H125426   0.162   5.130  13.151  0.6720 -0.5295  0.7865
 1337TIP3    H225427   0.302   5.086  13.114  0.6642 -0.1505  0.2913
 1338TIP3   OH225428   1.086   3.811   5.397 -0.3110 -0.1697  0.7915
 1338TIP3    H125429   1.017   3.744   5.387 -0.5354  0.1152  0.4430
 1338TIP3    H225430   1.141   3.777   5.468 -1.3349  0.0382  1.7156
 1339TIP3   OH225431   3.644   0.683  12.910  0.0528  0.2335 -0.1213
 1339TIP3    H125432   3.652   0.678  12.815 -0.5094  0.5985 -0.1959
 1339TIP3    H225433   3.706   0.619  12.943 -1.3383 -1.5627 -0.7935
 1340TIP3   OH225434   5.176   0.483   2.926  0.0464 -0.2153 -0.3074
 1340TIP3    H125435   5.092   0.502   2.884 -0.2381 -1.3086 -0.2590
 1340TIP3    H225436   5.242   0.505   2.859 -0.3181 -0.1975 -0.6639
 1341TIP3   OH225437   4.723   4.916   6.817 -0.1757 -0.4452 -0.1029
 1341TIP3    H125438   4.796   4.858   6.838 -0.2905 -0.7275 -0.4695
 1341TIP3    H225439   4.684   4.878   6.738 -1.2299 -0.7747  0.5530
 1342TIP3   OH225440   5.432   2.138  12.711 -0.4681  0.1406  0.2115
 1342TIP3    H125441   5.493   2.080  12.665 -0.8356  1.2268 -1.7883
 1342TIP3    H225442   5.350   2.127  12.663 -0.8133  1.4971  0.4605
 1343TIP3   OH225443   5.110   2.848  14.792  0.6341 -0.0637  0.7579
 1343TIP3    H125444   5.028   2.896  14.790  1.0525  0.7503  1.9695
 1343TIP3    H225445   5.131   2.832  14.700 -1.0038 -0.5342  0.4394
 1344TIP3   OH225446   1.491   1.374  16.659 -0.0886 -0.1828  0.3783
 1344TIP3    H125447   1.514   1.293  16.705 -0.2953  0.0763  0.9427
 1344TIP3    H225448   1.565   1.432  16.674 -0.5437  0.2161  1.1526
 1345TIP3   OH225449   3.323   4.788   5.991  0.5693 -0.2218  0.2408
 1345TIP3    H125450   3.404   4.801   6.041 -0.2849 -0.5117  1.7865
 1345TIP3    H225451   3.253   4.795   6.057 -0.6807  0.1787 -1.0754
 1346TIP3   OH225452   5.702   3.386  13.849  0.0334  0.4263  0.1901
 1346TIP3    H125453   5.639   3.458  13.848 -1.9331 -1.1816 -1.2015
 1346TIP3    H225454   5.671   3.327  13.779  1.2327 -2.0122  1.5974
 1347TIP3   OH225455   5.876   0.755  14.733 -0.4198  0.7303 -0.0404
 1347TIP3    H125456   5.815   0.804  14.677  1.3503  0.7078 -2.1558
 1347TIP3    H225457   5.963   0.782  14.702  0.6352 -1.3338  0.9242
 1348TIP3   OH225458   3.856   0.168  16.016 -1.2243 -0.0150 -0.3836
 1348TIP3    H125459   3.849   0.253  15.972  1.3766  0.5522  0.1122
 1348TIP3    H225460   3.766   0.142  16.033 -2.1214  2.9867  0.0789
 1349TIP3   OH225461   4.800   0.989   0.053  0.2048 -0.4702  0.0042
 1349TIP3    H125462   4.717   1.002   0.006  0.0634  0.7055  0.5433
 1349TIP3    H225463   4.776   1.000   0.145  1.0492  0.3231  0.1309
 1350TIP3   OH225464   3.299   5.645   3.630  0.5241  0.0541  0.4013
 1350TIP3    H125465   3.356   5.649   3.553  0.1561 -2.1076 -0.0384
 1350TIP3    H225466   3.352   5.680   3.701  1.4309  0.6150 -0.5289
 1351TIP3   OH225467   5.128   6.549   4.775 -0.4383  0.7498 -0.6114
 1351TIP3    H125468   5.167   6.479   4.826 -1.5226  0.2923 -0.3855
 1351TIP3    H225469   5.041   6.561   4.813 -1.0960  0.7275 -2.0352
 1352TIP3   OH225470   0.583   4.622  15.712  0.3985  0.2951 -0.4158
 1352TIP3    H125471   0.493   4.651  15.695  0.5367  0.8898 -0.1687
 1352TIP3    H225472   0.633   4.704  15.719  0.5925  0.0506  1.4695
 1353TIP3   OH225473   0.787   0.787  16.668  0.7366 -0.1504 -0.3849
 1353TIP3    H125474   0.849   0.834  16.724 -0.4174 -1.9710  2.6257
 1353TIP3    H225475   0.706   0.836  16.675 -0.0006 -1.4979  1.4124
 1354TIP3   OH225476   5.986   4.642  13.634 -0.3617  0.2145  0.6889
 1354TIP3    H125477   6.078   4.656  13.656  0.4379  1.3052 -2.6977
 1354TIP3    H225478   5.946   4.729  13.639 -0.8360  0.0005  0.6961
 1355TIP3   OH225479   3.502   2.371   3.101 -0.8029 -1.1457  0.2063
 1355TIP3    H125480   3.534   2.309   3.167 -0.9977 -0.3478  1.0767
 1355TIP3    H225481   3.407   2.357   3.098 -0.6039 -2.4985 -1.3180
 1356TIP3   OH225482   5.594   5.157   0.752 -0.2761  0.5193 -0.0111
 1356TIP3    H125483   5.554   5.206   0.824  0.7712 -1.6679  2.2380
 1356TIP3    H225484   5.664   5.107   0.794 -0.1320 -1.4991 -2.4401
 1357TIP3   OH225485   3.380   2.638  15.146 -0.2521 -0.3310  0.2511
 1357TIP3    H125486   3.387   2.733  15.152 -0.4206 -0.3038  0.0216
 1357TIP3    H225487   3.443   2.605  15.211  0.3981 -0.0691 -0.2346
 1358TIP3   OH225488   6.318   1.592  14.160  0.0373  0.6668  0.1649
 1358TIP3    H125489   6.296   1.684  14.146 -1.8818  0.3242  0.5851
 1358TIP3    H225490   6.298   1.577  14.253 -1.0421 -0.4915 -0.2300
 1359TIP3   OH225491   6.369   2.693  13.568 -0.4527  0.0975  0.1930
 1359TIP3    H125492   6.296   2.642  13.533  0.7931 -1.9142  0.3861
 1359TIP3    H225493   6.401   2.643  13.642 -1.5557  3.1125  2.9690
 1360TIP3   OH225494   1.094   1.251   4.407 -0.1321  0.1809  0.5280
 1360TIP3    H125495   1.129   1.335   4.436  0.8305 -0.0944  0.1854
 1360TIP3    H225496   1.018   1.236   4.464 -1.4526  2.1509 -0.6091
 1361TIP3   OH225497   4.877   3.654  13.440 -0.4629 -0.0157 -0.3004
 1361TIP3    H125498   4.940   3.714  13.400 -1.7324  0.1244 -2.2099
 1361TIP3    H225499   4.908   3.567  13.416  0.6980 -0.1285  1.4367
 1362TIP3   OH225500   0.363   1.959  10.852 -0.2527 -0.2651  0.6902
 1362TIP3    H125501   0.429   1.926  10.791  0.5489  0.8746  0.9302
 1362TIP3    H225502   0.297   2.000  10.796 -1.0437 -1.8146  0.4160
 1363TIP3   OH225503   4.979   5.750   2.902 -0.1073  0.6660 -0.2793
 1363TIP3    H125504   5.038   5.742   2.977 -0.8667  0.5041  0.3063
 1363TIP3    H225505   4.915   5.816   2.928 -1.4142 -0.6465 -0.0852
 1364TIP3   OH225506   6.237   2.364  14.656 -0.0850  0.2799  0.3946
 1364TIP3    H125507   6.141   2.365  14.658 -0.1361  2.9907  0.0374
 1364TIP3    H225508   6.263   2.425  14.724  1.4972 -1.5599  1.5403
 1365TIP3   OH225509   5.131   0.147   3.558  0.1676 -0.8627  0.5515
 1365TIP3    H125510   5.190   0.200   3.611  1.0235 -1.3510  0.1110
 1365TIP3    H225511   5.048   0.147   3.606  0.3797  0.2299  0.9381
 1366TIP3   OH225512   1.329   5.551  11.935 -0.0771  0.1291 -0.1443
 1366TIP3    H125513   1.271   5.574  11.862 -0.7347  0.1930  0.3894
 1366TIP3    H225514   1.417   5.552  11.896 -0.4460 -0.2526 -1.0333
 1367TIP3   OH225515   3.289   6.754  13.662  0.3555 -0.3290  0.2752
 1367TIP3    H125516   3.338   6.822  13.614 -0.4149 -0.4294 -0.6955
 1367TIP3    H225517   3.275   6.685  13.597  0.6826 -1.1992  1.1102
 1368TIP3   OH225518   0.682   0.134   6.606  0.1286  0.1845  0.3051
 1368TIP3    H125519   0.703   0.048   6.642  1.4647  1.2058  2.1993
 1368TIP3    H225520   0.597   0.156   6.645 -0.3226 -0.3498 -0.3607
 1369TIP3   OH225521   0.666   2.724   0.802  0.0236  0.3938 -0.0008
 1369TIP3    H125522   0.617   2.757   0.726  0.3494  0.3694 -0.2263
 1369TIP3    H225523   0.608   2.661   0.844 -0.2708  0.6212 -0.0655
 1370TIP3   OH225524   3.452   4.703   5.058 -0.3053 -0.3982 -0.3005
 1370TIP3    H125525   3.409   4.778   5.098  0.2950 -0.2925  0.1510
 1370TIP3    H225526   3.416   4.627   5.105  0.7563 -0.2453  0.7945
 1371TIP3   OH225527   3.670   3.371   6.020 -0.2176 -0.4190  0.0396
 1371TIP3    H125528   3.705   3.454   6.052 -0.4627 -0.2432 -0.1469
 1371TIP3    H225529   3.675   3.312   6.096  1.3179 -0.6649 -0.2259
 1372TIP3   OH225530   5.683   4.668   2.934 -0.0351 -0.2682  0.4484
 1372TIP3    H125531   5.765   4.627   2.907  0.6659  0.5232  1.3123
 1372TIP3    H225532   5.656   4.618   3.011  0.8480  0.8729  1.5351
 1373TIP3   OH225533   3.456   0.764  13.107 -0.3664  0.5518  0.3568
 1373TIP3    H125534   3.499   0.768  13.021 -0.3793  1.9068  0.4050
 1373TIP3    H225535   3.393   0.836  13.106 -1.1670 -0.1244  1.0878
 1374TIP3   OH225536   3.327   1.077   5.613  0.4627  0.3579  0.1168
 1374TIP3    H125537   3.345   1.156   5.563  1.3347  1.5600  2.2270
 1374TIP3    H225538   3.234   1.083   5.635  0.3988  0.5092 -0.1924
 1375TIP3   OH225539   0.181   3.846   5.018  0.0090 -0.2358 -0.0160
 1375TIP3    H125540   0.221   3.927   5.049 -1.3825 -0.0899  1.6140
 1375TIP3    H225541   0.120   3.873   4.950  0.0089  0.0249  0.0871
 1376TIP3   OH225542   4.636   3.915   3.486  0.4444  0.2267  0.3913
 1376TIP3    H125543   4.632   3.996   3.537 -0.3725 -1.4247  3.1695
 1376TIP3    H225544   4.701   3.933   3.418  1.6361  2.6119  2.0062
 1377TIP3   OH225545   5.846   4.026  16.130 -0.0401 -0.3572  0.2875
 1377TIP3    H125546   5.777   4.089  16.109 -0.9113 -0.9403  1.3250
 1377TIP3    H225547   5.858   4.034  16.224  0.5444 -1.0440  0.2804
 1378TIP3   OH225548   4.794   1.971   5.805 -0.2140  0.0292 -0.3219
 1378TIP3    H125549   4.816   1.980   5.897  1.6825 -2.5886 -0.3995
 1378TIP3    H225550   4.875   1.995   5.759 -0.8875  0.5228 -1.2868
 1379TIP3   OH225551   3.313   5.967   2.149 -0.0599 -0.5440  0.3644
 1379TIP3    H125552   3.337   5.881   2.115 -0.0043 -0.0638 -0.8582
 1379TIP3    H225553   3.244   5.997   2.091 -0.0075  0.2788  0.7163
 1380TIP3   OH225554   3.799   5.588   3.275  0.6844  0.5094 -0.2036
 1380TIP3    H125555   3.887   5.625   3.264  0.6980  0.4601 -0.2634
 1380TIP3    H225556   3.746   5.632   3.209  0.5089  1.0326  0.2798
 1381TIP3   OH225557   6.091   2.687   4.411 -0.1606  0.4199 -0.3245
 1381TIP3    H125558   6.073   2.774   4.375  1.3230  1.2929  0.9391
 1381TIP3    H225559   6.016   2.634   4.383 -0.7673  1.9109 -1.6953
 1382TIP3   OH225560   2.443   6.148   3.013 -0.0693 -0.5266  0.1921
 1382TIP3    H125561   2.429   6.168   2.921  1.1045 -1.6123 -0.2490
 1382TIP3    H225562   2.391   6.213   3.060  0.2337  0.7794 -1.2105
 1383TIP3   OH225563   0.435   2.200   2.834 -0.0799  0.0886  0.2205
 1383TIP3    H125564   0.398   2.130   2.888 -1.3481 -0.4050 -1.2081
 1383TIP3    H225565   0.474   2.261   2.897  0.3761 -1.4974  1.5414
 1384TIP3   OH225566   1.837   0.957   2.295  0.1338 -0.9683 -0.1043
 1384TIP3    H125567   1.879   0.979   2.212 -0.8140 -0.1289 -0.3760
 1384TIP3    H225568   1.891   0.999   2.362 -1.2617  1.7917 -0.5619
 1385TIP3   OH225569   2.802   4.982   6.821 -0.2744 -0.1080  0.5817
 1385TIP3    H125570   2.727   5.034   6.851  0.1565  0.0745  1.3551
 1385TIP3    H225571   2.875   5.012   6.874  0.2863 -0.5096  0.0471
 1386TIP3   OH225572   1.166   6.766  11.421 -0.1620 -0.3051  0.0597
 1386TIP3    H125573   1.223   6.697  11.387 -0.6953 -0.0129 -1.4665
 1386TIP3    H225574   1.156   6.828  11.349 -4.2169 -1.4542 -0.6098
 1387TIP3   OH225575   4.580   5.223   7.080 -0.9133  0.4123  0.1768
 1387TIP3    H125576   4.656   5.238   7.136 -0.6744  0.5122 -0.1722
 1387TIP3    H225577   4.570   5.128   7.079 -2.3949  0.4778  2.3439
 1388TIP3   OH225578   1.626   1.474  14.421 -0.2975 -0.1518  0.0465
 1388TIP3    H125579   1.569   1.523  14.362 -2.3705 -1.7792  0.5569
 1388TIP3    H225580   1.663   1.404  14.367 -0.0748 -0.0521  0.0704
 1389TIP3   OH225581   6.544   2.072  16.203  0.5554 -0.1188 -0.0734
 1389TIP3    H125582   6.468   2.117  16.166  2.1353  1.0264 -2.1223
 1389TIP3    H225583   6.565   2.005  16.139  2.1570  0.5736 -0.3120
 1390TIP3   OH225584   6.198   2.666   3.927  0.2508  0.3085  0.3620
 1390TIP3    H125585   6.116   2.704   3.897 -0.4490 -1.8280 -0.6934
 1390TIP3    H225586   6.176   2.574   3.946  1.9160  0.2227  2.2152
 1391TIP3   OH225587   5.054   4.915  11.199 -0.1126 -0.4040  0.8872
 1391TIP3    H125588   5.051   4.831  11.153  0.8687  0.7039 -1.3322
 1391TIP3    H225589   5.145   4.923  11.228  0.5533  1.0677 -1.3816
 1392TIP3   OH225590   1.780   5.178  11.623 -0.3072 -0.0370  0.1633
 1392TIP3    H125591   1.739   5.231  11.555 -0.3235  0.2324  0.3846
 1392TIP3    H225592   1.844   5.124  11.576 -0.9710 -0.5256 -0.1996
 1393TIP3   OH225593   0.278   1.560  13.423  0.5473 -0.5672 -0.2355
 1393TIP3    H125594   0.259   1.521  13.509  0.5221  0.8586  0.4282
 1393TIP3    H225595   0.356   1.613  13.438 -0.5582  1.2405 -0.6049
 1394TIP3   OH225596   0.199   2.796   2.226 -0.2254 -0.0526  0.2562
 1394TIP3    H125597   0.293   2.786   2.215 -0.4941 -2.3433 -0.6162
 1394TIP3    H225598   0.170   2.837   2.145  0.0004  0.5853  0.4939
 1395TIP3   OH225599   0.023   2.436  11.820 -0.6215 -0.2585  0.0174
 1395TIP3    H125600   0.010   2.512  11.764 -1.3623  0.5330  1.2223
 1395TIP3    H225601   0.086   2.382  11.772 -1.4697  0.2084 -1.7238
 1396TIP3   OH225602   1.894   3.897   3.181  0.1721 -0.4130 -0.0815
 1396TIP3    H125603   1.983   3.882   3.212  0.7830 -0.5464 -1.8271
 1396TIP3    H225604   1.841   3.897   3.261  1.6535 -0.8071  0.9440
 1397TIP3   OH225605   4.066   6.311  15.376  0.1821  0.1667  0.6348
 1397TIP3    H125606   4.129   6.381  15.395  1.0358 -0.1749 -0.7958
 1397TIP3    H225607   3.987   6.356  15.347  1.0424  0.5692 -1.2221
 1398TIP3   OH225608   4.149   3.073   1.077 -0.2524 -1.1135 -0.0562
 1398TIP3    H125609   4.220   3.061   1.013 -0.1378  0.4658 -0.2627
 1398TIP3    H225610   4.076   3.024   1.041  0.5270 -2.2323 -0.1719
 1399TIP3   OH225611   3.946   0.804   3.491 -0.2998  0.4753  0.4346
 1399TIP3    H125612   3.858   0.832   3.466 -0.4649  0.4758  1.0004
 1399TIP3    H225613   3.951   0.822   3.585  0.4868  0.9474  0.3046
 1400TIP3   OH225614   0.345   0.401  11.533  0.6016 -0.2080  0.5976
 1400TIP3    H125615   0.320   0.337  11.467 -1.2423  0.7511  0.2802
 1400TIP3    H225616   0.371   0.479  11.483 -0.2580  0.3305  0.9566
 1401TIP3   OH225617   3.565   3.011  12.134  0.3205  0.5872 -0.8239
 1401TIP3    H125618   3.644   3.043  12.177 -0.3407  1.7153 -0.4140
 1401TIP3    H225619   3.552   3.071  12.060  0.5583 -0.3706 -1.6581
 1402TIP3   OH225620   5.098   0.035   0.971  0.1202  0.4479 -0.9316
 1402TIP3    H125621   5.146  -0.047   0.962  0.3447  0.3790  0.6400
 1402TIP3    H225622   5.161   0.103   0.950  0.6104  0.3143  0.1028
 1403TIP3   OH225623   1.056   5.904  14.534  0.0524  0.5389 -0.1521
 1403TIP3    H125624   1.015   5.940  14.612  0.0484 -0.9334  0.5623
 1403TIP3    H225625   1.023   5.959  14.462 -1.4370  0.7575  0.6513
 1404TIP3   OH225626   4.783   5.965  16.893  0.4566  0.1169 -0.3460
 1404TIP3    H125627   4.711   5.910  16.925  0.3255  0.3769 -0.1938
 1404TIP3    H225628   4.741   6.047  16.867  0.5379 -0.1360 -1.3345
 1405TIP3   OH225629   4.740   5.191  11.910 -0.0438  0.1522 -0.7953
 1405TIP3    H125630   4.795   5.242  11.852 -0.4042  0.2543 -1.0467
 1405TIP3    H225631   4.745   5.237  11.994  0.5992 -0.0826 -0.6985
 1406TIP3   OH225632   3.643   1.055   0.769 -0.4641 -0.3204  0.0479
 1406TIP3    H125633   3.613   1.143   0.747  2.2831  1.2056  1.7258
 1406TIP3    H225634   3.719   1.040   0.712 -0.0849 -1.0297  0.7119
 1407TIP3   OH225635   5.635   3.291   2.251 -0.1823 -0.2803  0.0115
 1407TIP3    H125636   5.582   3.355   2.203 -0.9687 -0.4567  0.6152
 1407TIP3    H225637   5.619   3.208   2.206 -0.6435 -0.3827  0.3581
 1408TIP3   OH225638   1.071   1.487   6.138  0.3587 -0.5874 -0.4468
 1408TIP3    H125639   1.003   1.445   6.086 -1.9919 -0.3716  2.1530
 1408TIP3    H225640   1.051   1.581   6.132  0.7162 -0.4826 -0.0779
 1409TIP3   OH225641   1.369   1.211  10.820  0.4036 -0.5791 -0.3834
 1409TIP3    H125642   1.335   1.123  10.806  0.9474 -0.5648 -1.9286
 1409TIP3    H225643   1.362   1.254  10.735 -1.1294  1.3557  0.6254
 1410TIP3   OH225644   5.273   1.382  11.393  0.1710  0.1425  0.3320
 1410TIP3    H125645   5.243   1.472  11.411  0.6329 -0.0424  2.2976
 1410TIP3    H225646   5.364   1.381  11.423 -0.1326 -1.2286  1.2890
 1411TIP3   OH225647   3.846   6.509  13.004  0.4831  0.3285 -0.2686
 1411TIP3    H125648   3.834   6.589  12.953  0.1315  0.7889  0.5238
 1411TIP3    H225649   3.757   6.480  13.023  0.6061  0.4090  0.4568
 1412TIP3   OH225650   5.482   6.358   1.249  0.1096 -0.0923 -0.1887
 1412TIP3    H125651   5.572   6.363   1.281  0.3767 -1.0285 -0.7691
 1412TIP3    H225652   5.450   6.273   1.280 -0.6270  0.2872  0.1306
 1413TIP3   OH225653   5.846   5.371   3.367 -0.2872 -0.2369 -0.5858
 1413TIP3    H125654   5.892   5.319   3.433  1.0721 -0.4218 -1.6505
 1413TIP3    H225655   5.821   5.309   3.300  0.7602  0.3391 -1.5448
 1414TIP3   OH225656   1.319   2.807   3.252  0.1361 -0.6724  0.0157
 1414TIP3    H125657   1.267   2.839   3.326  0.5877  1.7385 -0.6117
 1414TIP3    H225658   1.408   2.800   3.286  0.0229 -1.4251  0.1762
 1415TIP3   OH225659   2.580   2.723   4.591  0.1928 -0.3850  0.2627
 1415TIP3    H125660   2.526   2.757   4.520  0.2544 -1.3149 -0.2363
 1415TIP3    H225661   2.641   2.663   4.548 -0.5210 -1.8586  1.2319
 1416TIP3   OH225662   3.125   6.236  11.853 -0.5824  0.2463  0.2518
 1416TIP3    H125663   3.198   6.218  11.793 -0.0708  2.4805  0.1106
 1416TIP3    H225664   3.158   6.208  11.939 -0.8554 -1.8116 -0.2436
 1417TIP3   OH225665   2.798   3.441  15.995  0.3399 -0.0056  0.5540
 1417TIP3    H125666   2.848   3.523  16.000  0.7685 -0.1914 -0.4117
 1417TIP3    H225667   2.864   3.372  15.994  0.0666 -0.2684 -0.5008
 1418TIP3   OH225668   6.453   2.141   2.893 -0.4425 -0.0366  0.1424
 1418TIP3    H125669   6.359   2.158   2.887 -0.6213 -1.1578 -0.3941
 1418TIP3    H225670   6.481   2.130   2.802 -0.2320 -1.9716  0.4058
 1419TIP3   OH225671   3.394   6.238  14.571 -0.1002  0.5833  0.4083
 1419TIP3    H125672   3.334   6.239  14.645  0.2933 -1.9647  0.8401
 1419TIP3    H225673   3.339   6.258  14.495 -1.0334  0.5310  1.0626
 1420TIP3   OH225674   4.974   1.244   2.358  0.1605 -0.2027 -0.4251
 1420TIP3    H125675   5.017   1.158   2.353  0.9856  0.2661 -1.9506
 1420TIP3    H225676   4.966   1.260   2.452  0.6086 -1.6476 -0.1060
 1421TIP3   OH225677   4.621   2.001   5.110  0.3559 -0.2631  0.9624
 1421TIP3    H125678   4.634   2.070   5.045 -0.8043 -1.0853 -0.1977
 1421TIP3    H225679   4.686   2.019   5.178  0.2709  1.8058  0.5628
 1422TIP3   OH225680   1.140   2.463  13.252  0.4040 -0.0728 -0.2055
 1422TIP3    H125681   1.154   2.382  13.203  0.6024 -0.0919 -0.1216
 1422TIP3    H225682   1.226   2.505  13.253  0.3227  0.0927 -0.1685
 1423TIP3   OH225683   5.353   5.695   3.259 -0.6704  0.2427  0.4524
 1423TIP3    H125684   5.414   5.625   3.283  1.0350  0.8828 -1.6747
 1423TIP3    H225685   5.366   5.762   3.327 -1.7208 -1.0801  2.0377
 1424TIP3   OH225686   2.002   4.659   1.766  0.3724 -0.2540  0.3938
 1424TIP3    H125687   2.032   4.647   1.856  0.5552 -0.1748  0.3432
 1424TIP3    H225688   2.029   4.748   1.743 -1.9490  0.7248  1.1524
 1425TIP3   OH225689   3.168   4.331  13.129  0.5559 -0.4879  0.0387
 1425TIP3    H125690   3.107   4.403  13.142  0.2265 -0.4708 -1.4647
 1425TIP3    H225691   3.236   4.345  13.195 -0.3523  0.2555  0.8425
 1426TIP3   OH225692   4.635   3.485   5.834  0.1257  0.5477  0.0069
 1426TIP3    H125693   4.647   3.575   5.803 -1.0896  0.0992 -1.9931
 1426TIP3    H225694   4.605   3.494   5.925 -2.8727  2.3860 -1.0191
 1427TIP3   OH225695   4.070   4.404  14.823  0.0564 -0.1144 -0.2448
 1427TIP3    H125696   3.982   4.430  14.797  0.1278  1.6213  1.1384
 1427TIP3    H225697   4.059   4.318  14.863 -1.0362  0.1899  0.1252
 1428TIP3   OH225698   0.702   6.772   3.914 -0.4718  0.3745 -0.0533
 1428TIP3    H125699   0.716   6.687   3.873  1.4276  1.1978 -1.2587
 1428TIP3    H225700   0.609   6.791   3.901 -0.8733 -1.3973  0.0498
 1429TIP3   OH225701   2.345   2.613   0.868  0.0189 -0.3187 -0.0126
 1429TIP3    H125702   2.345   2.610   0.773  0.0801 -1.0026  0.0033
 1429TIP3    H225703   2.436   2.593   0.893 -0.3167 -1.6291  0.2185
 1430TIP3   OH225704   6.058   4.365   5.385 -0.6608 -0.0945  0.1700
 1430TIP3    H125705   5.984   4.406   5.429  0.0702  1.0610  0.3621
 1430TIP3    H225706   6.026   4.346   5.297 -2.3452 -3.0080  1.2661
 1431TIP3   OH225707   0.652   2.414  12.013  0.5260 -0.1846 -0.8178
 1431TIP3    H125708   0.599   2.441  12.089  1.2309 -0.2539 -0.2947
 1431TIP3    H225709   0.596   2.432  11.938 -0.4176 -0.6784 -0.2472
 1432TIP3   OH225710   6.748   3.352  16.580  0.1582 -0.2004  0.3523
 1432TIP3    H125711   6.657   3.323  16.586  0.6189 -1.7008  0.5496
 1432TIP3    H225712   6.769   3.385  16.668  0.4892 -2.1423  1.0732
 1433TIP3   OH225713   3.864   5.887   5.596  0.1333 -0.2495 -0.4118
 1433TIP3    H125714   3.807   5.815   5.567  1.1096 -1.1245 -0.2254
 1433TIP3    H225715   3.812   5.966   5.581 -1.4251 -1.0585  0.4465
 1434TIP3   OH225716   0.270   0.414   1.162  0.1588  0.8692 -0.5382
 1434TIP3    H125717   0.211   0.353   1.117 -0.4081  0.8782  0.1829
 1434TIP3    H225718   0.355   0.369   1.163 -0.3757 -0.1693  0.4733
 1435TIP3   OH225719   0.763   1.350  12.933  0.4352  0.1176  0.4281
 1435TIP3    H125720   0.680   1.395  12.919  0.6815  0.0963 -1.2511
 1435TIP3    H225721   0.738   1.259  12.951  0.0883  0.0202 -0.4922
 1436TIP3   OH225722   5.780   6.168   0.048 -0.2917 -0.0954  0.2507
 1436TIP3    H125723   5.724   6.144  -0.025  0.4779  1.5559 -0.9519
 1436TIP3    H225724   5.867   6.138   0.022 -0.1678 -0.3404  0.9291
 1437TIP3   OH225725   4.539   2.045  17.013  0.0711  0.5939 -0.0258
 1437TIP3    H125726   4.500   1.975  17.066 -1.4156 -0.0982 -1.8957
 1437TIP3    H225727   4.546   2.119  17.073  0.8924 -0.8608  1.7885
 1438TIP3   OH225728   6.146   4.839   3.630 -0.2411  0.1972 -0.7106
 1438TIP3    H125729   6.220   4.897   3.611  0.6711 -1.1785 -1.4555
 1438TIP3    H225730   6.185   4.752   3.641 -1.5022 -0.2210  1.0038
 1439TIP3   OH225731   4.359   3.272   1.884 -0.2559 -0.1118  0.0962
 1439TIP3    H125732   4.395   3.218   1.814 -0.8285  0.0020 -0.2935
 1439TIP3    H225733   4.358   3.216   1.961  2.5890  0.4461  0.6484
 1440TIP3   OH225734   5.238   5.703   5.158 -0.2044 -0.4944 -0.1914
 1440TIP3    H125735   5.192   5.690   5.241  1.0454 -1.3423  0.3975
 1440TIP3    H225736   5.324   5.738   5.183 -0.4717  1.0210 -1.2589
 1441TIP3   OH225737   1.244   1.330  10.621 -0.0197  0.6539 -0.3012
 1441TIP3    H125738   1.157   1.352  10.588 -1.1354 -2.3243  0.3894
 1441TIP3    H225739   1.291   1.300  10.543  0.4890  2.3172 -0.6852
 1442TIP3   OH225740   3.955   1.918  16.476  0.4905 -0.1721  0.1431
 1442TIP3    H125741   3.937   2.012  16.469 -2.0697 -0.3892  2.4763
 1442TIP3    H225742   4.028   1.912  16.538  0.0106  0.2591  0.7602
 1443TIP3   OH225743   4.326   1.282   5.406  0.2287 -0.1837 -0.1443
 1443TIP3    H125744   4.396   1.247   5.351 -0.7690  0.2835 -1.7559
 1443TIP3    H225745   4.254   1.221   5.396 -0.4953  0.7316 -0.5918
 1444TIP3   OH225746   6.552   1.427  15.225 -0.5918  0.5212  0.4354
 1444TIP3    H125747   6.600   1.350  15.252  1.1703  1.3874 -0.0886
 1444TIP3    H225748   6.534   1.413  15.132  2.0396  1.7802 -0.3739
 1445TIP3   OH225749   3.195   6.149  16.883 -0.1976  0.4948 -0.3212
 1445TIP3    H125750   3.104   6.147  16.912 -0.5500  1.5143 -1.2605
 1445TIP3    H225751   3.213   6.241  16.866 -0.4099  0.0282 -4.2170
 1446TIP3   OH225752   4.737   0.283   5.464 -0.1140 -0.1453 -0.4808
 1446TIP3    H125753   4.644   0.306   5.459 -0.3699 -0.9983  0.1615
 1446TIP3    H225754   4.738   0.187   5.468  0.6844 -0.0910  1.5402
 1447TIP3   OH225755   4.781   1.983  13.203  0.7307  0.1553 -0.2671
 1447TIP3    H125756   4.739   1.946  13.125  0.9265  0.5769 -0.5779
 1447TIP3    H225757   4.712   2.033  13.246  0.7727  0.4095 -0.4914
 1448TIP3   OH225758   6.181   0.572  10.869 -0.0722 -0.0944  0.0858
 1448TIP3    H125759   6.114   0.608  10.811  1.3451 -0.8087 -2.1408
 1448TIP3    H225760   6.225   0.648  10.905 -1.2198  0.3744  0.5328
 1449TIP3   OH225761   0.836   3.918  14.292 -0.1857  0.2720  0.0899
 1449TIP3    H125762   0.926   3.942  14.317 -0.1756  0.8321 -0.4517
 1449TIP3    H225763   0.835   3.823  14.295 -0.0048  0.2849  1.5678
 1450TIP3   OH225764   5.368   1.285  16.364 -0.2929 -0.0106  0.4414
 1450TIP3    H125765   5.409   1.371  16.353 -0.0613 -0.1575  0.1366
 1450TIP3    H225766   5.317   1.292  16.445 -1.4888  0.8920 -0.3499
 1451TIP3   OH225767   1.491   3.234   0.886  0.4647 -0.3600 -0.0247
 1451TIP3    H125768   1.413   3.201   0.932 -1.1391  0.7846 -1.7722
 1451TIP3    H225769   1.529   3.158   0.843 -0.8479 -0.6412 -0.7330
 1452TIP3   OH225770   5.397   5.951  15.669 -0.3707 -0.5468 -0.2476
 1452TIP3    H125771   5.487   5.939  15.639 -0.1664 -1.0650  0.5370
 1452TIP3    H225772   5.358   5.864  15.666  0.1223 -0.9516  2.3519
 1453TIP3   OH225773   2.204   6.491   2.764 -0.0135  0.1062 -0.3865
 1453TIP3    H125774   2.195   6.561   2.699  1.7637 -1.0468 -1.9731
 1453TIP3    H225775   2.280   6.517   2.816  1.5352 -1.2108 -1.8675
 1454TIP3   OH225776   2.594   2.974  16.404  0.3442  0.3429 -0.1660
 1454TIP3    H125777   2.655   2.990  16.332 -0.9925  1.6493 -1.0568
 1454TIP3    H225778   2.540   3.052  16.408 -1.9571 -1.1654 -0.0877
 1455TIP3   OH225779   0.837   2.492  14.912  0.2490 -0.8680  0.0285
 1455TIP3    H125780   0.792   2.408  14.901 -1.7783  0.1396  0.1533
 1455TIP3    H225781   0.826   2.512  15.005  0.8233 -0.5033  0.0214
 1456TIP3   OH225782   6.563   0.632   2.950  0.3141  0.1030 -0.6485
 1456TIP3    H125783   6.502   0.706   2.953  0.6082  0.3220  0.8198
 1456TIP3    H225784   6.649   0.673   2.941  0.4802 -0.0556  0.2052
 1457TIP3   OH225785   3.088   5.617  11.503  0.1359  0.4463 -0.6061
 1457TIP3    H125786   3.163   5.558  11.508 -0.0972  0.2331  0.8001
 1457TIP3    H225787   3.125   5.704  11.511  0.5015  0.5626 -2.8620
 1458TIP3   OH225788   2.826   6.332   1.492  0.5504  0.4111  0.3948
 1458TIP3    H125789   2.751   6.279   1.517  0.4128 -0.1032 -1.0073
 1458TIP3    H225790   2.792   6.421   1.486  0.4654  0.4598  1.4214
 1459TIP3   OH225791   5.911   5.232  14.310 -0.5049 -0.0321  0.1084
 1459TIP3    H125792   5.999   5.265  14.330 -1.2703  1.8035  0.7050
 1459TIP3    H225793   5.872   5.216  14.396 -0.5689 -1.4131 -0.1652
 1460TIP3   OH225794   3.888   6.176  13.913  0.0678  0.1307 -0.5773
 1460TIP3    H125795   3.917   6.150  13.826  1.3030 -1.9739  0.3838
 1460TIP3    H225796   3.950   6.244  13.940  0.5437 -0.2242 -0.7801
 1461TIP3   OH225797   1.801   2.810  11.725  0.3324 -0.0899  0.1223
 1461TIP3    H125798   1.738   2.752  11.683  1.0743 -1.1861  0.4441
 1461TIP3    H225799   1.780   2.804  11.819  0.5338 -0.0056  0.1735
 1462TIP3   OH225800   5.622   1.897  14.697 -0.0822 -0.0223  0.2318
 1462TIP3    H125801   5.611   1.974  14.754 -0.8516  0.1768 -0.1693
 1462TIP3    H225802   5.546   1.900  14.638  1.3499  0.4853 -1.6631
 1463TIP3   OH225803   2.279   1.526   1.977 -0.2751  0.1435 -0.0902
 1463TIP3    H125804   2.349   1.465   1.952 -1.8389 -2.0554  0.5448
 1463TIP3    H225805   2.300   1.550   2.067  0.2029  0.3545 -0.2505
 1464TIP3   OH225806   4.165   5.237   4.656  0.1521  0.2240 -0.5023
 1464TIP3    H125807   4.072   5.224   4.672  0.0319  1.5176 -0.0208
 1464TIP3    H225808   4.171   5.323   4.615  1.1372  0.1748 -0.4981
 1465TIP3   OH225809   1.842   5.852   4.419 -0.0261 -0.9124 -0.6188
 1465TIP3    H125810   1.795   5.801   4.486 -1.0903  0.0524 -0.5996
 1465TIP3    H225811   1.874   5.786   4.358 -3.1356 -1.5895 -1.7239
 1466TIP3   OH225812   1.357   1.552   3.965 -0.0914 -0.3774 -0.2858
 1466TIP3    H125813   1.365   1.647   3.968  0.0121 -0.2392 -2.6275
 1466TIP3    H225814   1.264   1.535   3.982 -0.4435  0.3037 -1.3902
 1467TIP3   OH225815   2.637   0.070   3.605 -0.1034 -0.5602 -0.5385
 1467TIP3    H125816   2.729   0.058   3.631 -0.8756 -1.1664  2.3382
 1467TIP3    H225817   2.618  -0.004   3.548  1.0008 -0.8393 -0.5720
 1468TIP3   OH225818   1.259   4.579  16.564 -0.1449 -0.1386 -0.5778
 1468TIP3    H125819   1.330   4.641  16.585  1.1032 -0.4673 -3.3386
 1468TIP3    H225820   1.253   4.522  16.640  1.2940  1.0484  0.4784
 1469TIP3   OH225821   0.726   3.037   4.161  0.3005  0.3405  0.2577
 1469TIP3    H125822   0.725   3.014   4.254 -1.6691 -0.3359  0.1173
 1469TIP3    H225823   0.634   3.043   4.136  0.7800  0.8518 -1.5808
 1470TIP3   OH225824   4.790   2.538   0.215 -0.3992  0.2262  0.2956
 1470TIP3    H125825   4.847   2.613   0.196  1.8933 -1.2843  0.8599
 1470TIP3    H225826   4.729   2.535   0.141  1.8350  0.4692 -1.6490
 1471TIP3   OH225827   1.593   5.502   0.397  0.0031  0.0487  0.4055
 1471TIP3    H125828   1.534   5.478   0.325  1.6571 -0.6048 -0.8023
 1471TIP3    H225829   1.666   5.545   0.354  1.6160 -1.4364  1.5394
 1472TIP3   OH225830   2.243   1.619   4.793  0.1381 -0.0935  0.6499
 1472TIP3    H125831   2.339   1.624   4.789  0.3035 -2.0830  0.7901
 1472TIP3    H225832   2.216   1.613   4.701  0.1138  0.6526  0.6008
 1473TIP3   OH225833   4.316   5.829   6.487  0.3192  0.2579 -0.2652
 1473TIP3    H125834   4.372   5.886   6.434  0.9173 -0.3074 -0.2694
 1473TIP3    H225835   4.257   5.888   6.533 -0.7623  0.7425 -2.1635
 1474TIP3   OH225836   3.406   1.932  12.521  0.0431 -0.1701 -0.3871
 1474TIP3    H125837   3.459   1.953  12.444 -1.9612  3.3520 -1.0185
 1474TIP3    H225838   3.330   1.885  12.485 -1.1625  1.9384 -0.8231
 1475TIP3   OH225839   3.837   2.278  12.541 -0.2339 -0.6542 -0.0954
 1475TIP3    H125840   3.814   2.368  12.562  1.3868 -0.0158 -0.8574
 1475TIP3    H225841   3.913   2.285  12.483 -0.8595 -2.4775 -1.2472
 1476TIP3   OH225842   3.902   3.263  12.390 -0.0444  0.3018  0.1761
 1476TIP3    H125843   3.837   3.330  12.371  0.1175  0.1981 -0.7907
 1476TIP3    H225844   3.985   3.301  12.361  0.0211 -0.3917 -0.5801
 1477TIP3   OH225845   3.666   1.355   0.193  0.2529 -0.5821  0.3338
 1477TIP3    H125846   3.703   1.442   0.199  0.2710 -0.4900 -0.8010
 1477TIP3    H225847   3.573   1.369   0.173  0.5052 -0.8012 -1.0977
 1478TIP3   OH225848   0.294   4.181   1.269 -0.3267  0.1682  0.0809
 1478TIP3    H125849   0.263   4.149   1.185 -0.6703  1.7051 -0.3947
 1478TIP3    H225850   0.367   4.122   1.291 -0.3695 -0.3868 -1.1743
 1479TIP3   OH225851   3.127   1.371   1.775  0.5275 -0.3938  0.3973
 1479TIP3    H125852   3.071   1.445   1.798 -0.0678 -0.4830 -0.6809
 1479TIP3    H225853   3.210   1.410   1.748  0.2766 -0.1155  0.0134
 1480TIP3   OH225854   6.478   5.948   5.212 -0.0956  0.4135 -0.3170
 1480TIP3    H125855   6.463   6.029   5.260 -0.1507  0.9546 -1.2071
 1480TIP3    H225856   6.397   5.933   5.164  0.1254  0.1668 -0.6208
 1481TIP3   OH225857   1.039   3.152   2.846 -0.1046  0.4459 -0.6980
 1481TIP3    H125858   1.019   3.086   2.780 -0.6583 -1.5221  1.3130
 1481TIP3    H225859   1.101   3.210   2.803 -0.1133 -0.9853 -2.8040
 1482TIP3   OH225860   4.667   3.594  15.739 -0.4271 -0.3333  0.0628
 1482TIP3    H125861   4.691   3.552  15.656  0.0823  0.4214 -0.1873
 1482TIP3    H225862   4.598   3.538  15.775 -1.4239 -0.1111 -1.3898
 1483TIP3   OH225863   1.772   1.311  14.269 -0.5010 -0.6129  0.7653
 1483TIP3    H125864   1.843   1.298  14.331  0.3287 -0.3937 -0.1131
 1483TIP3    H225865   1.808   1.281  14.185 -1.1238  0.3536  0.1372
 1484TIP3   OH225866   0.035   4.147   3.359  0.1781 -0.2710  0.4346
 1484TIP3    H125867  -0.055   4.124   3.335  0.0944  0.7380 -0.2476
 1484TIP3    H225868   0.068   4.197   3.284  1.8931 -2.0607 -0.0914
 1485TIP3   OH225869   6.769   5.066   5.751 -0.4079  0.3881  0.1814
 1485TIP3    H125870   6.847   5.115   5.726  0.7569 -1.6024 -0.3173
 1485TIP3    H225871   6.751   5.094   5.841  2.0855 -0.5008  1.0309
 1486TIP3   OH225872   4.677   0.455  10.456 -0.2591  0.1339 -0.1661
 1486TIP3    H125873   4.586   0.448  10.428 -0.5067  0.0152  0.6323
 1486TIP3    H225874   4.688   0.548  10.476 -0.3286  0.0789  0.1321
 1487TIP3   OH225875   4.287   6.472  15.480  0.2057 -0.0026  0.0844
 1487TIP3    H125876   4.308   6.513  15.564  0.9992 -0.7018  0.2388
 1487TIP3    H225877   4.355   6.406  15.467 -0.8700 -1.0839 -0.2934
 1488TIP3   OH225878   2.540   3.216  13.851 -0.3025  0.6361 -0.5198
 1488TIP3    H125879   2.508   3.260  13.772  0.6001  0.2843 -1.1086
 1488TIP3    H225880   2.620   3.172  13.822  0.0525  0.5158  0.6069
 1489TIP3   OH225881   3.768   1.559  13.468  0.6504 -0.1486 -0.6564
 1489TIP3    H125882   3.788   1.467  13.485 -0.1597 -0.0679  0.8512
 1489TIP3    H225883   3.673   1.563  13.463  0.6522  0.6906 -0.1825
 1490TIP3   OH225884   4.852   4.363  15.427 -0.5415  0.3020  0.1793
 1490TIP3    H125885   4.831   4.377  15.519 -0.8639  0.6009  0.0651
 1490TIP3    H225886   4.943   4.337  15.426 -0.9570 -1.2385  0.7159
 1491TIP3   OH225887   1.396   4.255  11.775 -0.0659 -0.1992 -0.2315
 1491TIP3    H125888   1.429   4.165  11.776  3.1033  0.7227 -2.8062
 1491TIP3    H225889   1.392   4.280  11.868  1.1661 -2.2936  0.4548
 1492TIP3   OH225890   0.901   5.109   2.613 -0.3986 -0.3063  0.2656
 1492TIP3    H125891   0.847   5.165   2.668  0.4716  1.0205 -0.1934
 1492TIP3    H225892   0.941   5.047   2.675 -0.7374  0.0941  0.8964
 1493TIP3   OH225893   2.154   3.407   5.197 -0.7259 -0.3488  0.3795
 1493TIP3    H125894   2.147   3.322   5.240 -0.2868 -1.2801 -1.3136
 1493TIP3    H225895   2.195   3.463   5.264  3.9013 -2.7833  0.0253
 1494TIP3   OH225896   0.226   3.603   0.300  1.2808  0.0998 -0.2778
 1494TIP3    H125897   0.165   3.624   0.229  1.2431  1.0098  0.0095
 1494TIP3    H225898   0.313   3.611   0.260  1.2717 -2.6696 -1.1043
 1495TIP3   OH225899   0.773   0.648  11.863 -0.0073 -0.0770 -0.0928
 1495TIP3    H125900   0.860   0.688  11.858 -0.5685  1.7727  2.4218
 1495TIP3    H225901   0.789   0.559  11.895  0.9532  0.7146  1.7993
 1496TIP3   OH225902   5.578   1.224  15.097 -0.0252 -0.0605  0.0347
 1496TIP3    H125903   5.667   1.241  15.127  0.0004  0.7183 -0.4628
 1496TIP3    H225904   5.528   1.209  15.177  0.5700 -0.6385  0.3103
 1497TIP3   OH225905   3.779   6.504  13.532  0.1034 -0.5095 -0.1647
 1497TIP3    H125906   3.869   6.478  13.549  0.8181  1.3986 -0.6858
 1497TIP3    H225907   3.760   6.568  13.600 -0.8549 -0.8633 -0.0898
 1498TIP3   OH225908   4.013   3.019   1.732 -0.2871 -0.7083 -0.4142
 1498TIP3    H125909   3.921   3.024   1.756 -0.2565  0.3526 -0.4479
 1498TIP3    H225910   4.026   3.095   1.674  0.4915 -1.1234 -0.7981
 1499TIP3   OH225911   3.578   5.762  16.988 -0.0331  0.9656  0.2087
 1499TIP3    H125912   3.617   5.677  16.970  2.1061  2.1344 -1.0336
 1499TIP3    H225913   3.583   5.810  16.905  0.5162  2.9127  1.2813
 1500TIP3   OH225914   5.807   1.851  16.274 -0.3566  0.1120 -0.1210
 1500TIP3    H125915   5.838   1.775  16.226 -0.2921  1.0676 -1.6770
 1500TIP3    H225916   5.716   1.861  16.248 -0.5494  0.2082  0.5656
 1501TIP3   OH225917   2.675   3.852  16.692 -0.0081 -0.2173  0.5647
 1501TIP3    H125918   2.729   3.902  16.753  1.4197 -0.4964 -0.4229
 1501TIP3    H225919   2.605   3.912  16.667  1.3829  1.1493 -0.2004
 1502TIP3   OH225920   4.024   3.386   2.227  0.0159 -0.1483  0.1370
 1502TIP3    H125921   4.103   3.399   2.279  0.7152 -0.4744 -0.8159
 1502TIP3    H225922   3.989   3.301   2.256  0.7659 -0.6412 -0.3648
 1503TIP3   OH225923   6.346   5.587  16.910 -0.1118  0.6795 -0.4301
 1503TIP3    H125924   6.282   5.519  16.893 -1.4514  2.0048 -0.8633
 1503TIP3    H225925   6.321   5.624  16.995  0.7790  0.4613 -0.0576
 1504TIP3   OH225926   1.265   2.625  15.398 -0.3065  0.1247 -0.3889
 1504TIP3    H125927   1.266   2.582  15.484  0.0241 -1.3983 -1.1384
 1504TIP3    H225928   1.321   2.572  15.343 -0.1809  1.3200 -1.4679
 1505TIP3   OH225929   6.151   5.015  15.257 -0.3788  0.3649  0.1525
 1505TIP3    H125930   6.244   5.030  15.243 -0.7765  1.5515 -1.5417
 1505TIP3    H225931   6.147   4.952  15.329  1.6942  1.0629  0.9424
 1506TIP3   OH225932   0.015   0.174  14.612 -0.2825  0.3057  0.1292
 1506TIP3    H125933   0.004   0.249  14.670  0.1977 -0.1887  0.8655
 1506TIP3    H225934  -0.056   0.183  14.548 -0.6799  0.9723  0.6541
 1507TIP3   OH225935   3.700   4.849   1.128  0.6060  0.4021 -0.1903
 1507TIP3    H125936   3.717   4.939   1.101  0.5210  0.1959 -0.9556
 1507TIP3    H225937   3.783   4.819   1.167  0.8758  0.5588 -0.6410
 1508TIP3   OH225938   3.703   3.778  14.784 -0.4703 -0.9157  0.5941
 1508TIP3    H125939   3.770   3.710  14.781 -1.0440 -1.4601 -0.0679
 1508TIP3    H225940   3.649   3.763  14.707 -0.1496  0.7733 -0.0149
 1509TIP3   OH225941   2.912   5.752   1.365 -0.4020 -0.5696  0.1664
 1509TIP3    H125942   2.947   5.759   1.276 -1.2709 -0.3284 -0.1610
 1509TIP3    H225943   2.838   5.693   1.357 -2.0373  1.3706  0.2458
 1510TIP3   OH225944   5.141   0.667  15.620  0.2562 -0.8654 -0.1126
 1510TIP3    H125945   5.233   0.640  15.621 -0.2455 -3.2988 -3.0728
 1510TIP3    H225946   5.094   0.594  15.660 -0.4759  0.2649  1.1804
 1511TIP3   OH225947   1.662   2.559   5.172 -0.0629 -0.3998 -0.0022
 1511TIP3    H125948   1.710   2.522   5.098  0.7508  0.4786  0.0797
 1511TIP3    H225949   1.661   2.488   5.237  2.0359 -0.1064  0.4055
 1512TIP3   OH225950   4.543   6.499   3.448 -0.3869  0.7146  0.2870
 1512TIP3    H125951   4.615   6.561   3.454 -0.0830  0.4441 -0.5138
 1512TIP3    H225952   4.474   6.538   3.502 -0.7858  2.5867 -1.4191
 1513TIP3   OH225953   5.959   5.098   2.918 -0.1679 -0.2229  0.2282
 1513TIP3    H125954   5.990   5.051   2.840 -0.2177 -1.1674  0.7625
 1513TIP3    H225955   5.908   5.033   2.967  1.1332 -0.1253  1.8173
 1514TIP3   OH225956   2.939   0.552   1.296  0.3479  0.1314 -0.2057
 1514TIP3    H125957   2.981   0.501   1.227 -0.2572 -1.0583  0.2905
 1514TIP3    H225958   3.000   0.547   1.370 -0.3682 -1.1462  0.3345
 1515TIP3   OH225959   3.275   5.752   0.224 -0.9265 -0.4274  0.7445
 1515TIP3    H125960   3.369   5.765   0.217 -0.6750 -1.2078  2.2268
 1515TIP3    H225961   3.238   5.795   0.147  0.5303  0.9935  0.8027
 1516TIP3   OH225962   2.608   1.691  15.491  0.1854  0.2475 -0.3731
 1516TIP3    H125963   2.518   1.659  15.486 -0.3238  1.6143 -0.3334
 1516TIP3    H225964   2.648   1.663  15.409 -0.0031 -1.1222 -0.0192
 1517TIP3   OH225965   2.778   6.401  16.909  0.2157  0.2099 -0.3231
 1517TIP3    H125966   2.795   6.494  16.920  2.0921 -0.1971  0.7453
 1517TIP3    H225967   2.742   6.372  16.993  0.0967 -0.1100 -0.4822
 1518TIP3   OH225968   0.492   1.557  15.478  0.0177 -0.4441 -0.4096
 1518TIP3    H125969   0.580   1.554  15.440 -0.4919 -2.6325 -1.5843
 1518TIP3    H225970   0.437   1.596  15.410 -0.1027 -0.0819 -0.1062
 1519TIP3   OH225971   0.330   2.599   5.157  0.0323 -0.0306 -0.1983
 1519TIP3    H125972   0.317   2.679   5.107 -0.4291  0.9316  1.3851
 1519TIP3    H225973   0.242   2.564   5.170  0.0677  0.1593  0.5946
 1520TIP3   OH225974   2.435   4.240  14.560 -0.3512 -0.4264 -0.4403
 1520TIP3    H125975   2.489   4.238  14.639 -2.0362 -0.6607  0.7594
 1520TIP3    H225976   2.478   4.178  14.500  0.1856 -1.3108  0.8124
 1521TIP3   OH225977   1.628   0.841   2.382 -0.1246 -0.3174 -0.2342
 1521TIP3    H125978   1.658   0.840   2.472  2.3987 -0.7709 -1.0173
 1521TIP3    H225979   1.705   0.865   2.330 -1.4570 -0.1924 -2.3020
 1522TIP3   OH225980   3.885   0.537   4.624 -0.1749  0.1329 -0.0288
 1522TIP3    H125981   3.861   0.592   4.698  0.7942 -0.4887  0.7679
 1522TIP3    H225982   3.851   0.450   4.646 -1.5594  0.3270 -1.2063
 1523TIP3   OH225983   3.730   2.550   2.380  0.4634  0.0713 -0.6028
 1523TIP3    H125984   3.764   2.566   2.468  0.7425 -2.3817 -0.1899
 1523TIP3    H225985   3.698   2.460   2.383 -0.6994  0.3615 -2.6700
 1524TIP3   OH225986   1.102   1.788   2.316  0.0534  0.2118 -0.6051
 1524TIP3    H125987   1.181   1.776   2.263  1.2041  1.6584  0.7003
 1524TIP3    H225988   1.089   1.883   2.319 -1.2316  0.0442 -0.0634
 1525TIP3   OH225989   1.226   5.462  12.624 -0.7252 -0.2231  0.4942
 1525TIP3    H125990   1.318   5.436  12.627 -0.9801 -1.1460  2.8481
 1525TIP3    H225991   1.228   5.557  12.623  0.2633 -0.2260  0.7216
 1526TIP3   OH225992   1.126   1.743   5.315  0.1291 -0.2743 -0.4704
 1526TIP3    H125993   1.057   1.756   5.379 -0.1404 -0.2463 -0.7655
 1526TIP3    H225994   1.086   1.690   5.246  0.0351  0.7236 -1.2177
 1527TIP3   OH225995   6.557   5.119  14.785  0.6576 -0.0256 -0.4013
 1527TIP3    H125996   6.550   5.024  14.784 -0.0687 -0.0156  0.9110
 1527TIP3    H225997   6.488   5.147  14.845  0.9694  1.3259 -0.6401
 1528TIP3   OH225998   0.219   2.312  10.623 -0.3621 -0.1554 -0.4388
 1528TIP3    H125999   0.186   2.315  10.712 -1.2013 -3.1726 -0.5593
 1528TIP3    H226000   0.298   2.366  10.625 -0.3863 -0.1058  2.1001
 1529TIP3   OH226001   6.451   5.403   0.055  0.4815 -0.4538  0.8018
 1529TIP3    H126002   6.542   5.403   0.026  0.2928 -1.4570  0.1761
 1529TIP3    H226003   6.429   5.311   0.068 -0.2648 -0.1853  1.5386
 1530TIP3   OH226004   0.210   4.198   3.912  0.0508 -0.4375 -0.5773
 1530TIP3    H126005   0.152   4.126   3.892 -2.2671  1.5467 -1.4774
 1530TIP3    H226006   0.265   4.208   3.834  0.0278 -0.9060 -0.6525
 1531TIP3   OH226007   2.267   0.900  15.251 -0.6901 -0.6681 -0.2450
 1531TIP3    H126008   2.280   0.875  15.342  1.2137 -1.1442 -0.6119
 1531TIP3    H226009   2.194   0.961  15.253  1.8454  2.6678  2.2422
 1532TIP3   OH226010   2.955   5.526   2.433 -0.0757  1.3277  0.8760
 1532TIP3    H126011   2.957   5.442   2.386  0.1596  1.1552  1.1988
 1532TIP3    H226012   2.919   5.587   2.369 -0.9060  0.8390  0.8593
 1533TIP3   OH226013   5.140   3.333  14.473  0.6372 -0.0668 -0.9567
 1533TIP3    H126014   5.081   3.259  14.488  0.8091 -0.1047 -0.4526
 1533TIP3    H226015   5.204   3.328  14.544 -0.6906  1.9061  0.4752
 1534TIP3   OH226016   4.675   0.707   1.086  0.1720  1.0217 -0.5294
 1534TIP3    H126017   4.589   0.749   1.090  0.2160  1.1677 -1.0041
 1534TIP3    H226018   4.708   0.729   0.999  0.2530  0.1074 -0.7305
 1535TIP3   OH226019   5.297   5.075  14.595 -0.1159 -0.1156  0.4509
 1535TIP3    H126020   5.297   5.162  14.635 -0.5270  0.9466 -1.7229
 1535TIP3    H226021   5.223   5.076  14.535  1.3492 -1.0316 -1.4801
 1536TIP3   OH226022   2.409   5.253   5.221  0.4383 -0.5445  0.4405
 1536TIP3    H126023   2.328   5.261   5.272 -1.4656 -3.1570 -1.8368
 1536TIP3    H226024   2.478   5.244   5.286 -1.1626  0.9495  2.4825
 1537TIP3   OH226025   0.664   3.015   5.756 -0.2836  0.4506  0.1592
 1537TIP3    H126026   0.659   2.954   5.829 -1.8333  1.5623  1.0541
 1537TIP3    H226027   0.584   2.997   5.705  0.4776  0.0948 -0.9534
 1538TIP3   OH226028   3.922   3.748   2.832 -0.1267 -0.0065 -0.1375
 1538TIP3    H126029   3.966   3.829   2.806  0.7852 -0.6111 -0.5437
 1538TIP3    H226030   3.976   3.679   2.794 -0.7913 -0.8081  0.3557
 1539TIP3   OH226031   5.930   3.784   4.801 -0.3316 -0.4420 -0.3973
 1539TIP3    H126032   5.888   3.869   4.785  1.9577  0.7938 -0.3163
 1539TIP3    H226033   5.954   3.753   4.713  0.7113  0.0386 -0.2894
 1540TIP3   OH226034   4.519   0.128   5.058 -0.1911 -0.3401  0.2603
 1540TIP3    H126035   4.550   0.115   4.968  0.8390 -1.1977  0.7188
 1540TIP3    H226036   4.437   0.078   5.062  0.5462 -1.5949  0.2143
 1541TIP3   OH226037   1.595   0.311  13.652  0.7770  0.0814 -0.1653
 1541TIP3    H126038   1.586   0.360  13.734 -0.5550  1.5272 -1.1056
 1541TIP3    H226039   1.505   0.296  13.623  1.0212 -4.1320  0.6408
 1542TIP3   OH226040   0.816   4.628  12.374 -0.1540 -0.2699  0.0421
 1542TIP3    H126041   0.739   4.663  12.419 -0.0686 -0.3474  0.2479
 1542TIP3    H226042   0.886   4.635  12.439  0.2648  0.8137 -0.5018
 1543TIP3   OH226043   4.332   3.497  12.348  0.0186  0.0454  0.1634
 1543TIP3    H126044   4.360   3.585  12.326  0.0469  0.1428  0.5741
 1543TIP3    H226045   4.409   3.455  12.386 -0.3139  0.2447  1.0908
 1544TIP3   OH226046   1.861   6.384   2.278 -0.4322  0.1070 -0.1935
 1544TIP3    H126047   1.875   6.469   2.320 -0.9603  0.5154 -0.8101
 1544TIP3    H226048   1.790   6.344   2.327 -1.0588  0.5892 -0.6832
 1545TIP3   OH226049   3.010   0.322   2.796 -0.5645  0.4600  0.2634
 1545TIP3    H126050   2.990   0.251   2.857 -2.4489  1.6513  1.1159
 1545TIP3    H226051   2.991   0.286   2.710 -0.2023 -0.4741  0.5588
 1546TIP3   OH226052   4.737   3.056   1.912 -0.4432  0.2138  0.5720
 1546TIP3    H126053   4.790   2.977   1.917 -0.6134 -0.0442 -1.2261
 1546TIP3    H226054   4.655   3.034   1.955 -0.3822 -0.4895  0.3256
 1547TIP3   OH226055   3.248   4.011   5.746 -0.2635 -0.6245 -0.0437
 1547TIP3    H126056   3.291   4.091   5.714 -0.4754 -0.7111 -0.5470
 1547TIP3    H226057   3.266   4.011   5.840 -1.5351  0.8311  0.2588
 1548TIP3   OH226058   0.547   5.254   3.652 -0.3884  0.7668  0.4223
 1548TIP3    H126059   0.487   5.265   3.726 -0.1414 -0.3580  0.8013
 1548TIP3    H226060   0.624   5.211   3.689 -0.2959  0.1147 -0.4915
 1549TIP3   OH226061   0.018   4.763  15.634  0.1907  0.5165 -0.0544
 1549TIP3    H126062  -0.046   4.701  15.669  1.6120 -1.0017 -0.0357
 1549TIP3    H226063  -0.035   4.826  15.584 -1.2297 -1.3685 -1.0732
 1550TIP3   OH226064   4.799   4.976   1.417 -0.2061 -0.3387  0.4544
 1550TIP3    H126065   4.717   4.933   1.395  0.1210 -0.6377 -0.2055
 1550TIP3    H226066   4.796   5.059   1.370  0.0002 -0.4851  0.1797
 1551TIP3   OH226067   3.649   6.696   2.416  0.2730 -0.1979 -0.3705
 1551TIP3    H126068   3.685   6.717   2.330 -0.2482 -3.0497 -1.4088
 1551TIP3    H226069   3.559   6.668   2.398 -0.2508  0.3378  1.2787
 1552TIP3   OH226070   5.392   3.484  13.498  0.3746  0.8208  0.5441
 1552TIP3    H126071   5.382   3.471  13.592  0.0076 -2.3410  0.1800
 1552TIP3    H226072   5.304   3.472  13.462  0.7668  0.4065 -0.3225
 1553TIP3   OH226073   5.501   0.382  15.927  0.8379  0.8071  0.7985
 1553TIP3    H126074   5.535   0.311  15.983 -0.8322 -0.0534  0.7779
 1553TIP3    H226075   5.437   0.427  15.982 -2.9716 -1.7858 -1.1139
 1554TIP3   OH226076   4.864   2.864  14.610 -0.4886  0.0306  0.0637
 1554TIP3    H126077   4.769   2.855  14.599 -0.4745 -0.6379  0.4511
 1554TIP3    H226078   4.900   2.783  14.575 -0.0641  0.2534 -0.0167
 1555TIP3   OH226079   4.393   5.409   4.013  0.0434 -0.4047 -0.2645
 1555TIP3    H126080   4.425   5.478   3.955 -1.5155  0.5337 -0.0646
 1555TIP3    H226081   4.349   5.456   4.084 -0.9341 -1.5772 -0.0536
 1556TIP3   OH226082   0.635   1.774  12.257  0.3596 -0.1003 -0.7069
 1556TIP3    H126083   0.676   1.692  12.285  0.1096  0.6243  2.1535
 1556TIP3    H226084   0.708   1.832  12.237  0.6066 -0.3388 -0.5082
 1557TIP3   OH226085   3.401   4.699  15.783 -0.0311 -0.0690  0.4833
 1557TIP3    H126086   3.343   4.623  15.789  1.0166 -0.9582 -0.0728
 1557TIP3    H226087   3.378   4.740  15.699  0.8326 -1.0620 -0.2804
 1558TIP3   OH226088   4.927   4.911  13.137 -0.2030  0.2682  0.4988
 1558TIP3    H126089   4.906   4.866  13.219  1.5522 -0.3566  0.6411
 1558TIP3    H226090   4.883   4.859  13.070 -1.1930  0.4637  0.9712
 1559TIP3   OH226091   1.891   4.405  15.433  0.5894  0.7045 -0.7986
 1559TIP3    H126092   1.845   4.361  15.504 -0.5594  1.0651 -1.2896
 1559TIP3    H226093   1.891   4.498  15.458 -1.1148  1.0546 -1.8910
 1560TIP3   OH226094   0.036   2.602   2.551  0.1785 -0.2622 -0.2339
 1560TIP3    H126095   0.131   2.599   2.543  0.0321 -1.7728 -2.0998
 1560TIP3    H226096   0.018   2.687   2.591  2.2830  0.1175  0.0240
 1561TIP3   OH226097   3.601   6.648   0.873 -0.3082  0.2782  0.1768
 1561TIP3    H126098   3.534   6.635   0.940  2.1008 -1.4128  2.4919
 1561TIP3    H226099   3.574   6.591   0.801 -2.0838  0.7892  0.3994
 1562TIP3   OH226100   1.585   6.180  12.064  0.3131  0.3125  0.1465
 1562TIP3    H126101   1.523   6.111  12.088 -0.1198  0.8489  0.6124
 1562TIP3    H226102   1.658   6.133  12.023 -1.1648 -0.1907 -2.0696
 1563TIP3   OH226103   1.780   3.955  15.507 -0.2320  0.6472 -0.1620
 1563TIP3    H126104   1.786   4.048  15.526 -0.0360  0.7474 -0.7079
 1563TIP3    H226105   1.858   3.917  15.548 -1.5378  0.3309  2.2295
 1564TIP3   OH226106   3.971   0.567   3.680  0.2960 -0.9905 -0.1202
 1564TIP3    H126107   4.021   0.498   3.725  2.5652  1.6227  1.7411
 1564TIP3    H226108   4.035   0.609   3.622  0.0411  1.6414  1.3494
 1565TIP3   OH226109   3.593   0.092  16.052  0.2632 -0.4926  0.1571
 1565TIP3    H126110   3.527   0.109  15.985 -1.5984 -0.1715  1.9673
 1565TIP3    H226111   3.582   0.163  16.115  0.6403 -1.7884  1.7523
 1566TIP3   OH226112   6.016   6.050  12.827 -0.4874  0.0202  0.4462
 1566TIP3    H126113   6.036   6.013  12.913 -1.1419  0.4043  0.7703
 1566TIP3    H226114   5.997   6.142  12.844 -0.2090  0.1954 -0.1718
 1567TIP3   OH226115   5.734   5.814   0.710  0.0420  0.4929  0.3503
 1567TIP3    H126116   5.708   5.902   0.737 -1.1201  0.3337 -0.1806
 1567TIP3    H226117   5.827   5.821   0.690  1.1768  0.5683  4.6148
 1568TIP3   OH226118   2.650   1.494  14.349  0.2571 -0.2220 -0.1658
 1568TIP3    H126119   2.574   1.550  14.365  0.8502  0.4710  0.2981
 1568TIP3    H226120   2.613   1.410  14.322 -0.6494  0.4666 -1.1346
 1569TIP3   OH226121   3.840   3.994  12.101  0.3455 -0.2867  0.4192
 1569TIP3    H126122   3.763   3.949  12.065  0.4080  0.1107 -0.2378
 1569TIP3    H226123   3.809   4.081  12.125  0.4532 -0.3332  0.7290
 1570TIP3   OH226124   0.965   3.332  13.509  0.3259 -0.4844 -0.5956
 1570TIP3    H126125   0.872   3.351  13.494  0.3039 -1.2648 -1.4655
 1570TIP3    H226126   1.011   3.383  13.443  0.4963 -0.5202 -0.5046
 1571TIP3   OH226127   3.287   3.310   0.511 -0.1371  0.0429 -0.6182
 1571TIP3    H126128   3.346   3.338   0.441  0.9291 -0.5196  0.0230
 1571TIP3    H226129   3.235   3.239   0.472 -0.4085  0.5472 -1.1891
 1572TIP3   OH226130   5.115   1.962  14.327  0.1939 -0.0375  0.6571
 1572TIP3    H126131   5.081   1.974  14.239  1.2928  0.3799  0.2694
 1572TIP3    H226132   5.169   1.884  14.322 -0.9432 -0.8939  1.3494
 1573TIP3   OH226133   2.108   5.364   2.372  0.3404  0.0582 -0.3491
 1573TIP3    H126134   2.185   5.326   2.416  0.9040  1.6673  0.1287
 1573TIP3    H226135   2.042   5.371   2.441  0.1706 -0.2479 -0.4820
 1574TIP3   OH226136   0.182   2.336   3.740 -0.7602 -0.0549  0.4402
 1574TIP3    H126137   0.104   2.349   3.793 -1.5756 -0.1096 -0.7104
 1574TIP3    H226138   0.198   2.241   3.745 -2.2197 -0.4491 -1.2321
 1575TIP3   OH226139   1.362   5.321   5.544 -0.4184  0.1295  0.2520
 1575TIP3    H126140   1.426   5.371   5.594 -0.2105 -0.6635  0.7885
 1575TIP3    H226141   1.401   5.314   5.456  0.5997 -0.9686  0.7617
 1576TIP3   OH226142   6.095   6.170   3.610  0.2886 -0.1226 -0.0674
 1576TIP3    H126143   6.017   6.225   3.612  0.4904  0.4263 -2.8580
 1576TIP3    H226144   6.075   6.104   3.543  1.1949 -1.6819  1.1287
 1577TIP3   OH226145   6.119   4.455   1.809  0.1524 -0.0960  0.1231
 1577TIP3    H126146   6.139   4.434   1.900  0.3106 -1.0032 -0.1116
 1577TIP3    H226147   6.074   4.540   1.813 -1.5259 -0.9789  1.2218
 1578TIP3   OH226148   0.539   0.055  15.841  0.0402  0.7199  0.1814
 1578TIP3    H126149   0.590  -0.018  15.876 -1.3082  0.0079  0.7465
 1578TIP3    H226150   0.499   0.020  15.761  0.3326  1.2317 -0.1946
 1579TIP3   OH226151   4.223   3.142   0.424 -0.2706 -0.2587 -0.7251
 1579TIP3    H126152   4.301   3.195   0.404 -0.6641  0.3303 -0.7406
 1579TIP3    H226153   4.185   3.185   0.501  0.4707 -1.6796  0.4807
 1580TIP3   OH226154   1.665   1.744   2.630 -0.0602 -0.3195  0.0080
 1580TIP3    H126155   1.737   1.681   2.625  1.1480  1.0778 -2.8005
 1580TIP3    H226156   1.643   1.762   2.538 -1.9510  1.5814  0.7418
 1581TIP3   OH226157   1.016   2.483  10.755  0.2289 -0.7035  0.0072
 1581TIP3    H126158   1.024   2.400  10.707 -1.6015 -2.2352  2.1828
 1581TIP3    H226159   1.101   2.494  10.797  0.2829 -1.8574  0.2334
 1582TIP3   OH226160   0.011   3.698  12.399  0.2747  0.2184 -0.8981
 1582TIP3    H126161   0.030   3.693  12.492  0.2514 -0.6940 -0.9352
 1582TIP3    H226162   0.027   3.790  12.376  0.2461  0.4537  0.0039
 1583TIP3   OH226163   3.768   2.014   4.684  0.1115 -0.0790  0.7040
 1583TIP3    H126164   3.800   1.959   4.756  1.7474  1.6125  1.3490
 1583TIP3    H226165   3.714   1.955   4.631  0.3005 -1.8211  2.3417
 1584TIP3   OH226166   0.724   2.695   6.763  0.7815  0.5850 -0.0737
 1584TIP3    H126167   0.761   2.678   6.850 -2.1288  2.1102  1.5964
 1584TIP3    H226168   0.747   2.787   6.745 -1.1040  1.2251  0.5256
 1585TIP3   OH226169   5.192   4.338  15.476 -0.5228  0.0735 -0.0521
 1585TIP3    H126170   5.160   4.401  15.540 -1.1008 -0.7829  0.5269
 1585TIP3    H226171   5.198   4.255  15.524  0.5633 -0.2462 -0.7000
 1586TIP3   OH226172   1.991   1.216  14.805  0.6165 -0.0010  0.2606
 1586TIP3    H126173   1.926   1.146  14.805 -0.2894  0.8114  0.6459
 1586TIP3    H226174   1.942   1.294  14.832  1.7219  0.6647  0.4139
 1587TIP3   OH226175   1.775   3.474   1.728  0.4816  0.1525 -0.0149
 1587TIP3    H126176   1.846   3.459   1.666 -0.0869  1.8924 -1.1531
 1587TIP3    H226177   1.712   3.403   1.710  0.6769  0.1940 -0.8989
 1588TIP3   OH226178   0.477   5.115   4.045  0.2935  0.4106  0.0077
 1588TIP3    H126179   0.397   5.087   4.000 -0.3495 -1.3215  2.0791
 1588TIP3    H226180   0.492   5.049   4.111  2.2636  1.8558  1.1217
 1589TIP3   OH226181   2.678   2.887  14.091 -0.5141 -0.1721  0.3515
 1589TIP3    H126182   2.746   2.900  14.157 -1.4623  0.8412  1.1672
 1589TIP3    H226183   2.627   2.968  14.092  0.8251  0.8910 -3.3615
 1590TIP3   OH226184   4.451   0.005  15.283  0.0870 -0.3057 -0.2298
 1590TIP3    H126185   4.462   0.095  15.315 -0.9920 -0.1802 -0.1880
 1590TIP3    H226186   4.359  -0.015  15.298  0.0081 -0.9501 -1.4473
 1591TIP3   OH226187   5.419   4.542  13.153  0.1235 -0.2043 -0.4878
 1591TIP3    H126188   5.344   4.601  13.162  0.9053  0.7151  0.2412
 1591TIP3    H226189   5.410   4.480  13.225  0.4818  0.4148  0.1086
 1592TIP3   OH226190   2.167   0.820  15.538  0.7092  0.2937 -0.1570
 1592TIP3    H126191   2.110   0.894  15.515  0.2177 -0.1535 -0.4148
 1592TIP3    H226192   2.132   0.747  15.487  1.6923  0.0659 -0.5327
 1593TIP3   OH226193   1.000   4.610   3.698  0.0548 -0.1421 -0.6242
 1593TIP3    H126194   0.968   4.695   3.727 -0.4630  0.8348 -3.7136
 1593TIP3    H226195   0.973   4.549   3.767 -0.4019  2.0078  1.2119
 1594TIP3   OH226196   6.515   1.964  13.636 -0.3291  0.5969  0.7079
 1594TIP3    H126197   6.556   1.904  13.698  1.2152  1.9480  1.0715
 1594TIP3    H226198   6.588   2.015  13.601 -1.4739  1.5717 -0.3341
 1595TIP3   OH226199   5.684   1.664  13.989  0.2205 -0.5504 -0.1118
 1595TIP3    H126200   5.722   1.728  13.930  0.3678  0.2896  0.8552
 1595TIP3    H226201   5.705   1.579  13.950  0.3143 -0.0274 -1.2344
 1596TIP3   OH226202   2.784   2.376   5.905 -0.1071  0.5198  0.0294
 1596TIP3    H126203   2.770   2.394   5.998 -1.1231  0.1162 -0.0321
 1596TIP3    H226204   2.865   2.422   5.884  1.8211 -1.7571  1.8424
 1597TIP3   OH226205   4.636   5.387  14.699 -0.2468 -0.5055 -0.2875
 1597TIP3    H126206   4.695   5.377  14.624  0.3218  0.8426 -0.0532
 1597TIP3    H226207   4.569   5.319  14.687  0.7361 -1.3596 -1.1422
 1598TIP3   OH226208   5.310   0.614   5.315  0.0692  0.4368  0.2441
 1598TIP3    H126209   5.284   0.670   5.243  1.3488  0.4514 -0.2390
 1598TIP3    H226210   5.236   0.555   5.328 -0.9254  1.6282  0.1628
 1599TIP3   OH226211   5.434   2.259   4.557  0.0526 -0.0666  0.4292
 1599TIP3    H126212   5.367   2.312   4.513 -1.1320  0.6242  2.9004
 1599TIP3    H226213   5.503   2.247   4.491 -0.4004  3.1018 -0.7619
 1600TIP3   OH226214   3.289   4.583   0.253  0.3617  0.5193  0.0984
 1600TIP3    H126215   3.298   4.655   0.316  0.0816  2.3907 -1.8578
 1600TIP3    H226216   3.195   4.572   0.242  0.3970 -0.3572  0.5497
 1601TIP3   OH226217   5.502   4.862   3.046  0.1283 -0.2062 -0.0864
 1601TIP3    H126218   5.485   4.815   3.128  1.4132  0.4356  0.5862
 1601TIP3    H226219   5.580   4.821   3.010  0.6287  0.6648 -0.0416
 1602TIP3   OH226220   3.818   1.195   3.915 -0.1854  0.1762  0.0318
 1602TIP3    H126221   3.795   1.262   3.979  0.9361 -0.0011  0.6371
 1602TIP3    H226222   3.801   1.112   3.959 -1.5564  0.0301 -0.7123
 1603TIP3   OH226223   3.381   5.352  14.267 -0.3783 -0.1016 -0.4562
 1603TIP3    H126224   3.363   5.371  14.359 -1.8076 -0.2035 -0.6933
 1603TIP3    H226225   3.476   5.345  14.262 -0.2899 -0.2617  1.0391
 1604TIP3   OH226226   2.049   4.722   2.655 -0.3005  0.3704  0.0863
 1604TIP3    H126227   2.049   4.760   2.566  0.2782 -0.5433 -0.3200
 1604TIP3    H226228   2.142   4.708   2.674 -0.4991 -1.0658  0.1138
 1605TIP3   OH226229   1.707   1.173   3.531 -0.1306  0.1120  0.2460
 1605TIP3    H126230   1.709   1.078   3.516 -0.7248 -0.1654  1.7278
 1605TIP3    H226231   1.675   1.209   3.448  0.0776 -0.9734 -0.3369
 1606TIP3   OH226232   4.742   0.704  10.601 -0.0084 -0.1558  0.4747
 1606TIP3    H126233   4.655   0.703  10.642  0.1597  2.4983  1.0674
 1606TIP3    H226234   4.753   0.794  10.570  2.6575 -0.3450  0.6730
 1607TIP3   OH226235   6.649   1.721  11.928  0.1379  0.2017 -0.3043
 1607TIP3    H126236   6.567   1.676  11.907  0.7404 -0.5548 -1.1473
 1607TIP3    H226237   6.634   1.761  12.013 -0.5148 -1.4059  0.3673
 1608TIP3   OH226238   3.689   2.265   2.387  0.0301 -0.2594  0.8811
 1608TIP3    H126239   3.650   2.250   2.301 -1.7490 -1.9362  1.8956
 1608TIP3    H226240   3.766   2.208   2.388 -0.5915 -1.1278  0.7843
 1609TIP3   OH226241   6.756   1.556  14.956  0.1430 -0.0567  0.5079
 1609TIP3    H126242   6.844   1.533  14.984 -0.0129  1.3883  2.3771
 1609TIP3    H226243   6.754   1.534  14.863  2.3489 -0.4459  0.4995
 1610TIP3   OH226244   4.752   1.393   5.054  0.3405  0.1298  0.6007
 1610TIP3    H126245   4.695   1.384   5.130  0.6277 -1.9465  0.6192
 1610TIP3    H226246   4.749   1.487   5.033 -2.1505  0.2874  1.2984
 1611TIP3   OH226247   0.669   5.392   5.768  0.2034  0.0786 -0.0559
 1611TIP3    H126248   0.650   5.452   5.696  0.9704 -1.5784 -1.7271
 1611TIP3    H226249   0.753   5.424   5.803  1.2713 -0.6768 -1.7638
 1612TIP3   OH226250   0.153   5.034  15.903  0.0032 -0.0853 -0.1100
 1612TIP3    H126251   0.129   5.112  15.952  1.3990 -0.0576  0.5748
 1612TIP3    H226252   0.169   5.066  15.814  2.9166  0.9242  0.6601
 1613TIP3   OH226253   6.054   5.065  17.004  0.1268  0.5702  0.1388
 1613TIP3    H126254   5.994   5.051  17.078 -2.1557  0.1311 -1.6788
 1613TIP3    H226255   6.087   5.154  17.016 -0.2123  0.5275  1.6370
 1614TIP3   OH226256   0.396   0.001  15.598  0.3239 -1.0474 -0.4063
 1614TIP3    H126257   0.309  -0.027  15.626  0.6247 -1.8010 -0.2019
 1614TIP3    H226258   0.387   0.018  15.505 -0.8874  2.2436  0.1949
 1615TIP3   OH226259   1.087   2.402  10.370 -0.6603 -0.6107 -0.6136
 1615TIP3    H126260   1.069   2.324  10.422  0.6197 -0.9483 -0.6421
 1615TIP3    H226261   1.001   2.433  10.342 -1.2319 -1.5608  0.0498
 1616TIP3   OH226262   5.594   4.566  15.103 -0.5627 -0.1558 -0.5602
 1616TIP3    H126263   5.540   4.487  15.102 -0.8494  0.0132  0.4536
 1616TIP3    H226264   5.540   4.631  15.149  0.3282  0.1480  0.0685
 1617TIP3   OH226265   1.258   2.008  14.481 -0.4220 -0.1847 -0.3026
 1617TIP3    H126266   1.291   2.094  14.508  2.0061 -1.2495  0.4522
 1617TIP3    H226267   1.217   2.024  14.397 -0.9607  1.8807  0.2860
 1618TIP3   OH226268   0.200   0.039   0.757 -0.3596  0.0584  0.1432
 1618TIP3    H126269   0.209  -0.055   0.743 -0.5329 -0.4626  3.0026
 1618TIP3    H226270   0.139   0.047   0.830 -0.7321  2.4351 -0.3363
 1619TIP3   OH226271   1.344   2.828  12.663 -0.3202  0.6355 -0.1976
 1619TIP3    H126272   1.364   2.866  12.578 -0.4946  1.0102 -0.0727
 1619TIP3    H226273   1.295   2.896  12.709  0.4313  0.7221  0.4927
 1620TIP3   OH226274   0.480   4.586  11.939  0.1919 -0.2304 -0.4848
 1620TIP3    H126275   0.444   4.640  12.010 -1.3545 -2.0176  0.1519
 1620TIP3    H226276   0.525   4.514  11.984 -1.2574 -1.6749 -1.2757
 1621TIP3   OH226277   2.666   2.030   1.627 -0.0641 -0.0997 -0.4259
 1621TIP3    H126278   2.661   1.983   1.710  0.3953  0.5248 -0.0365
 1621TIP3    H226279   2.759   2.049   1.616 -0.2711  0.9306 -0.4556
 1622TIP3   OH226280   1.880   5.878  12.877 -0.1543  0.2759 -0.6122
 1622TIP3    H126281   1.928   5.960  12.888  0.1131  0.1081 -0.4922
 1622TIP3    H226282   1.794   5.904  12.844 -0.7509  0.7486  1.2136
 1623TIP3   OH226283   2.950   4.017   6.693  0.2208 -0.3473 -0.2956
 1623TIP3    H126284   2.968   4.021   6.599 -1.3692  0.7421 -0.5956
 1623TIP3    H226285   3.019   3.960   6.728  0.3590 -1.4722 -2.2289
 1624TIP3   OH226286   1.786   0.084  12.510 -0.1419  0.4250 -0.1158
 1624TIP3    H126287   1.860   0.063  12.453  0.2689 -0.1198  0.6132
 1624TIP3    H226288   1.795   0.178  12.528 -0.2173  0.5842 -0.8473
 1625TIP3   OH226289   5.367   2.864  10.735 -0.0256 -0.5812 -0.4069
 1625TIP3    H126290   5.283   2.892  10.698 -0.0793 -1.8310 -1.2966
 1625TIP3    H226291   5.356   2.874  10.830 -0.2710  1.6460 -0.6102
 1626TIP3   OH226292   1.494   0.097   1.362 -0.6189  0.0828  0.0571
 1626TIP3    H126293   1.547   0.156   1.308 -0.0827  1.0952  1.6229
 1626TIP3    H226294   1.499   0.013   1.318  2.9488 -0.0839  0.4846
 1627TIP3   OH226295   5.110   2.719   1.167  0.3523 -0.1429 -0.0708
 1627TIP3    H126296   5.095   2.808   1.199 -0.4046  0.1410 -1.1312
 1627TIP3    H226297   5.169   2.679   1.231 -1.0087  0.4037  1.5975
 1628TIP3   OH226298   2.407   5.033   5.790  0.2868  0.1639  0.1394
 1628TIP3    H126299   2.396   5.109   5.732  0.8363  1.1417  1.2594
 1628TIP3    H226300   2.318   5.007   5.813  0.0943  0.8346  0.1812
 1629TIP3   OH226301   3.885   5.626  12.604  0.5002 -0.2274  0.1530
 1629TIP3    H126302   3.965   5.614  12.554 -0.0575 -0.3398 -0.7440
 1629TIP3    H226303   3.873   5.545  12.652  0.2121 -0.7393 -0.7686
 1630TIP3   OH226304   1.677   0.851  11.795 -0.1819  0.3471  0.1942
 1630TIP3    H126305   1.716   0.928  11.754  0.4513  1.9602  3.4612
 1630TIP3    H226306   1.586   0.851  11.764  0.1867  1.5632 -0.9952
 1631TIP3   OH226307   5.136   1.830   2.687  0.3867  0.1188 -0.1346
 1631TIP3    H126308   5.161   1.741   2.710  0.4382 -0.3110 -1.7227
 1631TIP3    H226309   5.216   1.869   2.651  0.0845  0.4317 -0.4813
 1632TIP3   OH226310   2.883   3.681   5.112 -0.4657 -0.8361  0.1022
 1632TIP3    H126311   2.972   3.691   5.077 -0.6686  0.1884 -0.1570
 1632TIP3    H226312   2.826   3.702   5.037 -0.9198  1.7022  1.0503
 1633TIP3   OH226313   0.130   0.577  15.533 -0.1440 -0.6359 -0.4428
 1633TIP3    H126314   0.062   0.517  15.563 -0.4242 -1.6243 -2.8347
 1633TIP3    H226315   0.212   0.534  15.556 -0.3086 -0.3188  0.8015
 1634TIP3   OH226316   4.033   1.200   5.401 -0.3110 -0.4740  0.0708
 1634TIP3    H126317   4.019   1.121   5.349 -4.8331 -1.0952  1.7080
 1634TIP3    H226318   3.960   1.258   5.376 -1.3039  0.1625  3.7388
 1635TIP3   OH226319   3.944   5.262   0.853 -0.0991  0.0943  0.3633
 1635TIP3    H126320   3.907   5.275   0.766  1.0886  1.0305 -0.0313
 1635TIP3    H226321   3.890   5.193   0.892 -0.1455 -0.9155 -1.4060
 1636TIP3   OH226322   5.475   0.675   3.290 -0.4645  0.3828 -0.6193
 1636TIP3    H126323   5.435   0.588   3.294 -1.1234  0.6287 -1.4202
 1636TIP3    H226324   5.436   0.716   3.212 -0.4858  1.5536 -0.0225
 1637TIP3   OH226325   2.335   3.981   6.410 -0.0443 -0.8098 -0.4700
 1637TIP3    H126326   2.284   4.049   6.367  0.5175 -1.3241 -2.0365
 1637TIP3    H226327   2.364   4.020   6.492 -1.7148 -0.0143 -0.2155
 1638TIP3   OH226328   3.580   5.547  14.464  0.1884  0.3903 -0.2723
 1638TIP3    H126329   3.597   5.490  14.539  1.6298 -1.7955 -2.1226
 1638TIP3    H226330   3.634   5.624  14.480 -2.3621  1.7635  2.6537
 1639TIP3   OH226331   0.440   6.113   2.949  0.1184 -0.1528 -0.6421
 1639TIP3    H126332   0.395   6.133   3.032 -0.9976 -0.9425 -1.0267
 1639TIP3    H226333   0.432   6.018   2.940  0.9711 -0.1808 -1.2565
 1640TIP3   OH226334   5.211   5.435  16.600 -0.3135  0.6901  0.0979
 1640TIP3    H126335   5.262   5.402  16.673  1.8338  1.0680 -1.1239
 1640TIP3    H226336   5.176   5.519  16.630  1.2303  1.2338  0.4588
 1641TIP3   OH226337   0.600   6.183  16.982  0.7500  0.2463 -1.0105
 1641TIP3    H126338   0.533   6.191  17.050 -0.0769 -1.3000 -1.5981
 1641TIP3    H226339   0.659   6.114  17.013  1.3174  0.6824 -1.1038
 1642TIP3   OH226340   6.582   3.605   1.207 -0.4333  0.1095  0.1514
 1642TIP3    H126341   6.499   3.627   1.164 -0.7706 -0.5774  0.4398
 1642TIP3    H226342   6.565   3.522   1.252  0.5586 -0.2923 -0.1907
 1643TIP3   OH226343   5.732   6.523   1.718 -0.2297 -0.6952  0.4587
 1643TIP3    H126344   5.751   6.615   1.701 -2.6973 -0.5790 -2.3568
 1643TIP3    H226345   5.654   6.524   1.774 -0.8643 -1.0353 -0.4015
 1644TIP3   OH226346   0.029   6.692  16.088  0.2929  0.1400  0.4779
 1644TIP3    H126347  -0.015   6.736  16.160  0.9067  0.6056  0.5787
 1644TIP3    H226348   0.122   6.700  16.108  0.6191  2.0924 -1.3307
 1645TIP3   OH226349   0.026   3.086   6.763  0.3587 -0.2130 -0.3023
 1645TIP3    H126350   0.043   3.014   6.702  1.9403  0.2743 -0.4736
 1645TIP3    H226351   0.005   3.043   6.845 -2.4913 -0.9021 -1.2670
 1646TIP3   OH226352   2.400   2.356  13.914  0.1146 -0.0932  0.2032
 1646TIP3    H126353   2.355   2.361  13.829 -0.7807 -0.0324  0.6649
 1646TIP3    H226354   2.444   2.271  13.913 -1.3810 -0.9033  0.3822
 1647TIP3   OH226355   2.711   6.411   5.300 -0.2587 -0.2771  0.7400
 1647TIP3    H126356   2.806   6.423   5.305 -0.2015  0.7677 -1.5456
 1647TIP3    H226357   2.676   6.498   5.282 -1.3748 -0.9895 -0.8625
 1648TIP3   OH226358   2.412   2.612   5.191 -0.3123  0.3399  0.0291
 1648TIP3    H126359   2.380   2.656   5.112  1.4978  1.4784 -0.1405
 1648TIP3    H226360   2.412   2.681   5.258  1.1571  0.2494  0.1581
 1649TIP3   OH226361   5.293   4.794   1.143 -0.7490 -0.5077 -0.1228
 1649TIP3    H126362   5.238   4.754   1.211 -0.2422 -2.5384 -0.8535
 1649TIP3    H226363   5.314   4.881   1.178 -2.2940 -0.6681  1.3206
 1650TIP3   OH226364   0.925   6.264  12.596  0.2849  0.0103  0.1603
 1650TIP3    H126365   0.957   6.252  12.507  1.4669 -0.9659  0.6879
 1650TIP3    H226366   0.930   6.359  12.611  3.9719 -0.0958  0.5013
 1651TIP3   OH226367   6.553   0.943  12.304 -0.3070  0.7679  0.0880
 1651TIP3    H126368   6.639   0.923  12.342  0.0228  1.5806 -0.2175
 1651TIP3    H226369   6.518   0.857  12.280  0.5108  0.4409  0.0129
 1652TIP3   OH226370   5.717   0.096  10.545 -0.2536  0.4808 -0.3054
 1652TIP3    H126371   5.781   0.109  10.475  0.9810 -0.9813  0.4869
 1652TIP3    H226372   5.707   0.001  10.550 -0.1473  0.5402  1.6443
 1653TIP3   OH226373   4.254   3.725   5.554 -0.5999  0.3449 -0.0096
 1653TIP3    H126374   4.225   3.731   5.464  1.0422  0.7632 -0.5556
 1653TIP3    H226375   4.310   3.802   5.567  1.3173 -1.0402  0.5002
 1654TIP3   OH226376   2.423   1.384   3.421  0.1530 -0.4009 -0.0133
 1654TIP3    H126377   2.513   1.393   3.452  0.3819  0.7913 -0.9563
 1654TIP3    H226378   2.431   1.353   3.331 -0.2989  1.0347 -0.5783
 1655TIP3   OH226379   0.248   3.663   2.994 -0.1473 -0.1720  0.0217
 1655TIP3    H126380   0.174   3.662   2.933 -0.6595 -1.2467  0.6484
 1655TIP3    H226381   0.250   3.753   3.028 -2.4714 -0.6192  1.5336
 1656TIP3   OH226382   0.212   4.670   3.029  0.4422  0.1898  0.2465
 1656TIP3    H126383   0.237   4.715   2.948  1.0206 -1.3490 -0.4876
 1656TIP3    H226384   0.295   4.652   3.073  0.3291 -1.0468 -0.0033
 1657TIP3   OH226385   5.727   5.380  16.536 -0.1386 -0.1524 -0.6912
 1657TIP3    H126386   5.699   5.393  16.626  0.7788 -0.8487 -0.2927
 1657TIP3    H226387   5.667   5.433  16.484 -0.7302  0.1822  0.3185
 1658TIP3   OH226388   2.093   1.521   5.991 -0.4892 -0.4672  0.3770
 1658TIP3    H126389   2.156   1.469   6.041 -0.1538 -1.7646 -1.2864
 1658TIP3    H226390   2.133   1.529   5.904 -1.5655  0.7204 -0.0359
 1659TIP3   OH226391   2.905   4.468  17.131 -0.1588  0.0125  0.0360
 1659TIP3    H126392   2.941   4.526  17.065  0.1258 -0.1915  0.0074
 1659TIP3    H226393   2.810   4.469  17.116 -0.1838  0.6480  0.1877
 1660TIP3   OH226394   5.212   1.581   1.020 -0.0767 -0.0603  0.2592
 1660TIP3    H126395   5.293   1.536   1.045 -0.5744 -0.7831  0.6117
 1660TIP3    H226396   5.153   1.566   1.093 -0.4022  0.8057  0.1795
 1661TIP3   OH226397   6.636   6.483  11.677  0.2515  0.0851 -0.0792
 1661TIP3    H126398   6.634   6.571  11.639  3.5276 -0.3240 -1.5548
 1661TIP3    H226399   6.674   6.428  11.608 -0.4987 -2.2538  1.2628
 1662TIP3   OH226400   3.251   2.289   5.505  0.2675 -0.1509 -0.4522
 1662TIP3    H126401   3.201   2.209   5.515  0.2671 -0.0039  0.8925
 1662TIP3    H226402   3.291   2.282   5.418  0.4509 -1.6965 -0.2665
 1663TIP3   OH226403   3.882   5.914  13.908 -0.0688  0.8115 -0.0147
 1663TIP3    H126404   3.856   6.006  13.916 -0.3464  0.7555 -0.2114
 1663TIP3    H226405   3.803   5.866  13.932  0.3689  0.6067  1.0482
 1664TIP3   OH226406   6.296   6.255  13.027 -0.3419  0.4232 -0.5691
 1664TIP3    H126407   6.264   6.331  12.978  0.8180  1.4806  0.2338
 1664TIP3    H226408   6.264   6.270  13.116 -0.8839 -0.5318 -0.5935
 1665TIP3   OH226409   5.724   1.891   5.454  0.2387 -0.4851  0.1631
 1665TIP3    H126410   5.768   1.882   5.539  1.0914 -1.3018 -0.3636
 1665TIP3    H226411   5.682   1.806   5.440 -0.1501 -0.2496 -0.1032
 1666TIP3   OH226412   3.239   0.193   0.127 -0.2698  0.3362 -0.6247
 1666TIP3    H126413   3.324   0.201   0.085  0.9218  0.4008  1.6277
 1666TIP3    H226414   3.252   0.128   0.196 -2.1133  0.1690 -0.3784
 1667TIP3   OH226415   4.444   0.742   0.149 -0.3248 -0.1024 -0.2473
 1667TIP3    H126416   4.369   0.797   0.129 -0.6923 -0.7308 -0.6408
 1667TIP3    H226417   4.481   0.779   0.229  1.5880  2.9082 -2.3047
 1668TIP3   OH226418   4.680   2.814  11.821 -0.4442  0.5959  0.2840
 1668TIP3    H126419   4.641   2.727  11.807 -0.2476  0.7244 -1.1549
 1668TIP3    H226420   4.624   2.873  11.771  0.6386  1.0060 -0.4651
 1669TIP3   OH226421   1.552   4.568  10.921  0.0516  0.3478 -0.3123
 1669TIP3    H126422   1.482   4.630  10.903 -3.1492 -2.8048  0.1660
 1669TIP3    H226423   1.564   4.571  11.016 -0.3549 -0.0038 -0.2496
 1670TIP3   OH226424   5.942   2.051  13.369 -0.2796 -0.1435 -0.4109
 1670TIP3    H126425   6.033   2.082  13.365 -0.3267 -0.0978 -1.2381
 1670TIP3    H226426   5.890   2.126  13.340 -0.4619 -0.6921 -1.5498
 1671TIP3   OH226427   2.884   1.261   5.069  0.1664  0.3777  0.1344
 1671TIP3    H126428   2.964   1.229   5.028  0.9970  0.7117  1.4228
 1671TIP3    H226429   2.833   1.182   5.087 -0.8000  0.2973 -2.5754
 1672TIP3   OH226430   3.752   4.519   3.003  0.4309  0.5522  0.0950
 1672TIP3    H126431   3.667   4.483   2.976  1.0366 -0.6345 -0.2972
 1672TIP3    H226432   3.816   4.467   2.955  1.4099  0.9152  0.9794
 1673TIP3   OH226433   3.635   3.676   6.496 -0.1563  0.4221  0.3507
 1673TIP3    H126434   3.682   3.666   6.414 -0.3798  1.4449  0.0782
 1673TIP3    H226435   3.599   3.765   6.492 -2.3833 -0.4162  0.4095
 1674TIP3   OH226436   6.620   4.204  14.259 -0.0085  0.0933 -1.3017
 1674TIP3    H126437   6.586   4.252  14.183  1.2664 -0.7362 -2.4506
 1674TIP3    H226438   6.714   4.224  14.260 -0.2111  1.2931  1.0041
 1675TIP3   OH226439   5.840   5.868  15.161 -0.2435  0.0252 -0.3451
 1675TIP3    H126440   5.846   5.773  15.155 -2.7897 -0.2184 -0.0282
 1675TIP3    H226441   5.768   5.891  15.103 -0.2273  1.6869  0.2471
 1676TIP3   OH226442   1.124   2.546   4.538  0.0271  0.4833  0.0840
 1676TIP3    H126443   1.030   2.529   4.527  0.4231 -1.3589 -0.9290
 1676TIP3    H226444   1.159   2.548   4.449  1.1063  0.0821  0.4818
 1677TIP3   OH226445   4.666   3.775   4.780 -0.0726 -0.6131 -0.1657
 1677TIP3    H126446   4.713   3.795   4.699  0.2510  0.2411  0.2348
 1677TIP3    H226447   4.698   3.837   4.844 -1.2809 -0.4233  0.2902
 1678TIP3   OH226448   1.167   2.492  13.620 -0.0996 -0.1346 -0.4728
 1678TIP3    H126449   1.202   2.568  13.666 -1.1319  1.5596 -2.3205
 1678TIP3    H226450   1.245   2.446  13.586  0.5111  0.8445 -0.4363
 1679TIP3   OH226451   2.757   4.370  12.371 -0.1244 -0.2764 -0.1354
 1679TIP3    H126452   2.747   4.442  12.433 -0.0540 -0.7330  0.4199
 1679TIP3    H226453   2.755   4.291  12.426 -0.4063 -0.7066 -0.7526
 1680TIP3   OH226454   1.591   2.790   5.682 -0.6337 -0.6757 -0.4674
 1680TIP3    H126455   1.608   2.831   5.598 -3.5838  0.1726 -0.7529
 1680TIP3    H226456   1.673   2.745   5.704  1.5518  2.3101 -1.8600
 1681TIP3   OH226457   5.537   5.420   2.626  0.2156 -0.0829 -0.8567
 1681TIP3    H126458   5.530   5.392   2.535 -0.0455 -2.1121 -0.2558
 1681TIP3    H226459   5.454   5.393   2.665 -0.2386  1.9876 -0.2986
 1682TIP3   OH226460   1.402   3.481   5.832 -0.3683  0.5545  0.4048
 1682TIP3    H126461   1.312   3.457   5.808 -0.4208  1.0651  0.0853
 1682TIP3    H226462   1.457   3.422   5.780 -0.4952  1.1784 -0.4576
 1683TIP3   OH226463   5.291   5.799  16.141  0.3752  0.4195 -0.8776
 1683TIP3    H126464   5.247   5.729  16.189  0.9455  1.0331  0.6228
 1683TIP3    H226465   5.230   5.873  16.145  0.8495  0.7805 -0.2006
 1684TIP3   OH226466   2.798   1.826  13.690  0.5656 -0.2469  0.1438
 1684TIP3    H126467   2.806   1.920  13.679 -1.3397 -0.0745 -0.0752
 1684TIP3    H226468   2.724   1.801  13.634  1.8100 -2.0869 -0.7911
 1685TIP3   OH226469   0.355   4.685  14.355 -0.3370 -0.6692 -0.6967
 1685TIP3    H126470   0.341   4.741  14.432 -1.3540  1.7507 -2.5241
 1685TIP3    H226471   0.449   4.671  14.353  0.0009  1.2186 -0.2715
 1686TIP3   OH226472   2.459   3.811  17.243 -0.0374  0.0437  0.8098
 1686TIP3    H126473   2.553   3.793  17.249  0.5446  1.9822 -1.3060
 1686TIP3    H226474   2.421   3.728  17.212  1.4054  0.0048 -1.0538
 1687TIP3   OH226475   0.459   4.549  11.667  0.2096  0.5928 -0.1745
 1687TIP3    H126476   0.466   4.640  11.637  0.2272  0.8339  0.5404
 1687TIP3    H226477   0.463   4.555  11.763 -2.6386  0.1054  0.0447
 1688TIP3   OH226478   4.594   5.766   0.417  0.0719  0.5602 -0.0577
 1688TIP3    H126479   4.601   5.811   0.501  0.6394 -1.9769  1.3274
 1688TIP3    H226480   4.670   5.708   0.413 -1.3864 -1.4015 -1.0342
 1689TIP3   OH226481   0.879   2.161   1.903  0.1084  0.4481  0.4387
 1689TIP3    H126482   0.881   2.244   1.855  1.9546 -0.1673 -0.6759
 1689TIP3    H226483   0.916   2.097   1.842  0.1628 -0.8982  1.8056
 1690TIP3   OH226484   1.359   3.811  11.661  0.1533  0.4879 -0.2539
 1690TIP3    H126485   1.449   3.781  11.645  0.6316  1.2792  0.8378
 1690TIP3    H226486   1.359   3.901  11.629 -0.4663  0.2597 -0.9079
 1691TIP3   OH226487   1.769   1.362  14.838  0.0121 -0.3582 -0.3874
 1691TIP3    H126488   1.706   1.378  14.768 -1.1283 -2.5962  0.0474
 1691TIP3    H226489   1.752   1.432  14.901 -2.5881 -1.2712  0.0400
 1692TIP3   OH226490   2.364   1.544  11.423 -0.3035  0.1459 -0.1509
 1692TIP3    H126491   2.279   1.526  11.382  1.2893 -2.5533 -2.6210
 1692TIP3    H226492   2.419   1.575  11.351  1.2124  0.4761  1.1007
 1693TIP3   OH226493   4.544   4.972  12.292 -0.0216 -0.4694 -0.2714
 1693TIP3    H126494   4.562   5.061  12.323  0.5534 -1.0744  1.2633
 1693TIP3    H226495   4.449   4.966  12.292 -0.2236  1.0096 -3.1556
 1694TIP3   OH226496   5.859   6.320  15.089 -0.0362  0.5246 -0.2907
 1694TIP3    H126497   5.790   6.324  15.023 -0.0795  0.3494 -0.2568
 1694TIP3    H226498   5.828   6.377  15.160 -0.1511  0.4381 -0.2713
 1695TIP3   OH226499   4.058   6.106   5.570  0.2972  0.8096  0.7645
 1695TIP3    H126500   4.153   6.103   5.574  0.3526  0.3617 -0.3896
 1695TIP3    H226501   4.029   6.042   5.636  0.8246  0.0967  0.3154
 1696TIP3   OH226502   5.178   5.776  13.612 -0.1086  0.3662  0.6001
 1696TIP3    H126503   5.119   5.852  13.622  0.5980  0.8123  1.5215
 1696TIP3    H226504   5.119   5.703  13.592 -0.9987  0.7813  1.6025
 1697TIP3   OH226505   0.677   5.816   5.822  0.0922 -0.1249  0.1181
 1697TIP3    H126506   0.708   5.901   5.854 -2.0046  0.7354  0.0843
 1697TIP3    H226507   0.649   5.770   5.901 -0.9705  0.2119 -0.0386
 1698TIP3   OH226508   3.286   5.524   5.825 -0.7148  0.2894 -0.2327
 1698TIP3    H126509   3.210   5.567   5.865 -0.5760  1.0767 -0.7803
 1698TIP3    H226510   3.249   5.451   5.775 -1.0680  0.3958 -0.1291
 1699TIP3   OH226511   0.325   2.256  13.778 -0.0588 -0.3839  0.4207
 1699TIP3    H126512   0.330   2.207  13.860 -1.6842 -0.5765  0.4322
 1699TIP3    H226513   0.338   2.347  13.803  0.8298 -0.5815  0.6951
 1700TIP3   OH226514   1.302   1.297  16.196 -0.1733 -0.3113 -0.7254
 1700TIP3    H126515   1.330   1.259  16.279 -1.4766  0.3726  0.0535
 1700TIP3    H226516   1.380   1.343  16.164  0.3646 -0.6443  0.0741
 1701TIP3   OH226517   0.615   5.851   2.150 -0.2804 -0.2890 -0.0974
 1701TIP3    H126518   0.704   5.818   2.152 -0.3719 -0.5716 -0.5580
 1701TIP3    H226519   0.563   5.783   2.192  0.0428  0.9720  2.5553
 1702TIP3   OH226520   1.388   3.766   0.654  0.3806 -0.4709  0.0523
 1702TIP3    H126521   1.456   3.779   0.587 -2.8792  1.4326 -3.2411
 1702TIP3    H226522   1.372   3.671   0.654  1.4770 -0.6749 -0.7279
 1703TIP3   OH226523   0.391   4.467   5.736 -0.1976 -0.5905 -0.1183
 1703TIP3    H126524   0.433   4.417   5.806  0.6283  1.9726  1.3475
 1703TIP3    H226525   0.303   4.486   5.769  0.1758  0.5775  0.2617
 1704TIP3   OH226526   1.876   3.052  13.878  0.3120  0.0102  0.3041
 1704TIP3    H126527   1.809   2.989  13.906  0.0997  0.4678  0.8409
 1704TIP3    H226528   1.958   3.004  13.889  0.1813 -0.0457  1.0923
 1705TIP3   OH226529   3.975   3.997  15.453 -0.3672 -0.5358 -0.2041
 1705TIP3    H126530   3.916   3.922  15.457 -1.7492  0.4620 -1.0612
 1705TIP3    H226531   4.063   3.959  15.453 -0.9989 -2.0802  0.6876
 1706TIP3   OH226532   1.184   0.134   2.862 -0.6381  0.1823  0.3702
 1706TIP3    H126533   1.219   0.194   2.927 -2.2617 -0.4555  1.9251
 1706TIP3    H226534   1.103   0.176   2.832 -0.9138 -0.4417  0.2265
 1707TIP3   OH226535   5.906   5.458  14.647 -0.5368 -0.1919  0.1996
 1707TIP3    H126536   5.930   5.365  14.642 -1.7416 -0.6048  1.3638
 1707TIP3    H226537   5.962   5.501  14.583  0.5698 -1.6199  0.1550
 1708TIP3   OH226538   0.466   2.168  11.704  0.3823  0.0847  0.5539
 1708TIP3    H126539   0.524   2.109  11.752  0.6836  0.9794  1.3083
 1708TIP3    H226540   0.447   2.121  11.623  1.7572 -0.4455  0.5090
 1709TIP3   OH226541   6.018   0.560   5.531  0.3924 -0.1249  0.1104
 1709TIP3    H126542   6.044   0.533   5.619  1.2962  0.6384  0.0997
 1709TIP3    H226543   6.076   0.634   5.511 -0.4857  0.3531 -0.7339
 1710TIP3   OH226544   0.402   0.995   2.468 -0.0848  0.1786 -0.1903
 1710TIP3    H126545   0.483   1.043   2.456 -0.6128  0.8668 -1.1804
 1710TIP3    H226546   0.335   1.051   2.430 -1.5241  1.0470  3.2104
 1711TIP3   OH226547   6.308   4.774  13.947  0.1402  0.5174  0.3122
 1711TIP3    H126548   6.274   4.858  13.919 -2.4836 -0.1017  1.3152
 1711TIP3    H226549   6.369   4.795  14.018 -0.2943  1.5827  0.3855
 1712TIP3   OH226550   1.446   0.711   5.993  0.6217 -0.1361 -0.5099
 1712TIP3    H126551   1.485   0.694   6.078  1.6264  1.4287 -0.6188
 1712TIP3    H226552   1.406   0.628   5.968  0.1612 -0.5829  1.5301
 1713TIP3   OH226553   5.147   2.885  10.521  0.3838  0.5256  0.0439
 1713TIP3    H126554   5.154   2.811  10.461 -1.1076 -0.4821  1.0609
 1713TIP3    H226555   5.143   2.962  10.463 -1.9079 -0.4689 -1.2554
 1714TIP3   OH226556   1.274   4.369  14.863  0.4067  0.3170 -0.5786
 1714TIP3    H126557   1.253   4.449  14.815 -1.4539  0.6678  0.7605
 1714TIP3    H226558   1.212   4.366  14.935  1.6360 -1.3966  0.4928
 1715TIP3   OH226559   4.817   2.581  12.491  0.0815  0.1717  0.6791
 1715TIP3    H126560   4.830   2.517  12.561  1.0086  1.1983  1.4826
 1715TIP3    H226561   4.854   2.539  12.413 -0.6293 -0.8398  0.8698
 1716TIP3   OH226562   6.187   5.487   3.504  0.2357 -0.4430  1.0200
 1716TIP3    H126563   6.269   5.527   3.474 -1.0262  1.1067 -0.5277
 1716TIP3    H226564   6.188   5.501   3.599  1.2860  0.4628  0.9047
 1717TIP3   OH226565   0.501   5.882  11.370  0.2786  0.6095  0.6661
 1717TIP3    H126566   0.596   5.879  11.359  0.6733  0.1997  3.5608
 1717TIP3    H226567   0.472   5.953  11.312  2.0992 -0.2195 -1.4062
 1718TIP3   OH226568   1.118   3.283  16.826 -0.6428 -0.4059  0.3270
 1718TIP3    H126569   1.063   3.359  16.805  0.3345  0.6551  1.4916
 1718TIP3    H226570   1.064   3.230  16.885 -0.6668  0.3080  0.9595
 1719TIP3   OH226571   2.515   3.479  16.091 -0.2035  0.2577  0.4262
 1719TIP3    H126572   2.533   3.551  16.152 -1.2050  0.4369  0.5319
 1719TIP3    H226573   2.601   3.453  16.059  0.3332  0.3556  1.6992
 1720TIP3   OH226574   4.525   0.979  17.028 -0.0075  1.3925 -0.1855
 1720TIP3    H126575   4.506   1.053  17.086 -0.3117  0.5958  0.7560
 1720TIP3    H226576   4.508   0.902  17.081 -0.0053  0.6340 -1.2529
 1721TIP3   OH226577   5.430   1.335   4.780  0.0936 -0.1437  0.1170
 1721TIP3    H126578   5.453   1.276   4.708  1.8529 -1.0338  1.3236
 1721TIP3    H226579   5.399   1.276   4.849 -1.7998  0.7190  0.0640
 1722TIP3   OH226580   1.932   3.101   1.233 -0.6150 -0.3726  0.1224
 1722TIP3    H126581   1.869   3.086   1.303 -0.7069  0.3833  0.2169
 1722TIP3    H226582   1.928   3.196   1.218  0.2270 -0.3697 -0.1240
 1723TIP3   OH226583   0.219   2.389   5.770  0.2393 -0.4052 -0.1179
 1723TIP3    H126584   0.285   2.360   5.834  0.3569  0.7428  0.3017
 1723TIP3    H226585   0.270   2.417   5.694  0.0591 -2.7817 -1.1972
 1724TIP3   OH226586   0.443   4.615  16.696 -0.1191  0.6260 -0.1634
 1724TIP3    H126587   0.371   4.621  16.759 -0.2448 -0.8262 -0.1347
 1724TIP3    H226588   0.518   4.656  16.741 -0.2868 -0.1086  0.8184
 1725TIP3   OH226589   3.418   2.939   1.835  0.1265  0.2316  0.2034
 1725TIP3    H126590   3.393   2.850   1.862  0.8934 -0.1171 -0.2333
 1725TIP3    H226591   3.468   2.927   1.755 -1.6588  1.2306 -1.1406
 1726TIP3   OH226592   2.077   6.454  13.343 -0.2122  0.5735 -0.2500
 1726TIP3    H126593   2.173   6.451  13.342 -0.1878  1.1289 -0.3105
 1726TIP3    H226594   2.055   6.517  13.274 -0.6523 -0.1413 -0.7799
 1727TIP3   OH226595   3.639   4.305   0.700 -0.3314 -0.0382 -0.0976
 1727TIP3    H126596   3.653   4.308   0.795  0.2598  0.8258 -0.1991
 1727TIP3    H226597   3.727   4.295   0.663 -0.6560 -1.5526 -0.5341
 1728TIP3   OH226598   5.406   6.748  16.613  0.0231  0.1592 -0.1729
 1728TIP3    H126599   5.379   6.813  16.677 -0.9218 -0.8953  0.5525
 1728TIP3    H226600   5.344   6.758  16.541 -0.3119 -0.1175  0.0709
 1729TIP3   OH226601   4.910   5.736  13.153  0.0388 -0.3849  0.2791
 1729TIP3    H126602   4.948   5.673  13.092  1.2170  0.8898 -0.3547
 1729TIP3    H226603   4.815   5.725  13.143  0.1894  0.0090 -2.0473
 1730TIP3   OH226604   5.826   3.363  12.869  0.7492 -0.1495  0.7425
 1730TIP3    H126605   5.834   3.269  12.850  0.0061 -0.2007  0.6577
 1730TIP3    H226606   5.816   3.367  12.964 -1.4324 -0.3351  0.5593
 1731TIP3   OH226607   3.569   2.796   0.886  0.2378  0.1090  0.0143
 1731TIP3    H126608   3.577   2.730   0.955  0.8291  0.8651  0.7020
 1731TIP3    H226609   3.507   2.859   0.921 -0.1440  0.0387 -0.5339
 1732TIP3   OH226610   6.652   0.967  14.643 -0.2362  0.0310 -0.6909
 1732TIP3    H126611   6.705   0.999  14.570  2.1929  1.1099  1.3958
 1732TIP3    H226612   6.581   1.031  14.651  1.2449  1.7063 -0.2521
 1733TIP3   OH226613   6.373   1.035   2.801 -0.2030  0.3208 -0.2197
 1733TIP3    H126614   6.448   1.081   2.761  0.9245 -0.0331  1.4006
 1733TIP3    H226615   6.373   0.949   2.760  0.5595  0.1712  0.0851
 1734TIP3   OH226616   5.333   6.414   0.758  0.5644  0.2144 -0.2795
 1734TIP3    H126617   5.301   6.372   0.679 -1.3947  0.5106  0.3043
 1734TIP3    H226618   5.348   6.341   0.819 -0.2805  0.1570 -0.1327
 1735TIP3   OH226619   1.595   3.962  12.115 -0.0266  0.2931  0.2712
 1735TIP3    H126620   1.601   4.047  12.072  0.7548  0.5546  0.8898
 1735TIP3    H226621   1.605   3.980  12.208 -0.9497 -0.3592  0.5172
 1736TIP3   OH226622   1.457   6.504  15.048 -0.5074  0.4263  0.6040
 1736TIP3    H126623   1.431   6.483  14.958 -2.0104  0.8062  0.9138
 1736TIP3    H226624   1.380   6.482  15.100  0.4016  0.0804  1.8289
 1737TIP3   OH226625   4.040   1.455  14.953 -0.4951 -0.5041  0.3375
 1737TIP3    H126626   4.108   1.511  14.915 -1.2859  1.0451  1.1326
 1737TIP3    H226627   3.965   1.513  14.965 -1.4628 -1.8292  0.8895
 1738TIP3   OH226628   0.361   6.016  16.481  0.0442 -0.1218 -0.4780
 1738TIP3    H126629   0.419   6.020  16.557  0.2785 -0.7883 -0.6201
 1738TIP3    H226630   0.290   6.077  16.502  0.6329  0.4775 -0.1694
 1739TIP3   OH226631   2.999   6.494   2.172 -0.3461  0.0077  0.1645
 1739TIP3    H126632   2.995   6.490   2.077  0.7541 -1.1643  0.1311
 1739TIP3    H226633   3.087   6.462   2.194 -0.3097  0.9548  1.5415
 1740TIP3   OH226634   4.546   2.358   1.297 -0.6652 -0.5478  0.3542
 1740TIP3    H126635   4.592   2.306   1.362 -1.1614 -0.0711  1.0938
 1740TIP3    H226636   4.560   2.449   1.324 -0.6676 -0.3308 -0.3429
 1741TIP3   OH226637   1.289   2.973   0.327 -0.0203  0.0340  0.0010
 1741TIP3    H126638   1.225   2.919   0.281 -0.2959  0.0895  0.3202
 1741TIP3    H226639   1.319   3.035   0.261  0.9634 -1.0611 -0.6301
 1742TIP3   OH226640   6.651   4.943   4.808  0.1862 -0.1382 -0.6124
 1742TIP3    H126641   6.697   4.860   4.806 -0.0271 -0.3207  0.8715
 1742TIP3    H226642   6.626   4.955   4.899 -0.4537  1.1933 -0.9260
 1743TIP3   OH226643   4.131   0.852   4.990  0.0336 -0.1125  0.2173
 1743TIP3    H126644   4.109   0.908   5.064  1.1838  0.8062 -0.1032
 1743TIP3    H226645   4.072   0.881   4.920 -0.6116 -0.5474  0.5702
 1744TIP3   OH226646   5.562   0.332  16.877 -0.1287  0.1433 -0.2848
 1744TIP3    H126647   5.561   0.265  16.945  0.9312 -0.2313 -0.6266
 1744TIP3    H226648   5.638   0.311  16.823  0.5783  1.9459 -0.0588
 1745TIP3   OH226649   4.543   5.428  11.448 -0.0190 -0.1846  0.6112
 1745TIP3    H126650   4.448   5.420  11.458 -0.0809 -0.9302 -0.3394
 1745TIP3    H226651   4.577   5.417  11.536 -0.7912 -0.4870  0.8865
 1746TIP3   OH226652   5.604   6.656   0.312  0.4008  0.0710 -0.8740
 1746TIP3    H126653   5.662   6.624   0.382  1.0041 -0.7420 -1.7243
 1746TIP3    H226654   5.516   6.650   0.349  0.7736  0.5251  0.1405
 1747TIP3   OH226655   2.077   1.546  12.138  0.2619 -0.3052 -0.4528
 1747TIP3    H126656   2.126   1.629  12.143  1.0083 -0.6750 -1.2241
 1747TIP3    H226657   1.990   1.572  12.107  0.3224  0.2519 -0.1730
 1748TIP3   OH226658   3.870   4.979  11.650 -0.0344 -0.3513 -0.3138
 1748TIP3    H126659   3.944   4.920  11.634  0.8447  0.7570 -0.4447
 1748TIP3    H226660   3.815   4.971  11.573  0.9427  0.2275 -1.0890
 1749TIP3   OH226661   4.351   3.343   5.806 -0.2118 -0.3712 -0.9412
 1749TIP3    H126662   4.368   3.261   5.761  0.8416 -2.0971  2.2705
 1749TIP3    H226663   4.407   3.407   5.761  2.8635 -2.5400 -0.5388
 1750TIP3   OH226664   0.184   5.668  13.019  0.4350  0.1574  0.0210
 1750TIP3    H126665   0.198   5.618  13.100  0.6016  0.8953  0.4552
 1750TIP3    H226666   0.208   5.607  12.949  1.4804 -0.0990  0.5767
 1751TIP3   OH226667   1.802   3.255   4.993 -0.7574 -0.7916  0.8480
 1751TIP3    H126668   1.873   3.225   4.937 -0.1179 -0.0170  1.2154
 1751TIP3    H226669   1.726   3.205   4.966 -0.9697  0.8920 -2.0548
 1752TIP3   OH226670   4.354   0.966  15.981 -0.0250 -0.1209  0.1469
 1752TIP3    H126671   4.294   1.035  15.953 -0.5706 -0.8736 -0.5776
 1752TIP3    H226672   4.298   0.898  16.018  0.6026  0.4021  2.2293
 1753TIP3   OH226673   0.237   3.752  13.607  0.8381  0.3657  0.2171
 1753TIP3    H126674   0.153   3.778  13.569  0.6107  0.9376  1.0706
 1753TIP3    H226675   0.297   3.746  13.532  0.3255  1.1362 -0.2691
 1754TIP3   OH226676   5.782   1.564  13.125 -0.0617 -0.5553  0.5216
 1754TIP3    H126677   5.856   1.522  13.167  1.1198  0.4649 -0.4475
 1754TIP3    H226678   5.807   1.570  13.033 -1.3982 -0.2905  0.1535
 1755TIP3   OH226679   4.031   0.449   6.690 -0.3002  0.0332 -0.0082
 1755TIP3    H126680   3.943   0.411   6.698 -0.5584  0.6585  0.1809
 1755TIP3    H226681   4.020   0.540   6.717  0.3738  0.1626 -0.1598
 1756TIP3   OH226682   2.655   3.926   5.787  0.4646 -0.4995  0.8353
 1756TIP3    H126683   2.576   3.872   5.779 -0.6033  1.1784 -0.4718
 1756TIP3    H226684   2.623   4.016   5.787  2.2976  0.2045  1.7491
 1757TIP3   OH226685   4.501   3.568  16.749  0.4120 -0.0023 -0.2588
 1757TIP3    H126686   4.420   3.520  16.732  1.4255 -1.3204 -1.6893
 1757TIP3    H226687   4.508   3.572  16.844 -0.2356 -1.8017 -0.1039
 1758TIP3   OH226688   3.986   5.820  10.464  1.0712 -0.5034 -0.5594
 1758TIP3    H126689   3.918   5.843  10.402 -0.3017  0.7133  1.3144
 1758TIP3    H226690   3.941   5.768  10.531  1.1290  2.8508  2.3565
 1759TIP3   OH226691   3.245   0.860  11.870  0.0753  0.2298 -0.1326
 1759TIP3    H126692   3.165   0.814  11.896  1.0745 -0.2665  2.3557
 1759TIP3    H226693   3.315   0.797  11.886  0.9599 -0.0329 -4.0116
 1760TIP3   OH226694   0.645   5.584   1.837  0.0056 -0.2700  0.0150
 1760TIP3    H126695   0.640   5.675   1.865 -1.1761 -0.8686  1.9962
 1760TIP3    H226696   0.559   5.566   1.799  0.8663 -0.0850 -2.1377
 1761TIP3   OH226697   3.246   0.487   4.740 -0.7781  0.3872  0.1817
 1761TIP3    H126698   3.283   0.399   4.738  0.0943  0.6373  2.4147
 1761TIP3    H226699   3.223   0.505   4.649  0.6743 -1.4443 -0.6258
 1762TIP3   OH226700   6.456   2.242   4.686 -0.0779 -0.5943  0.7185
 1762TIP3    H126701   6.449   2.320   4.630  1.5250 -0.3594  0.7969
 1762TIP3    H226702   6.398   2.260   4.760  0.1806  0.4730  0.6735
 1763TIP3   OH226703   5.967   3.990   4.257 -0.4528  0.5017 -0.0305
 1763TIP3    H126704   5.905   4.060   4.238  0.0742  0.4654 -2.1701
 1763TIP3    H226705   6.046   4.035   4.287  0.1918  0.9723 -2.2506
 1764TIP3   OH226706   1.276   0.998   1.058  1.0054  0.2529 -0.4077
 1764TIP3    H126707   1.333   0.939   1.108 -0.2926 -1.1351 -0.4970
 1764TIP3    H226708   1.328   1.021   0.981  0.7636 -2.7870 -1.6408
 1765TIP3   OH226709   0.228   5.432  14.335  0.8770  0.2918  0.5319
 1765TIP3    H126710   0.275   5.488  14.272 -0.5477  0.7774 -0.1457
 1765TIP3    H226711   0.228   5.483  14.416  2.1641 -0.0515  0.7672
 1766TIP3   OH226712   5.422   2.467  16.753  0.1064  0.2566 -0.0554
 1766TIP3    H126713   5.464   2.542  16.795 -1.1722  0.2734  1.2756
 1766TIP3    H226714   5.471   2.391  16.784  0.5270  0.4317 -0.2879
 1767TIP3   OH226715   0.270   1.837   1.962  0.7207  0.0678  0.3176
 1767TIP3    H126716   0.253   1.910   2.022 -0.8652 -0.4494  0.5520
 1767TIP3    H226717   0.359   1.852   1.929  0.7146  1.6632  0.9671
 1768TIP3   OH226718   6.694   3.819  11.066  0.1221 -0.0295  0.4726
 1768TIP3    H126719   6.732   3.863  10.990  0.2884 -0.9208  0.0220
 1768TIP3    H226720   6.615   3.776  11.031  0.9563 -1.6333  0.4478
 1769TIP3   OH226721   0.713   0.667   5.021 -0.1139  0.1924 -0.4049
 1769TIP3    H126722   0.712   0.588   5.075 -0.8677  0.5480  0.1222
 1769TIP3    H226723   0.638   0.657   4.962 -2.0230  1.7603  1.5702
 1770TIP3   OH226724   6.606   2.407   2.209 -0.0561  0.2494 -0.2104
 1770TIP3    H126725   6.640   2.491   2.238  0.2048 -0.3589  1.3342
 1770TIP3    H226726   6.683   2.350   2.202 -0.3824 -0.2607  0.2223
 1771TIP3   OH226727   6.707   1.308   2.571  0.0908  0.2010  0.3742
 1771TIP3    H126728   6.636   1.328   2.631  0.0467  0.1566  0.3376
 1771TIP3    H226729   6.670   1.324   2.484  0.1944  0.3868  0.3652
 1772TIP3   OH226730   2.246   2.543  12.617 -0.9124 -0.7456 -0.1409
 1772TIP3    H126731   2.168   2.529  12.671 -0.7620 -2.7910 -0.3528
 1772TIP3    H226732   2.292   2.459  12.621  0.5144 -0.0479 -1.2273
 1773TIP3   OH226733   1.511   0.490  14.906  0.5574  0.8432  0.1433
 1773TIP3    H126734   1.473   0.542  14.977  0.3308 -0.0200  0.6671
 1773TIP3    H226735   1.576   0.548  14.867 -0.7313  2.0816 -0.2796
 1774TIP3   OH226736   5.628   0.653  16.024  0.1578 -0.1446 -0.2383
 1774TIP3    H126737   5.711   0.621  15.989 -1.4096 -2.1305 -2.4355
 1774TIP3    H226738   5.616   0.604  16.106  1.1653  0.2429  0.1528
 1775TIP3   OH226739   1.368   1.654  15.872 -0.1280 -0.2858  0.6753
 1775TIP3    H126740   1.326   1.740  15.884 -1.2990 -1.0109  1.9614
 1775TIP3    H226741   1.307   1.592  15.912  0.4409 -1.8027 -0.7220
 1776TIP3   OH226742   4.137   3.008   3.090 -0.3919  0.4679 -0.1459
 1776TIP3    H126743   4.134   2.930   3.036  0.8112  2.0837 -2.7319
 1776TIP3    H226744   4.205   2.991   3.155  0.7175 -0.2080 -1.4494
 1777TIP3   OH226745   6.151   2.806  15.505 -0.2547 -0.2812 -0.7425
 1777TIP3    H126746   6.146   2.779  15.413 -0.1188 -0.1961 -0.7754
 1777TIP3    H226747   6.076   2.864  15.517 -0.5451 -0.6693 -0.6736
 1778TIP3   OH226748   5.174   1.881   0.955  0.4167  0.0137 -0.4786
 1778TIP3    H126749   5.135   1.874   1.042  2.9931 -2.5364  0.6390
 1778TIP3    H226750   5.183   1.975   0.940 -1.4006  0.5427  1.3290
 1779TIP3   OH226751   2.351   3.264  16.086 -0.0246  0.1551 -0.7235
 1779TIP3    H126752   2.279   3.327  16.095  0.3913  0.5100  0.2391
 1779TIP3    H226753   2.429   3.318  16.073  0.4858 -0.0675  1.0604
 1780TIP3   OH226754   3.151   1.292   5.943 -0.4402 -0.5120 -0.4955
 1780TIP3    H126755   3.179   1.219   5.999  0.3638  0.4591  0.4180
 1780TIP3    H226756   3.077   1.331   5.989  0.0755  0.1456 -0.2019
 1781TIP3   OH226757   1.703   6.405   0.610 -0.7705  0.0608  0.1565
 1781TIP3    H126758   1.768   6.387   0.678  0.9238  0.5941 -1.2509
 1781TIP3    H226759   1.648   6.474   0.647  1.7737  2.3183  0.0765
 1782TIP3   OH226760   4.979   0.867  13.598 -0.2057 -0.6031  0.8480
 1782TIP3    H126761   5.072   0.858  13.577  0.4078 -2.9426  3.9419
 1782TIP3    H226762   4.966   0.961  13.608  2.2690 -0.2956  1.9573
 1783TIP3   OH226763   2.780   4.466   4.065  0.7310 -0.7239 -0.1895
 1783TIP3    H126764   2.819   4.486   3.981  1.6552 -2.2872 -0.1716
 1783TIP3    H226765   2.724   4.390   4.048  1.0006 -1.1130  0.6001
 1784TIP3   OH226766   0.137   6.194  15.745 -0.0502 -0.3775 -0.3240
 1784TIP3    H126767   0.108   6.115  15.699 -0.2178 -0.7883  0.4685
 1784TIP3    H226768   0.173   6.162  15.828  2.4068  0.1240 -1.0864
 1785TIP3   OH226769   5.238   4.123   4.411 -0.3694 -0.0152 -0.1199
 1785TIP3    H126770   5.186   4.130   4.491 -1.6110  0.0834 -0.9095
 1785TIP3    H226771   5.298   4.050   4.427 -0.5403  0.0660  0.9298
 1786TIP3   OH226772   4.802   6.475   0.820 -0.2246 -0.2953  0.2414
 1786TIP3    H126773   4.828   6.511   0.905 -0.2657  0.3286 -0.0063
 1786TIP3    H226774   4.790   6.551   0.764 -0.4661 -0.6888 -0.2531
 1787TIP3   OH226775   3.499   6.760   5.568 -0.5628  0.3815  0.2144
 1787TIP3    H126776   3.576   6.745   5.624 -0.8269  0.2120  0.5357
 1787TIP3    H226777   3.427   6.772   5.630 -0.5021  2.3810 -0.0148
 1788TIP3   OH226778   2.541   3.242  11.303 -0.1659  0.8172 -0.1304
 1788TIP3    H126779   2.517   3.165  11.355  3.1040  0.5108  1.2299
 1788TIP3    H226780   2.472   3.306  11.321 -1.3527 -0.7551  1.2057
 1789TIP3   OH226781   2.933   5.493   4.625  0.0415 -0.4601 -0.3401
 1789TIP3    H126782   2.852   5.464   4.583 -0.2242  0.9138 -0.8535
 1789TIP3    H226783   2.986   5.527   4.552  0.0599  0.8715  0.2703
 1790TIP3   OH226784   2.871   2.363  13.740  0.2011  0.2751  0.1191
 1790TIP3    H126785   2.928   2.412  13.799  0.2585  0.0569  0.2480
 1790TIP3    H226786   2.787   2.408  13.745  0.5655  1.0810 -0.6899
 1791TIP3   OH226787   3.741   6.484   2.611 -0.1825 -0.0987  0.0427
 1791TIP3    H126788   3.766   6.540   2.537 -1.0198 -0.6771 -0.6949
 1791TIP3    H226789   3.743   6.396   2.575  2.5197 -0.7670  1.5441
 1792TIP3   OH226790   5.533   4.800  10.897 -0.0188 -0.1445 -0.8865
 1792TIP3    H126791   5.486   4.744  10.835  0.7855 -0.0434 -1.6071
 1792TIP3    H226792   5.524   4.755  10.981 -0.4207 -0.7173 -1.2276
 1793TIP3   OH226793   2.678   2.796   3.246 -0.3144 -0.1690 -0.0118
 1793TIP3    H126794   2.607   2.795   3.181 -1.1526  0.6356  0.8520
 1793TIP3    H226795   2.633   2.809   3.330  0.7008 -1.6662  0.8052
 1794TIP3   OH226796   4.288   3.924  14.977  0.1567  0.0699  0.5155
 1794TIP3    H126797   4.341   3.860  14.928 -0.1698 -1.4755  2.0798
 1794TIP3    H226798   4.317   4.009  14.944  0.8847 -0.8499 -1.3747
 1795TIP3   OH226799   4.816   1.055   4.199  0.0023 -0.5849 -0.1220
 1795TIP3    H126800   4.898   1.100   4.217 -0.8856  0.7710  0.7120
 1795TIP3    H226801   4.833   0.964   4.223  1.3718 -0.4182 -0.3621
 1796TIP3   OH226802   2.780   0.627   5.446  0.0543  0.0223  0.3072
 1796TIP3    H126803   2.831   0.658   5.521  1.2285 -0.9728 -0.0352
 1796TIP3    H226804   2.776   0.703   5.387  1.7840 -0.0397  0.0432
 1797TIP3   OH226805   3.615   6.344   3.210  0.2285  0.8579 -0.3199
 1797TIP3    H126806   3.672   6.398   3.155  1.5968 -0.8779 -0.7021
 1797TIP3    H226807   3.674   6.306   3.275 -0.6853 -0.1599 -0.0627
 1798TIP3   OH226808   6.744   0.415   2.373  0.2576 -0.4070 -0.2388
 1798TIP3    H126809   6.706   0.336   2.333  2.0391 -1.7546  0.5829
 1798TIP3    H226810   6.790   0.383   2.451  3.4005  0.9834 -1.3672
 1799TIP3   OH226811   4.102   3.381  12.254 -0.4093  0.0157  0.7438
 1799TIP3    H126812   4.188   3.416  12.277  0.3793  0.5248 -2.4620
 1799TIP3    H226813   4.060   3.453  12.206 -2.0935 -0.7125  1.0690
 1800TIP3   OH226814   1.323   1.105   0.439 -0.0155  0.0533  0.0140
 1800TIP3    H126815   1.386   1.049   0.484 -0.8083 -0.0940  0.9546
 1800TIP3    H226816   1.351   1.195   0.460 -1.7412  0.0363  2.8710
 1801TIP3   OH226817   2.441   2.007  17.153  0.8629  0.1028  0.1409
 1801TIP3    H126818   2.413   1.938  17.214  0.4863 -0.4725 -0.6723
 1801TIP3    H226819   2.431   2.088  17.203 -1.2571 -0.1614  0.2424
 1802TIP3   OH226820   6.462   0.612  15.212  0.4547 -0.5483 -0.1533
 1802TIP3    H126821   6.416   0.573  15.137  1.3905 -1.3064 -0.3617
 1802TIP3    H226822   6.392   0.640  15.271 -0.2867 -0.9381 -0.8185
 1803TIP3   OH226823   4.445   2.050  15.452 -0.1829  0.6431 -0.5344
 1803TIP3    H126824   4.478   2.097  15.375 -1.2923  1.3856 -0.5820
 1803TIP3    H226825   4.406   1.970  15.416  0.3630  0.4113 -0.6161
 1804TIP3   OH226826   6.636   6.027   4.922 -0.1768 -0.2319  0.2887
 1804TIP3    H126827   6.647   6.117   4.953 -0.4180 -0.4119  0.9204
 1804TIP3    H226828   6.553   6.030   4.873  0.6185  0.2373 -1.0902
 1805TIP3   OH226829   4.431   6.607   3.068 -0.2428  0.5024  1.0861
 1805TIP3    H126830   4.440   6.681   3.129  0.7705 -2.0733  4.3398
 1805TIP3    H226831   4.347   6.567   3.091 -0.0912 -0.2102  0.4263
 1806TIP3   OH226832   0.928   0.978   3.983 -0.1911 -0.1418  0.4504
 1806TIP3    H126833   0.906   0.911   4.048 -0.1395  0.2468  0.8770
 1806TIP3    H226834   0.863   0.967   3.914  0.2209 -1.0600  0.2037
 1807TIP3   OH226835   1.036   2.014  11.764 -0.5685  0.2336  0.1208
 1807TIP3    H126836   1.068   2.067  11.837 -2.3040  1.9915 -0.3169
 1807TIP3    H226837   1.100   2.028  11.694 -0.9379  1.6946  0.0551
 1808TIP3   OH226838   3.392   1.101  12.558 -0.0184  0.5740 -0.2373
 1808TIP3    H126839   3.369   1.015  12.525 -0.8334  0.5395  0.4036
 1808TIP3    H226840   3.487   1.096  12.573 -0.0803 -0.2420 -0.0865
 1809TIP3   OH226841   5.781   4.550   4.568  0.5159 -0.1652  0.6597
 1809TIP3    H126842   5.853   4.614   4.568 -0.2920  0.8305 -1.1818
 1809TIP3    H226843   5.713   4.591   4.515 -0.8874 -1.6844  1.1946
 1810TIP3   OH226844   0.548   3.434   5.251 -0.4124  0.0852 -0.2138
 1810TIP3    H126845   0.493   3.462   5.178  0.8429 -1.5228 -1.8835
 1810TIP3    H226846   0.623   3.494   5.249 -0.7416  0.5202  0.2664
 1811TIP3   OH226847   2.874   0.601   2.608  0.0983 -0.5727  0.3665
 1811TIP3    H126848   2.796   0.593   2.662 -0.0425  0.1907  0.2841
 1811TIP3    H226849   2.926   0.669   2.651 -0.4338  0.7088 -0.9347
 1812TIP3   OH226850   4.733   6.776  15.412  0.1387  0.4513  0.2260
 1812TIP3    H126851   4.645   6.814  15.419  0.4732  1.0535  1.5300
 1812TIP3    H226852   4.764   6.772  15.502  1.1181 -0.5802 -0.1425
 1813TIP3   OH226853   0.460   6.129   1.635 -1.1190 -0.9854 -0.4500
 1813TIP3    H126854   0.524   6.105   1.701 -3.2029 -2.6121  1.1035
 1813TIP3    H226855   0.506   6.190   1.578  0.7518  0.6292  2.5615
 1814TIP3   OH226856   4.913   3.322   4.698  0.3346 -0.1531 -0.1144
 1814TIP3    H126857   4.987   3.289   4.646  0.4322 -0.6735  0.3536
 1814TIP3    H226858   4.948   3.332   4.786 -0.1461 -0.3564  0.1010
 1815TIP3   OH226859   4.434   6.154   0.161 -0.2152  0.1188  0.1747
 1815TIP3    H126860   4.496   6.099   0.208 -0.7441 -0.4312  0.2444
 1815TIP3    H226861   4.348   6.124   0.191 -0.5407  0.2105 -0.6302
 1816TIP3   OH226862   0.184   1.741   2.267 -0.2954  0.5611  0.4085
 1816TIP3    H126863   0.240   1.791   2.326 -0.6998  1.0201  0.4102
 1816TIP3    H226864   0.216   1.763   2.180 -0.1069  0.3801  0.4325
 1817TIP3   OH226865   3.487   4.092   0.864 -0.1497  0.8436 -0.4426
 1817TIP3    H126866   3.574   4.131   0.869  0.2451 -0.0844  0.2072
 1817TIP3    H226867   3.430   4.156   0.908  0.1614  1.5466 -1.0512
 1818TIP3   OH226868   2.734   1.805   2.322  0.3062  0.1209 -0.0964
 1818TIP3    H126869   2.701   1.724   2.284 -0.2006 -0.5615  1.7058
 1818TIP3    H226870   2.828   1.802   2.304  0.5623 -1.6475  1.2331
 1819TIP3   OH226871   6.280   6.145   6.471 -0.1203  0.3763 -0.1069
 1819TIP3    H126872   6.318   6.068   6.430 -1.5072 -0.4456  0.0815
 1819TIP3    H226873   6.332   6.157   6.551 -0.6812 -1.1693  0.5331
 1820TIP3   OH226874   4.715   1.162   1.596  0.0655 -0.3330  0.0096
 1820TIP3    H126875   4.701   1.238   1.653  0.5606 -0.3172  0.1135
 1820TIP3    H226876   4.643   1.103   1.617 -2.1677  1.3843 -2.2438
 1821TIP3   OH226877   2.611   6.178  11.729 -0.3610  0.1443  0.2640
 1821TIP3    H126878   2.554   6.141  11.662  0.8557  0.9838 -1.2922
 1821TIP3    H226879   2.633   6.103  11.785  0.5948 -1.1470 -1.7411
 1822TIP3   OH226880   5.994   4.250  14.191 -0.1329 -0.0294 -0.0913
 1822TIP3    H126881   6.040   4.319  14.238  0.9219  0.9256 -2.4093
 1822TIP3    H226882   5.942   4.295  14.125 -0.1289 -1.4008 -1.0847
 1823TIP3   OH226883   6.108   0.760   1.131 -0.1881 -0.1558  0.4446
 1823TIP3    H126884   6.061   0.773   1.048  0.5079 -0.1605  0.0397
 1823TIP3    H226885   6.121   0.665   1.137 -0.2593 -0.1580  0.5766
 1824TIP3   OH226886   3.340   1.905  13.157  0.6154 -0.2401 -0.1771
 1824TIP3    H126887   3.383   1.905  13.243  2.4958  2.0770 -1.0388
 1824TIP3    H226888   3.253   1.942  13.175  0.5654 -0.8433  0.9020
 1825TIP3   OH226889   0.483   3.244   2.828  0.4443  0.0676  0.3746
 1825TIP3    H126890   0.402   3.217   2.872  0.0645 -1.8590 -1.3202
 1825TIP3    H226891   0.553   3.208   2.882  0.0153 -1.6525 -0.1642
 1826TIP3   OH226892   4.125   1.989  17.242  0.2489 -0.0463 -0.4360
 1826TIP3    H126893   4.201   1.949  17.285  1.3750  1.3163 -1.0638
 1826TIP3    H226894   4.159   2.023  17.160 -1.2923 -0.2883 -1.2135
 1827TIP3   OH226895   2.878   4.784  11.917 -0.4363  0.5659  0.8856
 1827TIP3    H126896   2.833   4.732  11.983 -1.7004  2.3893  1.5217
 1827TIP3    H226897   2.963   4.741  11.907 -1.5422 -1.8303  1.0683
 1828TIP3   OH226898   1.648   6.200   3.067  0.0379 -0.4884  0.5913
 1828TIP3    H126899   1.622   6.119   3.023 -1.6785 -0.5163  1.5648
 1828TIP3    H226900   1.724   6.176   3.119  0.4838 -1.0831 -0.3014
 1829TIP3   OH226901   1.895   1.822  16.755  0.2967  0.4004 -0.0404
 1829TIP3    H126902   1.957   1.766  16.801 -0.9271  0.7472  2.1749
 1829TIP3    H226903   1.925   1.911  16.774 -1.2751  0.6051  1.8169
 1830TIP3   OH226904   0.547   2.020  17.005  0.1290 -0.6118 -0.0669
 1830TIP3    H126905   0.550   2.060  17.091  0.2372  0.9349 -0.7504
 1830TIP3    H226906   0.562   1.927  17.021  1.0336 -0.2356  1.4925
 1831TIP3   OH226907   5.163   1.782   0.600  0.1873 -0.3969  0.1552
 1831TIP3    H126908   5.255   1.802   0.582 -0.3940  0.8733 -1.6521
 1831TIP3    H226909   5.131   1.742   0.519 -0.8308 -0.9728  0.8206
 1832TIP3   OH226910   2.150   2.686   2.449  0.4713  0.3257  0.0736
 1832TIP3    H126911   2.149   2.658   2.358  2.2424  1.1721 -0.2703
 1832TIP3    H226912   2.081   2.636   2.491 -1.2985  0.8883 -1.9989
 1833TIP3   OH226913   0.606   4.433   0.065 -0.2485 -0.5611 -0.1731
 1833TIP3    H126914   0.591   4.488   0.142 -1.1231 -0.9090 -0.0817
 1833TIP3    H226915   0.701   4.420   0.063 -0.2527 -0.9305  1.1230
 1834TIP3   OH226916   1.756   6.662  15.811  0.0906  0.2853 -0.1479
 1834TIP3    H126917   1.804   6.604  15.752  0.3165 -0.2897  0.5884
 1834TIP3    H226918   1.665   6.632  15.805  0.1778 -0.0283  0.0967
 1835TIP3   OH226919   4.618   4.941   2.172  0.6736  0.0088  0.3096
 1835TIP3    H126920   4.697   4.887   2.172  0.6669 -0.0718 -1.6417
 1835TIP3    H226921   4.651   5.031   2.177  0.8972 -0.0279 -0.4530
 1836TIP3   OH226922   3.063   6.466  12.785  0.1487  0.6089 -0.0439
 1836TIP3    H126923   3.030   6.474  12.874  0.4303 -0.5512  0.1758
 1836TIP3    H226924   3.122   6.391  12.787  0.7416  1.0175 -1.0425
 1837TIP3   OH226925   3.335   2.134   2.088  0.1945  0.3459 -0.3597
 1837TIP3    H126926   3.270   2.069   2.114  1.6544 -0.4644  1.4150
 1837TIP3    H226927   3.381   2.094   2.014 -0.3722  0.3249 -0.7053
 1838TIP3   OH226928   6.478   1.445   1.203 -0.1243 -0.1236 -0.3292
 1838TIP3    H126929   6.489   1.483   1.116 -0.4941  1.5943  0.3298
 1838TIP3    H226930   6.432   1.513   1.253  0.0216 -1.0918  1.1807
 1839TIP3   OH226931   4.257   4.009  13.052  0.2103 -0.5112  0.0696
 1839TIP3    H126932   4.271   4.080  12.989  0.7798  0.6791  1.4924
 1839TIP3    H226933   4.337   4.009  13.105 -0.3871 -1.2902  0.9861
 1840TIP3   OH226934   4.071   3.964   1.816 -0.0765  0.5503 -0.0016
 1840TIP3    H126935   4.133   4.012   1.871  2.0618 -0.4712 -1.4130
 1840TIP3    H226936   4.102   3.977   1.727  0.6639 -3.3526 -0.4843
 1841TIP3   OH226937   4.680   5.279   4.023  0.2631 -0.0692 -0.2895
 1841TIP3    H126938   4.597   5.265   4.068  0.5049  0.8753  0.4641
 1841TIP3    H226939   4.656   5.283   3.930 -0.3067 -1.4638 -0.2300
 1842TIP3   OH226940   1.725   3.359  12.657 -0.3122  0.3120  0.1707
 1842TIP3    H126941   1.811   3.339  12.694 -0.5071  2.1239  1.7129
 1842TIP3    H226942   1.743   3.420  12.586 -0.3742  1.7979  1.3851
 1843TIP3   OH226943   1.049   0.075  12.037  0.1323 -0.1256  0.1363
 1843TIP3    H126944   1.064   0.143  11.972  0.0611 -1.2717 -1.1377
 1843TIP3    H226945   1.088  -0.004  11.998 -0.8113 -1.0621  1.0202
 1844TIP3   OH226946   1.985   3.116   4.817  0.4092  0.1821  0.3760
 1844TIP3    H126947   2.038   3.189   4.786  1.2885  0.0199  1.4516
 1844TIP3    H226948   2.024   3.039   4.775 -0.9715  0.3508 -1.3500
 1845TIP3   OH226949   4.881   0.765  13.341  0.2809  0.1394  0.2074
 1845TIP3    H126950   4.915   0.786  13.428 -1.0902  1.4502  0.4638
 1845TIP3    H226951   4.959   0.755  13.287  1.1203  1.2288  1.1596
 1846TIP3   OH226952   2.723   5.228  11.935 -0.2355  0.2881 -0.1661
 1846TIP3    H126953   2.758   5.267  12.015 -0.7452 -0.4271  0.4201
 1846TIP3    H226954   2.712   5.302  11.875  0.6702  0.7473  0.2286
 1847TIP3   OH226955   5.798   0.516   1.033 -0.1938 -0.5298  0.1236
 1847TIP3    H126956   5.759   0.603   1.020  0.9447  0.2636  1.6881
 1847TIP3    H226957   5.865   0.509   0.965 -0.4849 -0.3175 -0.1911
 1848TIP3   OH226958   5.266   4.005   5.402  0.2421  0.2595 -0.1248
 1848TIP3    H126959   5.256   4.098   5.387 -0.2755  0.1051 -0.7849
 1848TIP3    H226960   5.352   3.983   5.367  0.8290  0.6770  1.0126
 1849TIP3   OH226961   5.462   4.667   2.761 -0.4246  0.3134 -0.4473
 1849TIP3    H126962   5.530   4.643   2.824 -0.5988 -1.1110 -0.7648
 1849TIP3    H226963   5.478   4.759   2.742  0.1824  0.5233  0.9912
 1850TIP3   OH226964   2.541   2.133  11.762 -0.1108  0.4211  0.4552
 1850TIP3    H126965   2.490   2.075  11.820 -0.3840 -1.1632 -1.2934
 1850TIP3    H226966   2.573   2.076  11.693  0.7803  2.1385 -0.6108
 1851TIP3   OH226967   6.466   0.628  11.685  0.0608 -0.6012 -0.2941
 1851TIP3    H126968   6.494   0.543  11.651  0.4420 -0.6042  0.0231
 1851TIP3    H226969   6.547   0.671  11.712 -0.1856 -0.3746  0.0971
 1852TIP3   OH226970   1.975   1.267   0.933 -0.7075  0.0771  0.2520
 1852TIP3    H126971   1.919   1.198   0.900 -0.8131  0.6162 -0.7242
 1852TIP3    H226972   1.920   1.315   0.995 -0.7407 -0.4887  0.6681
 1853TIP3   OH226973   6.300   4.377   6.384  0.0657  0.2349  0.0393
 1853TIP3    H126974   6.323   4.342   6.471 -2.2194 -3.0412 -0.4645
 1853TIP3    H226975   6.210   4.408   6.394 -1.0089 -2.0718 -1.4562
 1854TIP3   OH226976   6.579   3.759  12.788  0.3513  0.2749  0.0870
 1854TIP3    H126977   6.640   3.823  12.752  0.9053 -0.3547 -0.1100
 1854TIP3    H226978   6.594   3.761  12.883  1.3370 -0.5223 -0.0360
 1855TIP3   OH226979   2.966   6.009  15.223 -0.3925 -0.1941  0.2824
 1855TIP3    H126980   2.984   5.998  15.129 -0.8291  1.7179 -0.0540
 1855TIP3    H226981   2.887   6.063  15.226  0.6658  1.3710  1.7273
 1856TIP3   OH226982   2.554   3.942  12.551  0.2251 -0.6775 -0.1727
 1856TIP3    H126983   2.597   3.897  12.478  0.3532 -0.8667  0.0186
 1856TIP3    H226984   2.489   3.879  12.582  0.1530 -0.5865 -0.1380
 1857TIP3   OH226985   3.002   5.553  15.373  0.1662 -0.0588  0.0478
 1857TIP3    H126986   3.046   5.506  15.302 -2.4637  0.8264 -2.3623
 1857TIP3    H226987   2.910   5.529  15.364 -0.5902  1.9636  1.6240
 1858TIP3   OH226988   4.134   5.710  13.041 -0.4481  0.3836 -0.2373
 1858TIP3    H126989   4.110   5.754  12.960 -1.8365  0.3135  0.1136
 1858TIP3    H226990   4.194   5.640  13.014 -0.4494  0.7194 -1.1265
 1859TIP3   OH226991   4.560   0.031  16.574  0.4751 -0.0072  0.1184
 1859TIP3    H126992   4.585   0.100  16.512  1.3049 -1.5339 -1.3417
 1859TIP3    H226993   4.517  -0.035  16.520  4.3312 -3.0643  0.3265
 1860TIP3   OH226994   5.577   4.003   4.924 -0.1767  0.1396  0.1241
 1860TIP3    H126995   5.646   4.053   4.968 -0.6833  0.2822  0.7792
 1860TIP3    H226996   5.504   4.064   4.917 -0.3657 -0.1218 -0.2264
 1861TIP3   OH226997   2.222   0.121  15.419 -0.4747 -0.2991 -0.3373
 1861TIP3    H126998   2.255   0.187  15.358  0.3131  0.0654  0.4540
 1861TIP3    H226999   2.129   0.113  15.398  0.0164 -1.1477 -2.4515
 1862TIP3   OH227000   3.523   3.385   3.045 -0.2263 -0.2192 -0.1637
 1862TIP3    H127001   3.613   3.401   3.073 -0.2617 -0.3008 -0.0060
 1862TIP3    H227002   3.469   3.434   3.106 -0.1738  2.8664 -2.3755
 1863TIP3   OH227003   5.992   1.268  15.478 -0.2883 -0.3595 -0.1024
 1863TIP3    H127004   6.023   1.244  15.565  1.6336 -1.5031 -1.0332
 1863TIP3    H227005   6.055   1.333  15.446 -1.0490  0.1570 -0.6005
 1864TIP3   OH227006   1.884   3.794   5.805 -0.1453 -0.1051 -0.2954
 1864TIP3    H127007   1.823   3.725   5.779 -1.1416  1.3045 -1.9598
 1864TIP3    H227008   1.850   3.826   5.888 -1.6474  0.5640 -1.1282
 1865TIP3   OH227009   3.920   2.158  11.499  0.3814  0.1854 -0.7045
 1865TIP3    H127010   3.850   2.094  11.481  0.2551  0.3846 -0.9186
 1865TIP3    H227011   3.999   2.114  11.468  0.3194  0.0582 -0.6889
 1866TIP3   OH227012   3.600   1.538   2.296  0.4590  0.3989  0.6076
 1866TIP3    H127013   3.671   1.475   2.304 -0.0184 -0.4379 -1.2105
 1866TIP3    H227014   3.540   1.516   2.368  0.5446 -0.9020  0.2928
 1867TIP3   OH227015   1.299   5.862  13.250 -0.4778  0.0685  0.1524
 1867TIP3    H127016   1.276   5.773  13.277 -0.0655 -0.2448 -0.5155
 1867TIP3    H227017   1.362   5.891  13.315 -0.0327 -0.4137 -0.0559
 1868TIP3   OH227018   4.105   5.876  14.064  0.9752 -0.2551  0.1574
 1868TIP3    H127019   4.033   5.891  14.003  0.6078 -1.1915  0.3375
 1868TIP3    H227020   4.140   5.790  14.039  2.0913  0.2239  0.0201
 1869TIP3   OH227021   1.276   4.622   0.885  0.2965 -0.1639 -0.3160
 1869TIP3    H127022   1.273   4.617   0.980 -0.9361  1.5330 -0.2263
 1869TIP3    H227023   1.187   4.645   0.860  0.8116  0.2850 -1.8235
 1870TIP3   OH227024   6.650   1.258   3.819 -0.4130 -0.5276  0.5071
 1870TIP3    H127025   6.670   1.171   3.851 -0.4124 -0.6818  0.0970
 1870TIP3    H227026   6.558   1.253   3.793 -0.6311 -0.1862  1.1983
 1871TIP3   OH227027   2.126   1.105   4.909  0.5595 -0.5339  0.4525
 1871TIP3    H127028   2.133   1.017   4.871 -0.7751  0.1197 -1.4537
 1871TIP3    H227029   2.048   1.142   4.868  1.3346  1.7210  0.8958
 1872TIP3   OH227030   4.851   5.846  12.837 -0.5592  0.3840  0.0105
 1872TIP3    H127031   4.843   5.843  12.742  1.0364  0.6725 -0.1695
 1872TIP3    H227032   4.902   5.768  12.860  0.6384  1.2361  0.3913
 1873TIP3   OH227033   5.104   0.886   1.695 -0.1497  0.0091  0.1062
 1873TIP3    H127034   5.168   0.888   1.624 -1.1406  0.9015 -0.7983
 1873TIP3    H227035   5.079   0.978   1.709  0.3513 -0.0899  1.9390
 1874TIP3   OH227036   1.377   1.088   6.683 -0.7452 -0.2961 -0.4105
 1874TIP3    H127037   1.340   1.025   6.621 -1.4716 -0.7618  0.4869
 1874TIP3    H227038   1.469   1.061   6.693 -1.0025 -1.1114 -0.1665
 1875TIP3   OH227039   0.563   1.088  16.038 -0.0313 -0.5417 -0.1725
 1875TIP3    H127040   0.548   1.023  15.970 -0.9953 -0.1235 -0.3856
 1875TIP3    H227041   0.550   1.172  15.994 -0.3950 -0.2590  0.4552
 1876TIP3   OH227042   6.656   0.079   5.068  0.4694 -0.1390  0.5280
 1876TIP3    H127043   6.733   0.121   5.030 -0.0364  1.9029  1.6547
 1876TIP3    H227044   6.645   0.121   5.153 -1.5469 -0.8009  0.6418
 1877TIP3   OH227045   2.016   3.082   3.483  0.2439 -0.0195 -0.1720
 1877TIP3    H127046   2.043   3.090   3.574  1.8402 -0.2472 -0.5815
 1877TIP3    H227047   1.934   3.033   3.485  1.6687 -2.5450  1.0023
 1878TIP3   OH227048   6.148   2.458  12.508 -0.3018  0.3149 -0.0670
 1878TIP3    H127049   6.184   2.382  12.553 -0.4312  0.3064  0.0199
 1878TIP3    H227050   6.063   2.474  12.549 -1.2453 -0.7818 -1.4997
 1879TIP3   OH227051   0.349   1.990  11.533 -0.1185  0.0564 -0.2207
 1879TIP3    H127052   0.317   1.951  11.614 -3.1454  1.6559 -0.4960
 1879TIP3    H227053   0.428   1.940  11.512 -0.3575 -1.7459  2.5997
 1880TIP3   OH227054   2.358   0.923  10.806  0.6507  0.0819  0.3541
 1880TIP3    H127055   2.330   0.887  10.722  1.0840 -0.5799  0.4880
 1880TIP3    H227056   2.452   0.938  10.796  0.4831  1.1507  0.3122
 1881TIP3   OH227057   4.885   1.352   1.224 -0.1321 -0.2204  0.2279
 1881TIP3    H127058   4.947   1.383   1.290 -0.0772 -0.8855  0.4979
 1881TIP3    H227059   4.910   1.398   1.143  2.0154 -1.9463 -0.1755
 1882TIP3   OH227060   5.091   3.633  10.110  0.2199  0.3397 -0.1702
 1882TIP3    H127061   5.133   3.571  10.050 -0.9545  1.2141 -1.9811
 1882TIP3    H227062   4.998   3.628  10.088  0.1159  2.9595 -0.6469
 1883TIP3   OH227063   5.934   2.950  13.194 -0.2874 -0.6261  0.1781
 1883TIP3    H127064   5.947   2.932  13.101 -1.2675 -1.7026  0.2376
 1883TIP3    H227065   5.864   2.891  13.221 -1.1385  0.8079  1.2318
 1884TIP3   OH227066   0.695   0.827  12.053  0.3083  0.1423 -1.1451
 1884TIP3    H127067   0.713   0.766  12.125  0.4211  0.7034 -0.6915
 1884TIP3    H227068   0.740   0.788  11.978  2.4359  0.8476 -0.3297
 1885TIP3   OH227069   3.128   3.286  14.950  0.3444  0.2570  0.3393
 1885TIP3    H127070   3.093   3.215  15.004 -0.7424 -0.4182 -1.1810
 1885TIP3    H227071   3.102   3.365  14.995 -1.9889 -0.2632  0.0265
 1886TIP3   OH227072   4.926   5.432   3.739  0.3520  0.3307 -0.3069
 1886TIP3    H127073   4.890   5.402   3.655  1.9855  1.3217 -1.3895
 1886TIP3    H227074   4.916   5.527   3.737 -2.2589  0.2341  1.9382
 1887TIP3   OH227075   0.925   6.421   1.461  0.2725  0.1937  0.0465
 1887TIP3    H127076   0.935   6.515   1.480  3.1698 -0.0817  0.3106
 1887TIP3    H227077   1.004   6.398   1.414 -0.1511 -2.2491  0.4131
 1888TIP3   OH227078   2.155   4.545  11.459  0.5203 -0.9410 -0.0108
 1888TIP3    H127079   2.120   4.574  11.544 -1.9236  0.4574 -1.3820
 1888TIP3    H227080   2.250   4.555  11.467  0.3685 -0.9459  2.5612
 1889TIP3   OH227081   3.543   2.330  12.752 -0.2363 -0.1926 -0.3626
 1889TIP3    H127082   3.492   2.403  12.717 -0.3014 -0.8503 -1.6976
 1889TIP3    H227083   3.628   2.369  12.774 -0.6114  0.4919 -0.0828
 1890TIP3   OH227084   1.391   1.470   6.299  0.3152  0.2187  0.5614
 1890TIP3    H127085   1.454   1.402   6.276 -1.9429 -1.2287 -1.9304
 1890TIP3    H227086   1.370   1.453   6.391  0.1221 -2.2798  0.1246
 1891TIP3   OH227087   4.954   0.286  14.598 -0.0188  0.1338 -0.0858
 1891TIP3    H127088   5.038   0.310  14.636  0.1256 -1.0090  0.3668
 1891TIP3    H227089   4.949   0.191  14.609 -1.2193  0.1421 -0.4018
 1892TIP3   OH227090   2.548   0.513   0.668 -0.3433  0.0709  0.4060
 1892TIP3    H127091   2.453   0.499   0.667 -0.2727 -0.6622  1.5802
 1892TIP3    H227092   2.575   0.500   0.577 -1.4338  0.9184 -0.0724
 1893TIP3   OH227093   2.421   5.921  12.913  0.3811 -0.1845 -0.0489
 1893TIP3    H127094   2.467   5.860  12.855 -0.6356 -0.6939 -0.3275
 1893TIP3    H227095   2.328   5.907  12.895  0.0724  0.1404  1.2087
 1894TIP3   OH227096   4.345   5.176  14.017  0.0559  0.0624 -0.9065
 1894TIP3    H127097   4.408   5.104  14.012  0.4359  0.4450 -1.8481
 1894TIP3    H227098   4.370   5.235  13.946  0.2057  1.5101  0.2956
 1895TIP3   OH227099   2.862   2.880   3.726 -0.7318 -0.8005  0.1234
 1895TIP3    H127100   2.774   2.844   3.737 -1.2424  0.3800  0.0858
 1895TIP3    H227101   2.909   2.814   3.675 -1.7610 -1.1953 -0.3385
 1896TIP3   OH227102   4.291   4.059   1.991  0.1595  0.3841 -1.0260
 1896TIP3    H127103   4.345   4.138   1.987  0.8875 -0.0420  0.1268
 1896TIP3    H227104   4.353   3.987   1.987 -0.3535 -0.1138 -0.1200
 1897TIP3   OH227105   2.399   0.967   5.738 -0.3111 -0.5006  0.1688
 1897TIP3    H127106   2.335   1.029   5.704 -0.3587 -1.6601 -1.9987
 1897TIP3    H227107   2.455   0.947   5.663  1.0366 -1.4385  1.3767
 1898TIP3   OH227108   5.223   6.138  12.975 -0.0198  0.0227  0.6441
 1898TIP3    H127109   5.295   6.201  12.981 -1.2704  1.5415  0.3857
 1898TIP3    H227110   5.146   6.191  12.956 -0.9690 -1.7123 -0.6711
 1899TIP3   OH227111   2.631   6.101   2.407  0.1025  0.0826  0.4429
 1899TIP3    H127112   2.542   6.077   2.379  0.0043  0.1165  0.7315
 1899TIP3    H227113   2.685   6.080   2.331  0.0842 -1.4966  0.8403
 1900TIP3   OH227114   6.626   6.736   3.752 -0.2795  0.3675  0.6761
 1900TIP3    H127115   6.585   6.773   3.674 -2.2168  1.1712  2.0020
 1900TIP3    H227116   6.646   6.812   3.807 -1.8458 -0.3266  2.2937
 1901TIP3   OH227117   0.263   2.076   5.772  0.4345 -0.1955  0.1266
 1901TIP3    H127118   0.334   2.098   5.713 -1.5306  1.2158 -1.8570
 1901TIP3    H227119   0.301   2.013   5.833  3.3193  0.4527 -0.8679
 1902TIP3   OH227120   0.514   5.716   3.555 -0.2584 -0.1849 -0.2263
 1902TIP3    H127121   0.523   5.626   3.586 -0.8089  0.3424  1.5987
 1902TIP3    H227122   0.588   5.762   3.595 -1.3832  0.6651  0.9373
 1903TIP3   OH227123   1.587   2.424   3.726  0.4131  0.3768 -0.3712
 1903TIP3    H127124   1.492   2.433   3.718  0.3417  1.3831  1.0754
 1903TIP3    H227125   1.622   2.486   3.662  0.0303  1.7404  0.6718
 1904TIP3   OH227126   0.294   4.607  15.966 -0.0329  0.0048  0.3307
 1904TIP3    H127127   0.306   4.678  16.029 -0.7037  0.9510 -0.5778
 1904TIP3    H227128   0.374   4.555  15.972  0.7397  1.1934  0.5746
 1905TIP3   OH227129   3.306   1.356   0.236 -0.2454  0.0536  0.2432
 1905TIP3    H127130   3.332   1.363   0.327  0.6141  1.3621 -0.0739
 1905TIP3    H227131   3.239   1.424   0.225  1.0181  1.2256 -0.5235
 1906TIP3   OH227132   5.797   3.446   3.374 -0.2024 -0.2486 -0.0250
 1906TIP3    H127133   5.878   3.452   3.425 -1.1112  1.4129  1.2897
 1906TIP3    H227134   5.745   3.379   3.419 -0.5417  0.4156  0.5828
 1907TIP3   OH227135   0.305   2.655   1.961  0.3901  0.2284 -0.3197
 1907TIP3    H127136   0.216   2.690   1.951 -0.1406 -0.6267  1.0651
 1907TIP3    H227137   0.333   2.635   1.871 -0.7081  0.7595 -0.8052
 1908TIP3   OH227138   6.293   6.740   3.431 -0.1118 -0.1953  0.5220
 1908TIP3    H127139   6.261   6.787   3.355 -1.1639 -0.1750  0.9645
 1908TIP3    H227140   6.289   6.647   3.405  1.8099 -0.1003 -0.2900
 1909TIP3   OH227141   2.564   3.602  12.414  0.3460 -0.1849  0.7913
 1909TIP3    H127142   2.536   3.518  12.379 -0.2006  1.2689 -2.6802
 1909TIP3    H227143   2.588   3.584  12.505  0.7898 -4.1399  0.0472
 1910TIP3   OH227144   4.095   1.449   1.387  0.9605 -0.2830 -0.0950
 1910TIP3    H127145   4.043   1.385   1.435  1.7820 -1.6934 -1.0217
 1910TIP3    H227146   4.184   1.438   1.422  1.5320 -1.2066 -1.7492
 1911TIP3   OH227147   4.906   3.929   3.332 -0.0663  0.1607 -0.0133
 1911TIP3    H127148   4.942   3.882   3.257  0.9003  0.6284  0.1435
 1911TIP3    H227149   4.935   3.878   3.408 -0.6580 -0.0584  0.0733
 1912TIP3   OH227150   5.296   4.613   0.952  0.0892 -0.1041 -0.3475
 1912TIP3    H127151   5.328   4.647   0.869  0.0819  0.2959 -0.1919
 1912TIP3    H227152   5.290   4.690   1.009  0.7727 -0.4682  0.2439
 1913TIP3   OH227153   2.725   1.315  14.563  0.1693  0.1601  0.2954
 1913TIP3    H127154   2.691   1.338  14.650  0.6593  2.1130 -0.0013
 1913TIP3    H227155   2.782   1.388  14.539 -0.0917 -0.2627 -1.7562
 1914TIP3   OH227156   0.429   3.816   4.820 -0.6427 -0.3116 -0.0806
 1914TIP3    H127157   0.427   3.884   4.752 -0.4892 -0.2291 -0.0040
 1914TIP3    H227158   0.367   3.847   4.886  0.6940  0.6473  0.7910
 1915TIP3   OH227159   1.449   5.946  12.955 -0.2138 -0.1863  0.3664
 1915TIP3    H127160   1.532   5.969  12.998  0.5204 -0.8612 -0.6521
 1915TIP3    H227161   1.387   6.011  12.988  0.5357 -0.1175  1.7163
 1916TIP3   OH227162   1.956   1.994   1.429  0.0420 -0.2878  0.7547
 1916TIP3    H127163   2.005   2.076   1.423 -0.2843  0.0229  2.0101
 1916TIP3    H227164   2.017   1.932   1.469  0.1385 -0.5392  0.2269
 1917TIP3   OH227165   1.370   2.609   5.437 -0.0204 -0.0305  0.1542
 1917TIP3    H127166   1.329   2.523   5.447  0.4649 -0.4953 -1.5196
 1917TIP3    H227167   1.375   2.622   5.342  2.2574  0.6947  0.3179
 1918TIP3   OH227168   2.554   0.589  14.851 -0.2915  0.5682 -0.0080
 1918TIP3    H127169   2.531   0.643  14.927  0.6001 -0.4239  1.0116
 1918TIP3    H227170   2.470   0.565  14.812 -0.8480  0.1302  1.3855
 1919TIP3   OH227171   1.805   3.890   6.048 -0.0242 -0.0325 -0.2687
 1919TIP3    H127172   1.864   3.902   6.122 -0.3397  0.5462 -0.1065
 1919TIP3    H227173   1.769   3.977   6.032  0.3197 -0.0722 -1.3399
 1920TIP3   OH227174   1.087   4.062  10.999  0.4191  0.3499 -0.7047
 1920TIP3    H127175   1.006   4.029  10.960  0.9247 -1.5042 -0.2809
 1920TIP3    H227176   1.147   3.987  10.998  1.6125  1.2405  0.3860
 1921TIP3   OH227177   6.338   2.669  12.213 -0.0846 -0.0015 -0.1525
 1921TIP3    H127178   6.350   2.581  12.178  1.4721  0.2153 -0.2657
 1921TIP3    H227179   6.349   2.727  12.138  1.5476  0.3797  0.3302
 1922TIP3   OH227180   4.706   1.395  14.712  0.0178 -0.1711  0.1290
 1922TIP3    H127181   4.638   1.360  14.771  1.6107 -2.2944  0.8512
 1922TIP3    H227182   4.750   1.463  14.763 -1.1736  0.8577 -0.1602
 1923TIP3   OH227183   5.839   5.337   6.100  0.4880 -0.1972  0.4555
 1923TIP3    H127184   5.857   5.418   6.148 -1.0493  1.6674 -1.8278
 1923TIP3    H227185   5.743   5.333   6.096  0.5113 -2.5523  1.0797
 1924TIP3   OH227186   6.313   4.845   4.603 -0.1345 -0.2015  0.1962
 1924TIP3    H127187   6.367   4.875   4.530  2.2122 -0.2503  1.7838
 1924TIP3    H227188   6.267   4.923   4.632  0.5283  0.2989 -0.0608
 1925TIP3   OH227189   3.950   4.044   1.337  0.3439 -0.0772 -0.3320
 1925TIP3    H127190   3.859   4.069   1.353  0.9947  1.3125  1.4642
 1925TIP3    H227191   3.988   4.120   1.294  0.2470 -1.3903 -2.9620
 1926TIP3   OH227192   5.049   1.712   0.342  0.0775  0.6516  0.3086
 1926TIP3    H127193   5.051   1.625   0.303  1.8940  0.2990  1.0802
 1926TIP3    H227194   5.048   1.772   0.267  2.6491 -0.0171 -0.3414
 1927TIP3   OH227195   3.171   2.261   6.156  0.1512  0.1873 -0.6804
 1927TIP3    H127196   3.151   2.349   6.187  2.6644  0.3054  0.9076
 1927TIP3    H227197   3.116   2.203   6.208 -0.9946  0.7508 -1.2363
 1928TIP3   OH227198   2.352   6.671  11.093  0.3750  0.0030  0.3149
 1928TIP3    H127199   2.369   6.590  11.141 -1.4207 -0.0520  0.9047
 1928TIP3    H227200   2.289   6.646  11.026 -1.1322  1.1141  1.2623
 1929TIP3   OH227201   0.395   6.198  17.169  0.6691 -0.6912  0.1690
 1929TIP3    H127202   0.323   6.193  17.232 -0.3486  0.8314 -0.8215
 1929TIP3    H227203   0.355   6.179  17.085  1.5408 -0.3282 -0.3450
 1930TIP3   OH227204   3.320   6.266   3.513 -0.3044  0.2425 -0.2672
 1930TIP3    H127205   3.307   6.261   3.419  1.3741  2.2311 -0.6511
 1930TIP3    H227206   3.344   6.357   3.530  2.1653 -0.6619  1.6866
 1931TIP3   OH227207   1.225   0.179   1.531 -0.3394  0.0563  0.3683
 1931TIP3    H127208   1.218   0.252   1.469 -2.3870 -0.3074  0.1016
 1931TIP3    H227209   1.268   0.109   1.481 -2.5546 -0.4586 -0.9347
 1932TIP3   OH227210   2.771   5.875  14.833 -0.0304 -0.7781  0.1781
 1932TIP3    H127211   2.800   5.819  14.761 -0.0232 -0.1117 -0.3437
 1932TIP3    H227212   2.680   5.851  14.848  0.1072 -1.2570  0.2807
 1933TIP3   OH227213   2.968   0.911   2.528  0.3750 -0.1555 -0.1376
 1933TIP3    H127214   2.970   1.002   2.499 -1.9611  0.1436  0.4497
 1933TIP3    H227215   2.912   0.912   2.606  0.6277 -2.0306  0.1053
 1934TIP3   OH227216   4.896   4.708   3.303 -0.3945 -0.5823 -0.2521
 1934TIP3    H127217   4.820   4.664   3.264 -1.8390  0.5421  1.1532
 1934TIP3    H227218   4.909   4.786   3.248 -2.8923  1.4008  1.7353
 1935TIP3   OH227219   1.751   1.316  13.525  0.6888 -0.1434 -0.0357
 1935TIP3    H127220   1.803   1.394  13.508 -1.6367  1.9337  1.6609
 1935TIP3    H227221   1.702   1.337  13.605 -2.5895 -1.9703 -1.4001
 1936TIP3   OH227222   6.237   6.451   5.773 -0.1149  0.6793 -0.4858
 1936TIP3    H127223   6.263   6.532   5.818 -0.4738  0.8733 -0.6249
 1936TIP3    H227224   6.150   6.470   5.739 -0.9207 -0.3364  0.9103
 1937TIP3   OH227225   6.349   6.459   0.964 -0.2826  0.4195  0.9781
 1937TIP3    H127226   6.268   6.510   0.968 -0.1749  0.5852  1.0239
 1937TIP3    H227227   6.388   6.468   1.051 -0.3433  0.1284  1.0371
 1938TIP3   OH227228   1.379   6.003   2.523  0.5315 -0.4095 -0.5224
 1938TIP3    H127229   1.298   6.038   2.486 -1.1953 -1.9800  1.5189
 1938TIP3    H227230   1.446   6.026   2.459 -1.1792  2.4929 -1.4925
 1939TIP3   OH227231   5.094   3.384   5.687 -0.6611  0.3894  0.4942
 1939TIP3    H127232   5.170   3.429   5.726  0.1132 -0.2931 -0.2086
 1939TIP3    H227233   5.028   3.453   5.678  0.8204  1.6726 -1.4377
 1940TIP3   OH227234   6.394   5.510   0.623 -0.5400  0.0501 -0.7636
 1940TIP3    H127235   6.432   5.597   0.611 -2.0019  1.1270  1.6112
 1940TIP3    H227236   6.305   5.527   0.652 -1.0776 -2.2905 -0.8706
 1941TIP3   OH227237   0.943   0.667  15.060  0.2534 -0.8716 -0.7480
 1941TIP3    H127238   0.932   0.575  15.083 -0.8800 -0.6084 -0.1219
 1941TIP3    H227239   0.888   0.679  14.983 -0.4806 -0.4887 -0.1765
 1942TIP3   OH227240   2.096   6.267   2.424  0.0759  0.4375 -0.5967
 1942TIP3    H127241   2.023   6.312   2.381  0.1398  0.2519 -0.9025
 1942TIP3    H227242   2.147   6.337   2.464  0.1101  0.6300 -0.9698
 1943TIP3   OH227243   2.349   2.579   4.092 -0.1265  0.1301 -0.2649
 1943TIP3    H127244   2.430   2.627   4.111  0.4120 -0.5048 -0.9301
 1943TIP3    H227245   2.377   2.487   4.085 -1.1309 -0.2871  0.9198
 1944TIP3   OH227246   2.672   3.190   1.646 -0.4224 -0.0411  0.2523
 1944TIP3    H127247   2.700   3.224   1.561 -0.3546 -0.6856  0.0152
 1944TIP3    H227248   2.721   3.108   1.657 -2.7249 -1.6022 -0.4950
 1945TIP3   OH227249   2.979   2.859  13.279 -0.1840  0.0602  0.4089
 1945TIP3    H127250   2.918   2.878  13.350  1.4714  2.2009  1.3479
 1945TIP3    H227251   2.978   2.938  13.224 -0.2652 -0.9437 -1.0912
 1946TIP3   OH227252   2.907   1.543   0.249 -0.2609 -0.4412 -0.7559
 1946TIP3    H127253   2.875   1.534   0.159 -0.0715  1.1517 -1.0174
 1946TIP3    H227254   3.002   1.540   0.241 -0.2190 -3.0705 -0.2284
 1947TIP3   OH227255   6.615   2.630   4.450 -0.4721  0.1984 -0.1786
 1947TIP3    H127256   6.572   2.548   4.423  0.1473 -0.6077  1.1746
 1947TIP3    H227257   6.550   2.698   4.432 -1.4770 -0.7392 -0.2020
 1948TIP3   OH227258   1.689   6.413   0.080  0.1059  0.6562 -0.5142
 1948TIP3    H127259   1.618   6.354   0.058 -0.5299  1.6943 -1.3129
 1948TIP3    H227260   1.766   6.357   0.087 -1.0026 -0.7077  1.8091
 1949TIP3   OH227261   2.256   1.029  11.491 -0.6120  0.1855 -0.2803
 1949TIP3    H127262   2.173   0.985  11.510 -0.1380 -0.5248  0.1653
 1949TIP3    H227263   2.231   1.104  11.436 -1.5402 -0.0442 -0.1861
 1950TIP3   OH227264   4.704   1.362   4.476  0.3014  0.2448 -0.2520
 1950TIP3    H127265   4.716   1.283   4.529  0.0283  0.3074 -0.0961
 1950TIP3    H227266   4.624   1.345   4.425  1.7657 -0.7773 -2.3661
 1951TIP3   OH227267   1.164   2.565  12.270 -0.2700  0.0499 -0.3255
 1951TIP3    H127268   1.159   2.618  12.350 -1.2273 -0.4459 -0.0473
 1951TIP3    H227269   1.090   2.594  12.218  0.0290 -0.0264 -0.7979
 1952TIP3   OH227270   1.522   6.368   3.471  0.4976  0.1656 -0.3584
 1952TIP3    H127271   1.587   6.431   3.500  0.9321  0.3424 -1.6248
 1952TIP3    H227272   1.549   6.285   3.510 -0.7059  0.9013  2.2455
 1953TIP3   OH227273   1.889   2.302   3.634  0.0432 -0.7062  0.1539
 1953TIP3    H127274   1.904   2.261   3.549 -0.0834  1.9535 -1.2398
 1953TIP3    H227275   1.864   2.392   3.614 -0.9553 -0.2369  2.9973
 1954TIP3   OH227276   0.864   1.380  15.133  0.5259 -0.2506  0.4019
 1954TIP3    H127277   0.811   1.353  15.059  2.0492 -0.9168 -0.4907
 1954TIP3    H227278   0.932   1.313  15.140  0.4304 -0.2209  2.4189
 1955TIP3   OH227279   5.148   1.997   6.026 -0.0106 -0.8257  0.6195
 1955TIP3    H127280   5.092   2.013   5.950  0.7566  0.5600  0.3105
 1955TIP3    H227281   5.236   2.024   5.997  0.2711 -0.1100  2.0296
 1956TIP3   OH227282   0.314   0.036   3.571  0.2309 -0.0636 -0.5581
 1956TIP3    H127283   0.380   0.103   3.590  1.0343 -1.2056  0.8570
 1956TIP3    H227284   0.262   0.074   3.500  1.2856  1.6224 -0.4973
 1957TIP3   OH227285   2.872   2.033   1.941 -0.3189  0.3999  0.1118
 1957TIP3    H127286   2.940   1.967   1.931 -1.0568 -0.2978 -0.3403
 1957TIP3    H227287   2.914   2.102   1.993  0.6914 -0.0702 -0.0578
 1958TIP3   OH227288   5.987   2.801  12.956  0.4904 -0.2739  0.2053
 1958TIP3    H127289   5.916   2.797  12.892  0.3515 -0.1076  0.3457
 1958TIP3    H227290   6.066   2.808  12.904  0.2563  1.9957  0.0475
 1959TIP3   OH227291   3.337   1.691  16.538 -0.7079  0.3267  0.4656
 1959TIP3    H127292   3.388   1.759  16.495  0.0813  0.2139  1.1987
 1959TIP3    H227293   3.246   1.709  16.512 -0.3924  1.0063 -0.2075
 1960TIP3   OH227294   2.498   6.765  15.322 -0.3075 -0.2501  0.3532
 1960TIP3    H127295   2.494   6.835  15.258  0.0498 -0.1001  0.4911
 1960TIP3    H227296   2.429   6.786  15.385 -1.4101 -1.0082 -0.5838
 1961TIP3   OH227297   6.099   6.584   4.820 -0.3418  0.4067  0.0603
 1961TIP3    H127298   6.187   6.582   4.782 -0.7382 -1.7868 -0.9057
 1961TIP3    H227299   6.064   6.670   4.796  0.2983  0.0195 -2.5861
 1962TIP3   OH227300   4.174   5.634  14.295  0.6659 -0.0425  0.6441
 1962TIP3    H127301   4.219   5.712  14.262  0.5187  0.8351  2.3962
 1962TIP3    H227302   4.085   5.642  14.260  0.4397  1.0022  1.3922
 1963TIP3   OH227303   2.241   0.911  12.226 -0.2616  0.0068  0.6815
 1963TIP3    H127304   2.192   0.837  12.263  1.6952 -0.4400  2.6255
 1963TIP3    H227305   2.296   0.871  12.158  0.7495 -0.3921  1.6877
 1964TIP3   OH227306   1.575   1.270  11.904 -0.5142 -0.2648 -0.2382
 1964TIP3    H127307   1.618   1.355  11.916 -1.8886  0.1417  2.4716
 1964TIP3    H227308   1.647   1.206  11.904  0.4351  0.7700 -0.9739
 1965TIP3   OH227309   4.901   0.677  11.241 -0.5822 -0.0174 -0.0164
 1965TIP3    H127310   4.928   0.769  11.233  0.7121 -0.1844  1.8065
 1965TIP3    H227311   4.811   0.682  11.272 -0.1577  0.6784  1.1640
 1966TIP3   OH227312   0.770   1.586  13.128 -0.3065 -0.1570  0.0792
 1966TIP3    H127313   0.742   1.638  13.053 -0.9327 -0.5054  0.0611
 1966TIP3    H227314   0.791   1.650  13.195 -0.9431  0.1307  0.0136
 1967TIP3   OH227315   0.945   0.563  16.777 -0.0761 -0.6540 -0.2664
 1967TIP3    H127316   0.870   0.616  16.750  0.7926  0.8586  0.1200
 1967TIP3    H227317   0.907   0.492  16.828 -1.2233  0.2894  0.2488
 1968TIP3   OH227318   0.317   4.078   3.372  0.1060 -0.1759 -0.3521
 1968TIP3    H127319   0.239   4.134   3.369 -0.3291 -0.7242  0.4095
 1968TIP3    H227320   0.314   4.038   3.458  1.6301  0.3314 -0.0410
 1969TIP3   OH227321   5.508   5.421   4.828 -0.0121 -0.4413 -0.0502
 1969TIP3    H127322   5.440   5.480   4.861 -0.0912 -0.2695 -0.5198
 1969TIP3    H227323   5.589   5.452   4.870 -0.0103  0.1617 -0.4911
 1970TIP3   OH227324   0.295   5.109  16.768  0.3984 -0.0807 -0.3908
 1970TIP3    H127325   0.213   5.060  16.766  0.5884 -0.5527  1.3711
 1970TIP3    H227326   0.314   5.129  16.677 -2.4778  1.3929 -0.8019
 1971TIP3   OH227327   5.446   5.493   6.501 -0.1450 -0.5802  0.2654
 1971TIP3    H127328   5.535   5.458   6.494 -0.2598 -1.2881  1.7483
 1971TIP3    H227329   5.439   5.522   6.592 -1.1210  0.3610 -0.0928
 1972TIP3   OH227330   6.609   5.924  16.129  0.2286 -0.3713 -0.6317
 1972TIP3    H127331   6.614   5.828  16.133  1.2029 -0.2950  1.1333
 1972TIP3    H227332   6.515   5.943  16.133  0.0464 -1.2496 -0.4487
 1973TIP3   OH227333   2.533   3.547   2.921 -0.5715 -1.2897  0.0886
 1973TIP3    H127334   2.522   3.465   2.970 -2.1627 -2.4493 -2.0350
 1973TIP3    H227335   2.460   3.601   2.950 -0.8325 -1.5211 -0.1251
 1974TIP3   OH227336   0.698   6.222  13.241  0.2750  0.0288  0.1605
 1974TIP3    H127337   0.755   6.153  13.276  1.0495 -0.2904 -1.6255
 1974TIP3    H227338   0.724   6.301  13.288  0.1490 -0.6744  1.4414
 1975TIP3   OH227339   4.092   4.332  12.803 -0.2876 -0.2416 -0.1462
 1975TIP3    H127340   4.026   4.269  12.774 -1.5263  1.0123 -0.1473
 1975TIP3    H227341   4.076   4.343  12.897 -0.4942  0.5261 -0.2650
 1976TIP3   OH227342   3.874   2.627   5.052 -0.0115 -0.5077 -0.3633
 1976TIP3    H127343   3.787   2.618   5.091  0.2250 -1.3409 -0.0113
 1976TIP3    H227344   3.887   2.721   5.043 -1.3516 -0.3991 -1.3351
 1977TIP3   OH227345   3.556   5.906   5.787 -0.5889 -0.0136  0.3083
 1977TIP3    H127346   3.514   5.853   5.855 -2.7947 -0.1032 -0.9951
 1977TIP3    H227347   3.579   5.843   5.719  0.0676  0.2768  0.2590
 1978TIP3   OH227348   5.936   1.622  14.448  0.6078 -0.1163 -0.1397
 1978TIP3    H127349   5.963   1.583  14.365 -0.2466  0.6834 -0.8290
 1978TIP3    H227350   5.841   1.606  14.451  0.8249 -1.2727  1.3251
 1979TIP3   OH227351   4.080   5.009   1.431 -0.3149 -0.4768 -0.0403
 1979TIP3    H127352   4.144   4.938   1.420 -1.2009 -1.2735 -0.1871
 1979TIP3    H227353   4.096   5.068   1.357 -0.3925 -1.1868 -0.6327
 1980TIP3   OH227354   1.766   0.072  15.522 -0.2488 -0.1019 -0.5732
 1980TIP3    H127355   1.833   0.092  15.457 -0.2914  0.3429 -0.4809
 1980TIP3    H227356   1.719   0.154  15.534  0.4135  0.0930  0.7943
 1981TIP3   OH227357   3.328   4.416  15.201  0.0238 -0.1341 -0.3247
 1981TIP3    H127358   3.316   4.360  15.125  0.2927  0.4304 -0.7866
 1981TIP3    H227359   3.421   4.409  15.222 -0.2887 -1.3991  0.8394
 1982TIP3   OH227360   5.127   1.086   5.759  0.6529 -0.2400 -0.1501
 1982TIP3    H127361   5.137   1.063   5.851  1.9282 -0.7398 -0.3910
 1982TIP3    H227362   5.042   1.051   5.734  0.1766  0.1322  0.9006
 1983TIP3   OH227363   1.678   0.213   0.124 -0.2059  0.0717 -0.5482
 1983TIP3    H127364   1.767   0.217   0.087  0.4515  2.0266  1.0526
 1983TIP3    H227365   1.684   0.146   0.192  0.7074  1.6809  1.0232
 1984TIP3   OH227366   1.963   3.987   2.199 -0.4554 -0.3987  0.0208
 1984TIP3    H127367   2.026   4.016   2.265  1.3089 -0.1146 -1.7155
 1984TIP3    H227368   1.926   4.068   2.164 -0.2337 -0.4800 -0.4066
 1985TIP3   OH227369   6.099   3.622   4.965 -0.5615  0.1063 -0.1892
 1985TIP3    H127370   6.169   3.641   4.903 -0.7504 -0.0888 -0.4657
 1985TIP3    H227371   6.019   3.651   4.921 -1.2603 -3.8440 -1.8847
 1986TIP3   OH227372   3.138   6.124  15.989 -0.0836  0.7825 -0.6676
 1986TIP3    H127373   3.138   6.217  16.008  1.4366  0.7177 -0.2212
 1986TIP3    H227374   3.192   6.085  16.058 -1.6587 -0.5970 -0.1498
 1987TIP3   OH227375   2.711   6.312   0.587  0.2206  0.3013  0.1051
 1987TIP3    H127376   2.705   6.236   0.529  0.9182  0.2723  0.0670
 1987TIP3    H227377   2.678   6.385   0.533  0.7708  0.2561 -0.2953
 1988TIP3   OH227378   5.482   5.653   1.472  0.2066  0.0244 -0.0444
 1988TIP3    H127379   5.497   5.719   1.405 -1.4761 -1.1540 -1.7176
 1988TIP3    H227380   5.507   5.694   1.554 -0.4286  2.5903 -1.0542
 1989TIP3   OH227381   2.395   4.857  12.587  0.2269 -0.3254 -0.6863
 1989TIP3    H127382   2.371   4.947  12.566 -0.2745 -1.0367 -3.4221
 1989TIP3    H227383   2.318   4.805  12.565  1.5031 -1.7424 -2.0198
 1990TIP3   OH227384   5.397   2.799   5.859 -0.4002  0.2869  0.3013
 1990TIP3    H127385   5.336   2.812   5.931 -0.2985  1.0298  0.2637
 1990TIP3    H227386   5.353   2.836   5.783 -0.2277  0.1233  0.1208
 1991TIP3   OH227387   1.588   4.921  16.788  0.6732 -0.6720 -0.0684
 1991TIP3    H127388   1.541   4.993  16.831  0.4146 -1.9911  2.0246
 1991TIP3    H227389   1.573   4.846  16.846  2.4487 -1.9765 -1.2230
 1992TIP3   OH227390   3.760   4.171  12.508  0.1959  0.1195 -0.4539
 1992TIP3    H127391   3.749   4.261  12.476 -0.2836 -0.4833 -2.0799
 1992TIP3    H227392   3.817   4.130  12.443  0.0497 -0.8724  0.0386
 1993TIP3   OH227393   3.025   5.640   5.689 -0.3112 -0.4201 -0.2997
 1993TIP3    H127394   3.106   5.679   5.658 -0.4928  0.7633  0.6350
 1993TIP3    H227395   3.036   5.546   5.675  0.5823 -0.1438 -1.5942
 1994TIP3   OH227396   2.786   3.998  16.180  0.3922  0.2278  0.3306
 1994TIP3    H127397   2.746   3.913  16.200  0.7645  0.1205  0.6203
 1994TIP3    H227398   2.795   4.040  16.265 -1.2904  1.2350  0.0570
 1995TIP3   OH227399   0.398   1.150  12.858  0.7057 -0.4112  0.1707
 1995TIP3    H127400   0.399   1.079  12.922 -0.0335  0.4239  1.1159
 1995TIP3    H227401   0.390   1.230  12.909 -0.3387  0.2532 -0.9633
 1996TIP3   OH227402   1.587   2.529   0.110  0.4263 -0.2866  0.2057
 1996TIP3    H127403   1.665   2.475   0.102  1.8342  1.7972 -1.1386
 1996TIP3    H227404   1.544   2.523   0.024  1.0325  1.2459 -0.2512
 1997TIP3   OH227405   3.664   0.140   3.167  0.0390 -0.0072  0.1668
 1997TIP3    H127406   3.572   0.138   3.143  0.3981 -1.4242 -1.2686
 1997TIP3    H227407   3.669   0.090   3.248 -0.2692 -1.4187 -0.6455
 1998TIP3   OH227408   1.876   6.776   5.523 -0.4125 -0.7434 -0.1522
 1998TIP3    H127409   1.869   6.852   5.466 -2.7013 -0.1280  0.8368
 1998TIP3    H227410   1.967   6.776   5.553 -0.6385  2.3794  0.8311
 1999TIP3   OH227411   6.684   6.667  13.132 -0.1907  0.6443  0.4620
 1999TIP3    H127412   6.743   6.592  13.127 -0.1131  0.7297  0.1072
 1999TIP3    H227413   6.596   6.629  13.133 -0.2840  0.6097 -2.2244
 2000TIP3   OH227414   0.873   6.187  14.241 -0.6425  0.1848 -0.4050
 2000TIP3    H127415   0.955   6.206  14.195 -0.2493 -0.7063 -0.1011
 2000TIP3    H227416   0.878   6.093  14.261 -1.4369  0.2635  0.2226
 2001TIP3   OH227417   1.182   5.780   3.886 -0.5991 -0.2997 -0.1801
 2001TIP3    H127418   1.208   5.872   3.898  0.1833 -0.5680  0.2927
 2001TIP3    H227419   1.187   5.742   3.974  1.7323 -1.4338 -0.7163
 2002TIP3   OH227420   3.754   5.154   5.943  0.1870 -0.4924 -0.7881
 2002TIP3    H127421   3.848   5.140   5.952 -0.0918 -2.8593 -0.8867
 2002TIP3    H227422   3.715   5.102   6.013 -1.0700  0.6981 -0.5500
 2003TIP3   OH227423   4.173   2.990   0.757  0.1021 -0.4931 -0.3396
 2003TIP3    H127424   4.092   2.968   0.802  0.2231  0.6094  0.4555
 2003TIP3    H227425   4.149   2.993   0.664 -0.7057 -0.4473 -0.1319
 2004TIP3   OH227426   2.083   4.476  13.984 -0.7402 -0.0634 -0.0185
 2004TIP3    H127427   2.067   4.543  13.918 -0.8782  0.3055  0.3889
 2004TIP3    H227428   2.047   4.396  13.945  2.7822 -0.8065 -2.2104
 2005TIP3   OH227429   3.771   5.083   3.453  0.7964  0.3143  0.4625
 2005TIP3    H127430   3.791   5.168   3.414  0.9558  0.0863  0.0387
 2005TIP3    H227431   3.680   5.091   3.482 -0.0136 -0.1542 -1.7418
 2006TIP3   OH227432   2.502   1.039   3.965 -0.4427 -0.1167  0.4498
 2006TIP3    H127433   2.493   1.128   3.999 -3.3773  0.3279 -1.0813
 2006TIP3    H227434   2.482   0.982   4.039  0.2806  0.5133  1.1474
 2007TIP3   OH227435   2.388   4.351  16.837 -0.6194 -0.5075  0.0684
 2007TIP3    H127436   2.437   4.291  16.893 -2.5398 -1.3861  0.9143
 2007TIP3    H227437   2.337   4.293  16.779 -1.2616  0.3301 -0.2291
 2008TIP3   OH227438   3.355   3.093  16.019 -0.5011  0.1985  0.2553
 2008TIP3    H127439   3.340   3.159  16.086 -0.7303  1.1517 -0.7170
 2008TIP3    H227440   3.411   3.028  16.061 -2.7410 -0.5968  2.2202
 2009TIP3   OH227441   1.630   0.220   6.461 -0.2407 -0.1113 -0.4343
 2009TIP3    H127442   1.575   0.262   6.526 -0.9448 -0.3840 -0.8402
 2009TIP3    H227443   1.618   0.272   6.382  1.3080  0.7573 -0.1341
 2010TIP3   OH227444   4.117   1.501   1.010 -0.3832  0.3973 -0.1769
 2010TIP3    H127445   4.023   1.511   1.022 -0.7655 -2.4520 -0.1395
 2010TIP3    H227446   4.155   1.577   1.054 -2.5990  0.8603  1.0839
 2011TIP3   OH227447   1.278   1.574   0.394  0.1736 -0.0431 -0.2641
 2011TIP3    H127448   1.341   1.510   0.426  0.9571 -0.0974 -1.8275
 2011TIP3    H227449   1.290   1.651   0.450  2.3873  0.3368 -1.1743
 2012TIP3   OH227450   4.598   0.343  14.693  0.4761  0.1592  0.2029
 2012TIP3    H127451   4.656   0.397  14.747 -0.4415  1.2347  0.1395
 2012TIP3    H227452   4.601   0.257  14.735  1.7348  0.3150  0.4827
 2013TIP3   OH227453   4.434   6.658  11.942  0.0625 -0.0886 -0.8300
 2013TIP3    H127454   4.355   6.692  11.983  1.2892 -0.0850  1.7084
 2013TIP3    H227455   4.451   6.719  11.870 -2.6291 -0.5717 -2.0012
 2014TIP3   OH227456   3.999   6.491  14.738  0.2841 -0.0824 -0.4742
 2014TIP3    H127457   3.997   6.504  14.643  2.0675 -0.4108 -0.5948
 2014TIP3    H227458   3.932   6.425  14.755 -1.9065  1.8141 -1.1112
 2015TIP3   OH227459   3.560   3.097   4.896 -0.0654  1.0427  0.6517
 2015TIP3    H127460   3.654   3.092   4.913  0.0737  0.6954 -0.1472
 2015TIP3    H227461   3.524   3.016   4.932  0.1295  0.6209 -0.0615
 2016TIP3   OH227462   5.691   2.641  13.562 -0.0739  0.4632 -0.2522
 2016TIP3    H127463   5.708   2.705  13.631  1.0813 -0.9824  0.8750
 2016TIP3    H227464   5.655   2.566  13.608 -2.2241  0.5558 -1.6650
 2017TIP3   OH227465   4.298   2.661   5.388  0.1410  0.3411  0.0167
 2017TIP3    H127466   4.352   2.715   5.331  3.0576  0.0354  2.2252
 2017TIP3    H227467   4.298   2.575   5.348 -0.4798  0.8144 -1.0428
 2018TIP3   OH227468   2.295   0.447   5.274 -0.5209 -0.0629  0.5564
 2018TIP3    H127469   2.287   0.361   5.232 -0.7528 -0.0074  0.4848
 2018TIP3    H227470   2.384   0.476   5.251 -0.3336 -0.4088  0.8266
 2019TIP3   OH227471   6.099   0.103   1.781  0.0228 -0.1612 -0.8171
 2019TIP3    H127472   6.179   0.142   1.816 -1.1589  0.8984  0.8514
 2019TIP3    H227473   6.089   0.021   1.830 -1.7286  1.4085  1.6843
 2020TIP3   OH227474   0.242   5.330   4.947  0.2500 -0.1338  0.4463
 2020TIP3    H127475   0.266   5.316   4.856  1.3488 -0.4148  0.7596
 2020TIP3    H227476   0.162   5.278   4.959  0.4863 -0.6550 -0.1724
 2021TIP3   OH227477   5.442   4.722   0.756  0.0491 -0.5206  0.2954
 2021TIP3    H127478   5.431   4.798   0.813 -1.0204 -1.3722  1.2485
 2021TIP3    H227479   5.537   4.710   0.750  0.2551  1.0903 -0.1675
 2022TIP3   OH227480   5.438   5.344  14.622  0.0225  0.0667 -0.5554
 2022TIP3    H127481   5.526   5.366  14.653 -0.0137 -1.1528  0.5209
 2022TIP3    H227482   5.452   5.272  14.560 -0.2562 -0.7709  0.3251
 2023TIP3   OH227483   0.368   4.759   0.198 -0.1015 -0.3900 -0.2562
 2023TIP3    H127484   0.431   4.687   0.195  0.5386  0.1565 -0.3812
 2023TIP3    H227485   0.414   4.829   0.244 -1.5155 -0.7864  1.8951
 2024TIP3   OH227486   4.281   6.589   4.349 -0.4775  0.4679  0.5719
 2024TIP3    H127487   4.343   6.518   4.366  0.1831  1.2854  1.7632
 2024TIP3    H227488   4.202   6.545   4.320  0.4483 -0.6484 -0.3730
 2025TIP3   OH227489   0.838   1.302   4.064  0.3214 -0.7246 -0.3492
 2025TIP3    H127490   0.781   1.225   4.060 -1.3449  0.4810 -0.5055
 2025TIP3    H227491   0.821   1.350   3.983  0.8745  0.1333  0.0254
 2026TIP3   OH227492   5.319   5.898  13.069 -0.1822  0.4316 -0.2652
 2026TIP3    H127493   5.313   5.920  13.162 -0.1856 -0.8202  0.0484
 2026TIP3    H227494   5.275   5.970  13.024  1.2518  1.8867  0.5742
 2027TIP3   OH227495   4.342   5.220  14.651  0.0180  0.2085  0.2187
 2027TIP3    H127496   4.307   5.180  14.572  0.8960 -0.5798  0.1982
 2027TIP3    H227497   4.319   5.158  14.721  2.3469 -1.0010  0.0320
 2028TIP3   OH227498   6.620   1.093  14.976 -0.2272  0.3229  0.3541
 2028TIP3    H127499   6.579   1.176  14.954  1.0247  0.9129  0.1982
 2028TIP3    H227500   6.560   1.027  14.942 -1.2478  1.1466  0.5051
 2029TIP3   OH227501   2.212   6.625   0.184 -0.8317  0.1071  0.1440
 2029TIP3    H127502   2.155   6.601   0.111  0.3549 -1.1310 -0.4091
 2029TIP3    H227503   2.245   6.542   0.217 -1.2898  0.6429  2.0894
 2030TIP3   OH227504   2.710   3.551  14.980 -0.4222  0.2309  0.3504
 2030TIP3    H127505   2.722   3.560  14.886  0.8278 -1.4165  0.3128
 2030TIP3    H227506   2.617   3.568  14.994 -0.2096  2.7795 -0.8364
 2031TIP3   OH227507   1.727   5.397  12.113  0.0263  0.2418 -0.2377
 2031TIP3    H127508   1.721   5.366  12.203  2.6584 -0.9907 -0.4092
 2031TIP3    H227509   1.793   5.467  12.115 -0.4197  0.7136 -1.1090
 2032TIP3   OH227510   1.154   2.866  15.489  0.5000  1.0706 -0.1393
 2032TIP3    H127511   1.173   2.840  15.579  1.3118  1.6684 -0.1228
 2032TIP3    H227512   1.185   2.792  15.436 -0.0085  0.7049  0.0693
 2033TIP3   OH227513   3.583   4.017  12.359  0.2797  0.0978 -0.2527
 2033TIP3    H127514   3.537   4.098  12.383 -0.0556  0.1010 -0.8714
 2033TIP3    H227515   3.652   4.007  12.425  0.6452  1.1593 -0.4565
 2034TIP3   OH227516   3.939   5.351   2.498 -0.0582 -0.1133  0.0945
 2034TIP3    H127517   4.011   5.345   2.561  0.1950  0.1671 -0.1635
 2034TIP3    H227518   3.964   5.422   2.439 -0.0711 -0.6742 -0.6024
 2035TIP3   OH227519   4.462   5.629   3.854 -0.2471  0.0385 -0.3771
 2035TIP3    H127520   4.522   5.621   3.780 -1.0847  0.2997 -1.0948
 2035TIP3    H227521   4.404   5.701   3.830  1.9708  3.0258  2.2935
 2036TIP3   OH227522   0.636   2.690  14.134 -0.0066 -0.2815  0.0611
 2036TIP3    H127523   0.699   2.762  14.131 -2.3853  1.9311 -0.3658
 2036TIP3    H227524   0.656   2.645  14.216  1.9206  0.4894  0.0724
 2037TIP3   OH227525   0.510   6.079   6.164 -0.5277  0.8434 -0.5891
 2037TIP3    H127526   0.531   6.157   6.214 -1.7536  1.9056 -1.6409
 2037TIP3    H227527   0.420   6.058   6.190  0.0640 -0.7281  0.2873
 2038TIP3   OH227528   6.374   5.488   0.935 -0.0811 -0.1914  0.5044
 2038TIP3    H127529   6.328   5.408   0.960 -1.8581  0.6241 -0.0351
 2038TIP3    H227530   6.432   5.461   0.863  0.6282 -1.3080  1.4579
 2039TIP3   OH227531   1.587   1.304   1.798 -0.2586 -0.2871 -0.1082
 2039TIP3    H127532   1.556   1.364   1.731  1.0243 -2.0834 -2.4410
 2039TIP3    H227533   1.512   1.248   1.818 -0.7793  0.5607  0.3414
 2040TIP3   OH227534   4.736   1.774   1.025 -0.0231  0.0841 -0.0363
 2040TIP3    H127535   4.696   1.795   0.941  0.5579 -0.9829 -0.5864
 2040TIP3    H227536   4.663   1.742   1.079 -0.5025  1.3244  0.0847
 2041TIP3   OH227537   0.891   4.172   5.752 -0.2782 -0.1546  0.0520
 2041TIP3    H127538   0.849   4.104   5.700  1.0321 -1.4470  0.6275
 2041TIP3    H227539   0.959   4.208   5.695 -0.3519  0.0293  0.0781
 2042TIP3   OH227540   5.372   3.557   4.692  0.9038  0.1638  0.1675
 2042TIP3    H127541   5.411   3.617   4.755 -1.3510  2.4318 -0.4154
 2042TIP3    H227542   5.413   3.581   4.608 -0.4394  1.4248 -0.1709
 2043TIP3   OH227543   6.085   0.790  13.733  0.2302 -0.6346 -0.0465
 2043TIP3    H127544   6.087   0.883  13.756  0.8138 -1.1993  2.5424
 2043TIP3    H227545   6.160   0.753  13.780 -1.9646 -2.9650  1.8904
 2044TIP3   OH227546   1.245   6.697  16.218 -0.2227 -0.1594 -0.6316
 2044TIP3    H127547   1.260   6.603  16.222 -1.5363 -0.3525  0.9687
 2044TIP3    H227548   1.330   6.736  16.238 -0.1254 -1.0610  0.8745
 2045TIP3   OH227549   1.312   3.900   2.810  0.1486 -0.1261 -0.0205
 2045TIP3    H127550   1.399   3.929   2.780  0.4222 -1.6321 -0.7772
 2045TIP3    H227551   1.331   3.841   2.883 -0.1211 -1.4877 -1.0049
 2046TIP3   OH227552   5.407   1.196   5.044 -0.2716  0.0237 -0.1488
 2046TIP3    H127553   5.370   1.273   5.087  0.7581  0.4438  0.0198
 2046TIP3    H227554   5.491   1.182   5.088  0.2251 -0.3127 -1.1618
 2047TIP3   OH227555   1.614   4.464   5.850 -0.2138 -0.9937 -0.1930
 2047TIP3    H127556   1.675   4.437   5.781  0.1970 -0.1286 -0.1810
 2047TIP3    H227557   1.528   4.462   5.807  0.1128  0.1871 -0.9392
 2048TIP3   OH227558   3.873   1.829  13.919  0.5605 -0.5339  0.3969
 2048TIP3    H127559   3.853   1.891  13.848  0.4838 -0.0329  0.8491
 2048TIP3    H227560   3.789   1.789  13.940  0.1191  0.9622  1.7243
 2049TIP3   OH227561   5.057   1.725  14.516  0.4596 -0.1781 -0.4997
 2049TIP3    H127562   5.133   1.725  14.574  0.3371 -0.4378 -0.3345
 2049TIP3    H227563   5.087   1.768  14.437  0.1207  1.8530  0.4262
 2050TIP3   OH227564   3.400   4.811   2.147  0.0742 -0.4099 -0.0209
 2050TIP3    H127565   3.478   4.809   2.203  0.0221  0.1331  0.0826
 2050TIP3    H227566   3.328   4.830   2.208  0.2163  1.8176 -0.4435
 2051TIP3   OH227567   2.587   3.294   0.643  0.2442 -0.2179 -0.5421
 2051TIP3    H127568   2.639   3.290   0.563  0.0837  1.1743 -0.7364
 2051TIP3    H227569   2.558   3.385   0.648  0.3903 -0.2430  1.1976
 2052TIP3   OH227570   0.176   6.197   2.404  0.2584 -0.2173  0.1239
 2052TIP3    H127571   0.179   6.285   2.440 -1.1834  0.4811 -1.3228
 2052TIP3    H227572   0.093   6.193   2.356 -0.0193 -2.5851  0.6726
 2053TIP3   OH227573   6.396   1.476   0.170  0.1680  0.3974 -0.3446
 2053TIP3    H127574   6.491   1.482   0.183  0.2652 -1.1532 -0.2509
 2053TIP3    H227575   6.376   1.548   0.110  1.4347  0.5712 -0.5887
 2054TIP3   OH227576   4.149   2.260  15.410  0.3846 -0.4797  0.5902
 2054TIP3    H127577   4.115   2.184  15.364  1.8768 -0.8633  0.0440
 2054TIP3    H227578   4.073   2.317  15.423 -0.2357 -0.7155 -1.6588
 2055TIP3   OH227579   1.105   4.384  16.434  0.3085  0.4588  0.3814
 2055TIP3    H127580   1.158   4.451  16.478  0.8011  0.7694 -0.6433
 2055TIP3    H227581   1.110   4.408  16.341  0.9569 -1.3288 -0.0710
 2056TIP3   OH227582   6.615   0.422  11.159 -0.2834 -0.2111  0.2470
 2056TIP3    H127583   6.690   0.421  11.100 -0.0447 -1.9948  0.5128
 2056TIP3    H227584   6.543   0.455  11.105  0.3166 -0.1369 -0.5285
 2057TIP3   OH227585   6.131   5.034   2.128 -0.0594 -0.5141  0.0560
 2057TIP3    H127586   6.055   5.072   2.173 -1.9986 -0.1380 -3.2060
 2057TIP3    H227587   6.119   4.940   2.138 -0.0215 -0.4423  0.9130
 2058TIP3   OH227588   1.556   5.213  15.500 -0.0945  0.0088 -0.2187
 2058TIP3    H127589   1.474   5.219  15.451 -0.5374 -0.7496  0.4094
 2058TIP3    H227590   1.599   5.297  15.485 -1.3891  0.7755  0.1515
 2059TIP3   OH227591   5.937   0.145  16.163  0.3665  0.0690  0.0714
 2059TIP3    H127592   6.030   0.155  16.144  0.9027 -3.0535  0.3979
 2059TIP3    H227593   5.908   0.076  16.103 -0.9673 -1.1138  1.9474
 2060TIP3   OH227594   0.573   5.375   3.939 -0.0075 -0.0381  0.1394
 2060TIP3    H127595   0.535   5.303   3.989 -0.5363  0.0738 -0.0947
 2060TIP3    H227596   0.653   5.339   3.902  0.2665 -0.1939  0.8659
 2061TIP3   OH227597   6.230   1.013  11.333  0.1569  0.1002  0.3815
 2061TIP3    H127598   6.137   0.990  11.337  0.2693 -1.7499 -3.6036
 2061TIP3    H227599   6.272   0.949  11.390 -0.8631 -0.0340  1.0190
 2062TIP3   OH227600   4.263   2.152   1.171 -0.1743 -0.2100  0.9052
 2062TIP3    H127601   4.182   2.182   1.131  0.8106  1.1565 -0.1291
 2062TIP3    H227602   4.324   2.141   1.098  1.0741  0.4085  1.8175
 2063TIP3   OH227603   1.928   2.559   1.683 -0.5981  0.1632  0.0273
 2063TIP3    H127604   1.960   2.609   1.608  1.0559 -0.8917 -0.0233
 2063TIP3    H227605   1.989   2.582   1.754 -0.0930 -1.3934  0.1204
 2064TIP3   OH227606   4.554   0.137  11.516 -0.3635  0.4291 -0.1353
 2064TIP3    H127607   4.550   0.221  11.470  0.9705  0.8362  0.4385
 2064TIP3    H227608   4.564   0.072  11.447  1.0624  0.9811 -0.4956
 2065TIP3   OH227609   6.640   5.670  13.297  0.1323  0.0817  1.0396
 2065TIP3    H127610   6.671   5.750  13.254 -1.8283  0.5228  0.3420
 2065TIP3    H227611   6.547   5.686  13.312 -0.2621 -2.0116  1.0556
 2066TIP3   OH227612   0.691   2.609   0.301  0.1112 -0.0129  0.3734
 2066TIP3    H127613   0.721   2.616   0.210 -0.0322 -3.1463 -0.0050
 2066TIP3    H227614   0.599   2.632   0.299  0.2529  0.5243 -0.1384
 2067TIP3   OH227615   1.353   1.264   1.622  0.1911  0.3495 -0.0863
 2067TIP3    H127616   1.262   1.266   1.594  0.3856 -0.1147 -0.7769
 2067TIP3    H227617   1.403   1.285   1.543  0.8035 -2.0261 -0.3926
 2068TIP3   OH227618   3.487   4.508  13.393  0.3607  0.6493 -0.9147
 2068TIP3    H127619   3.553   4.448  13.357  0.1228  0.0687 -0.3995
 2068TIP3    H227620   3.404   4.466  13.372  0.2355 -0.4401  1.5316
 2069TIP3   OH227621   4.494   4.012  10.803  0.0450 -0.0384 -0.6480
 2069TIP3    H127622   4.522   3.937  10.855  1.1307  1.4102  0.9658
 2069TIP3    H227623   4.547   4.085  10.835 -2.1552  1.8025 -0.9513
 2070TIP3   OH227624   4.364   6.605  15.719  0.4051  0.2216 -0.3874
 2070TIP3    H127625   4.440   6.576  15.769  0.2660  0.3258 -0.1154
 2070TIP3    H227626   4.389   6.691  15.685 -0.1736  0.9893  1.0253
 2071TIP3   OH227627   1.980   5.333   2.123 -0.2828  0.1352 -0.1606
 2071TIP3    H127628   2.050   5.359   2.184  0.2747 -0.9836 -0.2974
 2071TIP3    H227629   2.010   5.363   2.038 -0.3728  0.3997 -0.1009
 2072TIP3   OH227630   4.477   2.688  12.558  0.5531 -0.0810  0.0400
 2072TIP3    H127631   4.460   2.772  12.601  0.9131  0.3997 -0.7403
 2072TIP3    H227632   4.419   2.626  12.602  0.4758  0.5232  0.8011
 2073TIP3   OH227633   2.269   5.086  12.481 -0.1618 -0.3495  0.0962
 2073TIP3    H127634   2.247   5.048  12.396 -0.5861  1.7939 -0.8285
 2073TIP3    H227635   2.186   5.119  12.515  0.1471 -0.4334  0.9683
 2074TIP3   OH227636   2.808   1.640  16.431  0.0885 -0.0025  0.1578
 2074TIP3    H127637   2.825   1.546  16.434  0.1434 -0.1288 -2.1914
 2074TIP3    H227638   2.736   1.653  16.492  1.7077 -1.1044  2.4728
 2075TIP3   OH227639   2.812   0.161  14.899  0.0748  0.2186  0.1412
 2075TIP3    H127640   2.736   0.106  14.920  0.8599 -0.6020  0.8811
 2075TIP3    H227641   2.787   0.249  14.929 -0.5831 -0.0385  0.3699
 2076TIP3   OH227642   1.854   1.552  13.465 -0.2793  0.2323 -0.2603
 2076TIP3    H127643   1.917   1.503  13.412  0.2716 -2.1334  2.3596
 2076TIP3    H227644   1.907   1.610  13.518 -0.6875  1.2272 -0.9089
 2077TIP3   OH227645   2.260   1.154  11.806 -0.0964  0.6132  0.0889
 2077TIP3    H127646   2.199   1.109  11.864  0.2644  1.0660  0.8324
 2077TIP3    H227647   2.253   1.246  11.831  0.7390  0.6967  0.0558
 2078TIP3   OH227648   1.534   6.251   3.904 -0.1784  0.6215  0.0665
 2078TIP3    H127649   1.527   6.216   3.993  1.2974  1.3125  0.5024
 2078TIP3    H227650   1.475   6.327   3.903  1.5123  2.0380  1.2659
 2079TIP3   OH227651   0.500   2.473  13.414  0.3270 -0.0250 -0.1041
 2079TIP3    H127652   0.555   2.543  13.380 -1.9593  1.3173 -1.2789
 2079TIP3    H227653   0.530   2.461  13.504  0.8641  2.4504  0.1222
 2080TIP3   OH227654   4.214   1.544  15.499  0.6244 -0.6769 -0.2901
 2080TIP3    H127655   4.161   1.612  15.541  0.0848 -0.2983 -1.5207
 2080TIP3    H227656   4.302   1.557  15.533  0.4943  0.5521 -0.3893
 2081TIP3   OH227657   5.970   5.312   2.567 -0.2491  0.6688 -0.0010
 2081TIP3    H127658   5.939   5.275   2.485  0.2761 -0.3455  0.2458
 2081TIP3    H227659   5.897   5.299   2.628 -0.1929  0.3527 -0.0022
 2082TIP3   OH227660   5.057   4.974   3.883  0.0254  0.1732  0.3437
 2082TIP3    H127661   5.047   4.926   3.965 -3.2220  2.0896  1.2517
 2082TIP3    H227662   5.001   5.051   3.893 -1.5797 -0.1236 -4.1509
 2083TIP3   OH227663   0.893   4.195   2.985  0.4009  0.3265 -0.2174
 2083TIP3    H127664   0.925   4.166   3.070  0.2182 -2.6982 -1.0603
 2083TIP3    H227665   0.799   4.203   2.996  0.4082  0.2076 -0.0626
 2084TIP3   OH227666   0.029   5.312  11.925 -0.1655 -0.5667  0.2719
 2084TIP3    H127667  -0.041   5.258  11.889 -1.6712  1.1826  0.4540
 2084TIP3    H227668  -0.009   5.355  12.001  0.6999  1.3261 -0.2853
 2085TIP3   OH227669   5.048   2.645   5.227 -0.0077  0.0903 -0.3139
 2085TIP3    H127670   5.003   2.712   5.277 -0.0856  1.4608 -2.0985
 2085TIP3    H227671   4.985   2.618   5.160  0.6063 -0.5042 -0.6767
 2086TIP3   OH227672   1.419   3.193  14.697 -0.2387  0.2638  0.1950
 2086TIP3    H127673   1.372   3.132  14.754 -1.5418  1.6220  0.6339
 2086TIP3    H227674   1.510   3.161  14.697 -0.5625 -0.7359  1.6758
 2087TIP3   OH227675   4.411   5.106   5.177 -0.1936 -0.0710  0.5426
 2087TIP3    H127676   4.328   5.091   5.132  0.5969  1.1444 -1.4834
 2087TIP3    H227677   4.422   5.031   5.235 -1.5579 -1.4546 -0.9255
 2088TIP3   OH227678   2.971   0.476  12.655  0.4276 -0.0231 -0.0981
 2088TIP3    H127679   3.016   0.542  12.708  0.6264  0.8932 -1.3592
 2088TIP3    H227680   3.026   0.398  12.662  0.2331 -0.0554  1.3454
 2089TIP3   OH227681   6.587   1.991   4.647  0.0506 -0.2797  0.1640
 2089TIP3    H127682   6.547   2.069   4.686  0.4660  0.3004 -0.5516
 2089TIP3    H227683   6.645   1.958   4.716  1.7335  1.4586 -0.3579
 2090TIP3   OH227684   2.492   4.888   6.099  0.3062 -0.0773  0.2417
 2090TIP3    H127685   2.540   4.805   6.099  2.0154  0.8212  1.9399
 2090TIP3    H227686   2.537   4.942   6.035  0.2777  0.1003  0.3715
 2091TIP3   OH227687   4.167   4.709   3.387 -0.0262 -0.1325  0.2463
 2091TIP3    H127688   4.261   4.718   3.401  0.1029 -0.4118 -0.4219
 2091TIP3    H227689   4.133   4.680   3.472  0.4944 -0.1142  0.4677
 2092TIP3   OH227690   0.470   2.170   2.187  0.8463  0.4463  0.0911
 2092TIP3    H127691   0.559   2.134   2.190  0.7903  0.3596  1.6539
 2092TIP3    H227692   0.476   2.244   2.127  2.0291  0.5428  0.3033
 2093TIP3   OH227693   0.423   1.830  13.030 -0.5128 -0.2870 -0.1235
 2093TIP3    H127694   0.369   1.848  12.954 -1.1782  0.7341  0.5679
 2093TIP3    H227695   0.365   1.844  13.105  0.4266 -0.1772  0.6062
 2094TIP3   OH227696   4.838   0.502  14.745  0.4415  0.0803 -0.4308
 2094TIP3    H127697   4.860   0.451  14.667  1.0571 -1.0365  0.4246
 2094TIP3    H227698   4.923   0.533  14.777  0.1013  1.3991 -0.7523
 2095TIP3   OH227699   3.029   3.892  16.119  0.2564 -0.4355 -0.0183
 2095TIP3    H127700   3.023   3.797  16.114  0.8386 -0.4457 -0.6792
 2095TIP3    H227701   2.948   3.919  16.162  0.3431 -1.2700  0.7085
 2096TIP3   OH227702   1.786   3.782  11.178 -0.5256  0.5020 -0.0851
 2096TIP3    H127703   1.791   3.785  11.082 -0.8443  1.1352 -0.0836
 2096TIP3    H227704   1.787   3.688  11.199  2.0785  0.3419 -0.5668
 2097TIP3   OH227705   5.063   2.282  10.561 -0.6788 -0.1644 -0.6104
 2097TIP3    H127706   5.131   2.326  10.612 -0.9233 -0.1162 -0.3249
 2097TIP3    H227707   5.111   2.239  10.490 -0.2518 -0.8859  0.0997
 2098TIP3   OH227708   2.486   6.699   0.105  0.0191 -0.6522  0.6667
 2098TIP3    H127709   2.476   6.787   0.141 -1.2701  1.0683 -3.2742
 2098TIP3    H227710   2.398   6.662   0.109 -0.2692 -0.2238 -0.9454
 2099TIP3   OH227711   4.743   5.981   0.949  0.3140 -0.5340  0.0278
 2099TIP3    H127712   4.813   5.938   0.997 -1.8029 -2.8023  1.3378
 2099TIP3    H227713   4.694   6.028   1.017  0.0685  0.3032 -0.7212
 2100TIP3   OH227714   5.971   1.457   0.877  0.4512  0.1110  0.0536
 2100TIP3    H127715   5.982   1.374   0.832  0.6310  0.4628 -0.5693
 2100TIP3    H227716   6.034   1.516   0.835 -0.5808  0.9187 -0.4312
 2101TIP3   OH227717   5.622   3.023  10.707 -0.0017  0.1712  0.0393
 2101TIP3    H127718   5.705   2.976  10.702  0.9266  1.8265 -0.7449
 2101TIP3    H227719   5.556   2.957  10.685  1.0172 -1.3060  1.1983
 2102TIP3   OH227720   1.704   3.642   0.775  0.5120 -0.5384  0.3234
 2102TIP3    H127721   1.689   3.708   0.843  0.7299  0.9479 -1.0049
 2102TIP3    H227722   1.630   3.582   0.782 -0.0735  0.2566  1.1212
 2103TIP3   OH227723   0.687   2.037   6.128 -0.2690  0.2984  0.0271
 2103TIP3    H127724   0.706   2.100   6.198  0.5427 -0.7086  0.7430
 2103TIP3    H227725   0.771   1.994   6.112 -0.6132  0.0143 -1.0712
 2104TIP3   OH227726   4.631   2.558   5.434 -0.2701 -0.2440 -0.2386
 2104TIP3    H127727   4.725   2.540   5.438 -0.2934 -0.5362 -0.9487
 2104TIP3    H227728   4.593   2.476   5.402 -0.7409 -0.0494 -0.1729
 2105TIP3   OH227729   2.548   3.637  11.161  0.0183  0.3180 -0.2268
 2105TIP3    H127730   2.541   3.627  11.256 -0.6397  1.4330 -0.1398
 2105TIP3    H227731   2.489   3.709  11.140 -0.6741 -0.6130 -1.6359
 2106TIP3   OH227732   5.955   3.942  14.730 -0.4123  0.2942  0.0407
 2106TIP3    H127733   5.972   3.932  14.824 -0.6527  1.4846  0.2197
 2106TIP3    H227734   5.864   3.912  14.720 -0.0697 -0.7687  0.0123
 2107TIP3   OH227735   6.521   5.418   4.235 -0.0694 -0.4555 -0.2427
 2107TIP3    H127736   6.436   5.452   4.263  1.1853  2.6624  0.2951
 2107TIP3    H227737   6.539   5.345   4.293 -1.2077  0.5854  1.5063
 2108TIP3   OH227738   0.119   3.212  16.168  0.4374 -0.2047 -0.5988
 2108TIP3    H127739   0.026   3.208  16.146  0.2448 -0.2483  0.1972
 2108TIP3    H227740   0.125   3.281  16.233  0.4898 -2.1462  1.5629
 2109TIP3   OH227741   6.555   4.902   0.332 -0.6366  0.2131 -0.0672
 2109TIP3    H127742   6.583   4.830   0.275 -0.0005 -0.1427  0.6656
 2109TIP3    H227743   6.591   4.879   0.418 -2.2149  0.3440  0.6544
 2110TIP3   OH227744   4.510   1.318  13.057 -0.4987 -0.4051  0.0045
 2110TIP3    H127745   4.508   1.275  12.971  0.4783  1.7129 -1.1561
 2110TIP3    H227746   4.432   1.373  13.059 -1.4084 -1.6586  1.2246
 2111TIP3   OH227747   0.130   3.653   2.748  0.4111 -0.6337  0.4201
 2111TIP3    H127748   0.053   3.684   2.701  0.1541 -0.3160  1.0369
 2111TIP3    H227749   0.185   3.612   2.681 -0.8506 -1.9663  0.1586
 2112TIP3   OH227750   1.836   1.938   4.336  0.2882  0.8956 -0.3708
 2112TIP3    H127751   1.756   1.950   4.387  0.5354 -1.1343  0.5893
 2112TIP3    H227752   1.839   1.844   4.319  2.0900  1.0480 -1.0565
 2113TIP3   OH227753   4.735   5.573  12.687 -0.2520  0.4106  0.4232
 2113TIP3    H127754   4.667   5.510  12.661  0.8386 -0.1415 -1.2866
 2113TIP3    H227755   4.746   5.629  12.610 -0.3367  1.9382  1.4917
 2114TIP3   OH227756   1.467   5.536   1.683 -0.0531 -1.3837 -0.0640
 2114TIP3    H127757   1.555   5.572   1.685 -0.5855 -0.0450  1.5194
 2114TIP3    H227758   1.411   5.610   1.659 -0.7749 -2.2377 -1.1920
 2115TIP3   OH227759   5.576   3.937  11.253  0.4718 -0.6820  0.1151
 2115TIP3    H127760   5.614   3.899  11.174 -0.8743 -0.3242 -0.7296
 2115TIP3    H227761   5.569   4.030  11.235  0.4509 -0.5480  0.7888
 2116TIP3   OH227762   6.000   5.060   5.440  0.1417 -0.1188 -0.0906
 2116TIP3    H127763   5.957   5.145   5.440 -2.3701 -1.2534 -1.5701
 2116TIP3    H227764   6.093   5.079   5.446 -0.4332  2.5344  3.2422
 2117TIP3   OH227765   6.419   2.069   0.116 -0.1549  0.7104 -0.1465
 2117TIP3    H127766   6.344   2.104   0.163 -0.8936 -0.4969 -0.3886
 2117TIP3    H227767   6.385   1.995   0.067  1.6391 -1.5737  1.8024
 2118TIP3   OH227768   6.263   2.257  15.150 -0.2107 -0.2279 -0.4229
 2118TIP3    H127769   6.316   2.177  15.149  0.0215 -0.2179  2.1490
 2118TIP3    H227770   6.175   2.228  15.129 -0.3511 -1.4228  1.5447
 2119TIP3   OH227771   2.143   5.204   1.082 -1.1403 -0.1519 -0.1540
 2119TIP3    H127772   2.120   5.267   1.014 -1.8285  1.1752  1.2262
 2119TIP3    H227773   2.061   5.185   1.127 -0.8597 -1.7086 -0.2394
 2120TIP3   OH227774   6.699   5.587  15.853 -0.0043  0.2734  0.6422
 2120TIP3    H127775   6.656   5.622  15.932 -0.2444  1.0777  0.1666
 2120TIP3    H227776   6.683   5.653  15.786 -0.3461 -0.6945 -0.2570
 2121TIP3   OH227777   5.013   3.228  13.031 -0.5958  0.4425 -0.4242
 2121TIP3    H127778   5.061   3.198  12.954 -0.6720  0.2399 -0.3924
 2121TIP3    H227779   5.011   3.153  13.090  1.4655  1.2603  0.7812
 2122TIP3   OH227780   2.698   3.446   1.754  0.5610 -0.6436  0.0996
 2122TIP3    H127781   2.722   3.493   1.674  0.2974 -0.3300  0.2069
 2122TIP3    H227782   2.651   3.369   1.722 -0.6349  0.1083 -0.0074
 2123TIP3   OH227783   6.776   3.280   5.379  0.7104 -0.4239  0.1314
 2123TIP3    H127784   6.745   3.331   5.453 -1.0527  0.1155 -0.9188
 2123TIP3    H227785   6.870   3.298   5.375  0.4660  1.2206  0.9429
 2124TIP3   OH227786   1.348   5.028   2.912 -0.4634  0.5551 -0.4807
 2124TIP3    H127787   1.401   5.055   2.987 -2.1369  1.5690  0.3825
 2124TIP3    H227788   1.314   5.110   2.876 -2.1269 -0.1217 -0.4967
 2125TIP3   OH227789   3.724   5.893  15.840  0.2615  0.9016 -0.0109
 2125TIP3    H127790   3.795   5.834  15.866 -1.0110 -0.2123  1.1163
 2125TIP3    H227791   3.707   5.871  15.748 -2.0375 -2.6674  1.0583
 2126TIP3   OH227792   1.162   4.212  12.249  0.0609 -0.4771  0.4767
 2126TIP3    H127793   1.089   4.168  12.291  1.0815 -1.3664  1.3881
 2126TIP3    H227794   1.238   4.158  12.270  0.6086 -1.2082 -2.8890
 2127TIP3   OH227795   0.961   4.444  12.276 -0.5885 -0.3109 -0.1560
 2127TIP3    H127796   0.906   4.520  12.292  0.1238  0.0811  0.4438
 2127TIP3    H227797   1.039   4.458  12.329  0.3113 -0.6403 -1.3413
 2128TIP3   OH227798   0.130   4.236   4.707  0.2651  0.5833  0.6644
 2128TIP3    H127799   0.223   4.222   4.722  0.3541  1.3620  0.8818
 2128TIP3    H227800   0.101   4.287   4.783 -0.4000  0.0790  0.7515
 2129TIP3   OH227801   0.826   1.491   1.481 -0.2560  0.3477  0.0382
 2129TIP3    H127802   0.870   1.538   1.552  1.4261  0.2434 -0.8776
 2129TIP3    H227803   0.734   1.517   1.487  0.2098  1.8469  1.0391
 2130TIP3   OH227804   0.967   4.441   3.888 -0.4389 -0.0952  0.2772
 2130TIP3    H127805   1.043   4.385   3.903 -0.3614 -0.3550 -0.9304
 2130TIP3    H227806   0.908   4.422   3.961  0.5878  0.0079  1.1483
 2131TIP3   OH227807   4.413   4.315   6.600  0.6634 -0.3427  0.1081
 2131TIP3    H127808   4.386   4.327   6.509  2.4163 -1.0191 -0.5315
 2131TIP3    H227809   4.360   4.378   6.649 -0.2990  0.0435 -1.3655
 2132TIP3   OH227810   2.169   3.718  14.179  0.1177 -0.0088 -0.0422
 2132TIP3    H127811   2.200   3.809  14.182 -0.1159  0.0717 -0.0601
 2132TIP3    H227812   2.162   3.692  14.271  2.1342 -0.6818 -0.0230
 2133TIP3   OH227813   0.723   0.547  11.455  0.2794 -0.5289  0.0150
 2133TIP3    H127814   0.726   0.467  11.508  0.7919 -1.1247 -0.8903
 2133TIP3    H227815   0.809   0.552  11.415 -0.8645 -1.5181 -2.8040
 2134TIP3   OH227816   0.905   6.304   0.218 -0.2128  0.0667  0.0135
 2134TIP3    H127817   0.979   6.283   0.276 -0.1164  1.1676  0.3246
 2134TIP3    H227818   0.899   6.229   0.159  2.7922  1.0042 -1.7100
 2135TIP3   OH227819   5.901   4.266  11.534 -0.1298  0.0508 -0.7556
 2135TIP3    H127820   5.928   4.335  11.594 -0.2260 -0.0025 -0.6509
 2135TIP3    H227821   5.805   4.267  11.538 -0.1166 -1.4580  0.8034
 2136TIP3   OH227822   5.044   2.318  14.232  0.8267 -0.8227  0.0236
 2136TIP3    H127823   5.105   2.359  14.292  0.6652 -0.9011  0.2426
 2136TIP3    H227824   5.005   2.246  14.282  0.5007 -0.7290 -0.0870
 2137TIP3   OH227825   6.155   6.624  14.339  0.2207  0.1715 -0.2019
 2137TIP3    H127826   6.088   6.691  14.344  0.8982  0.8465  0.0978
 2137TIP3    H227827   6.107   6.543  14.324 -0.7072  0.5335  0.6602
 2138TIP3   OH227828   6.435   6.254  12.511 -0.1414 -0.4911  0.1439
 2138TIP3    H127829   6.356   6.223  12.555  0.2183 -2.5793 -0.5545
 2138TIP3    H227830   6.413   6.341  12.479 -2.3055 -1.1734 -0.3565
 2139TIP3   OH227831   1.470   3.899   4.688  0.1873 -0.3337 -0.2783
 2139TIP3    H127832   1.476   3.813   4.728  2.0008 -1.3052 -2.4053
 2139TIP3    H227833   1.437   3.883   4.600 -1.6435  1.4702 -0.0074
 2140TIP3   OH227834   6.753   0.784   0.504  0.1049  0.4892  0.3952
 2140TIP3    H127835   6.694   0.766   0.431 -1.6835  1.1720  1.6136
 2140TIP3    H227836   6.779   0.876   0.492  1.0030  0.1806 -0.1588
 2141TIP3   OH227837   0.876   6.355   0.558  0.7499 -0.5399 -0.0265
 2141TIP3    H127838   0.895   6.425   0.496 -0.9961 -0.7945 -0.9292
 2141TIP3    H227839   0.894   6.275   0.509 -0.2472 -0.7363 -0.0928
 2142TIP3   OH227840   3.098   5.294   2.709  0.0268  0.3567 -0.0741
 2142TIP3    H127841   3.085   5.247   2.627  1.5575 -1.2730  0.5427
 2142TIP3    H227842   3.135   5.378   2.683  0.7910 -0.2598 -1.0498
 2143TIP3   OH227843   5.269   3.897   0.969 -0.5142  0.0438  0.1345
 2143TIP3    H127844   5.305   3.821   1.015 -1.8215 -1.1057 -0.6638
 2143TIP3    H227845   5.188   3.865   0.930  0.6888  0.7931 -3.3508
 2144TIP3   OH227846   4.707   6.341  14.295  0.1267 -0.5260  0.0299
 2144TIP3    H127847   4.683   6.420  14.344  2.1000  0.4168 -0.4508
 2144TIP3    H227848   4.715   6.273  14.362  1.1258  0.3458  0.8210
 2145TIP3   OH227849   0.226   4.658  14.655 -0.1776  0.4346 -0.1237
 2145TIP3    H127850   0.312   4.698  14.645  0.1443  0.1207  1.1411
 2145TIP3    H227851   0.206   4.620  14.570  1.1721  0.0517 -0.2844
 2146TIP3   OH227852   3.949   3.765  16.001  0.1814  0.1262  0.4409
 2146TIP3    H127853   4.020   3.813  16.043  1.3576 -0.3279 -0.9469
 2146TIP3    H227854   3.993   3.692  15.956 -0.9151  0.7913 -1.8619
 2147TIP3   OH227855   1.718   5.845   1.632 -0.6901 -0.0809 -0.5759
 2147TIP3    H127856   1.744   5.928   1.593 -1.3489 -0.4432 -1.8133
 2147TIP3    H227857   1.661   5.804   1.567 -1.5260 -0.8705  0.6091
 2148TIP3   OH227858   1.842   0.620  12.718 -0.5248  0.2451 -0.1887
 2148TIP3    H127859   1.884   0.669  12.648 -1.0755 -0.4194 -1.0000
 2148TIP3    H227860   1.898   0.543  12.730 -1.5360 -0.7103 -1.3630
 2149TIP3   OH227861   0.482   0.885   0.785 -0.1755  0.6253 -0.3864
 2149TIP3    H127862   0.455   0.874   0.876 -2.8630  0.6449 -1.1036
 2149TIP3    H227863   0.423   0.951   0.750  0.5938  0.4020 -2.2458
 2150TIP3   OH227864   3.166   1.322  14.998  0.1014 -0.1608  0.1305
 2150TIP3    H127865   3.191   1.414  15.004  0.7154 -0.3826  1.3222
 2150TIP3    H227866   3.099   1.320  14.930 -1.9945  1.6270  1.9498
 2151TIP3   OH227867   0.783   2.572  15.174  0.2261  0.3232  0.1947
 2151TIP3    H127868   0.823   2.499  15.222 -1.3409 -1.6191 -1.3017
 2151TIP3    H227869   0.691   2.569  15.200  0.0140  1.3372 -0.4278
 2152TIP3   OH227870   6.111   0.209   3.443 -0.0945  0.4788  0.4964
 2152TIP3    H127871   6.165   0.206   3.364  1.3680  0.2212  1.4645
 2152TIP3    H227872   6.153   0.275   3.497 -0.1452 -0.4551  1.7060
 2153TIP3   OH227873   0.456   1.577  15.150 -0.2338 -0.0065  0.1542
 2153TIP3    H127874   0.454   1.484  15.127 -0.3259 -0.3630  1.5186
 2153TIP3    H227875   0.383   1.588  15.211  0.0429  0.8808  0.3350
 2154TIP3   OH227876   6.495   5.864  13.025 -0.6626 -0.0981  0.1797
 2154TIP3    H127877   6.427   5.809  12.985 -0.2657  1.0115 -2.2259
 2154TIP3    H227878   6.577   5.824  12.997 -0.3378  0.2032  0.6933
 2155TIP3   OH227879   2.179   6.267  12.619  0.0152 -0.0283 -0.5197
 2155TIP3    H127880   2.087   6.243  12.609 -0.0459  0.4358 -1.1469
 2155TIP3    H227881   2.224   6.185  12.640 -1.0032  0.1721  3.3188
 2156TIP3   OH227882   2.255   0.074   2.954 -0.4827 -0.1277 -0.5266
 2156TIP3    H127883   2.275   0.091   3.046 -0.5394  1.0936 -0.7224
 2156TIP3    H227884   2.229  -0.019   2.952  1.8927 -0.8786  0.2666
 2157TIP3   OH227885   4.979   1.350   4.454 -0.7879 -0.1967 -0.0974
 2157TIP3    H127886   4.884   1.349   4.466 -1.0615 -0.2998 -2.0268
 2157TIP3    H227887   4.992   1.362   4.360  1.1416  1.6857  0.3408
 2158TIP3   OH227888   3.352   1.704  14.147  0.2858 -0.2209 -0.0129
 2158TIP3    H127889   3.430   1.649  14.133 -0.2756 -0.9069 -0.5317
 2158TIP3    H227890   3.326   1.731  14.059  0.9480  1.4889  0.2678
 2159TIP3   OH227891   1.936   1.242   4.422 -0.3979 -0.8898  0.3105
 2159TIP3    H127892   1.855   1.224   4.469  0.1725 -0.2794  1.5953
 2159TIP3    H227893   1.909   1.292   4.345 -1.2205 -0.4047  0.8951
 2160TIP3   OH227894   6.531   3.530   4.305 -0.2595 -0.3494 -0.1193
 2160TIP3    H127895   6.538   3.534   4.209 -0.1182 -0.6155 -0.1207
 2160TIP3    H227896   6.480   3.452   4.322  0.6921 -0.9495  0.0620
 2161TIP3   OH227897   6.409   6.626  12.206  0.1175 -0.0490 -0.0304
 2161TIP3    H127898   6.410   6.630  12.301  1.0033 -1.8866  0.0733
 2161TIP3    H227899   6.338   6.564  12.185  2.5040 -2.9204 -0.3071
 2162TIP3   OH227900   4.646   4.454   3.417  0.4094 -0.1809  0.2019
 2162TIP3    H127901   4.675   4.490   3.334  0.5105 -1.6859 -0.4503
 2162TIP3    H227902   4.561   4.494   3.433  0.7079  0.6468 -0.2700
 2163TIP3   OH227903   6.498   2.768  16.656 -0.2458 -0.5588  0.0408
 2163TIP3    H127904   6.538   2.766  16.743 -0.1836 -0.9922  0.0023
 2163TIP3    H227905   6.404   2.777  16.674 -0.1490  0.4438  0.1310
 2164TIP3   OH227906   5.868   3.691   5.549  0.1562  0.5199 -0.0837
 2164TIP3    H127907   5.893   3.655   5.634  0.2565  1.2150  0.1904
 2164TIP3    H227908   5.892   3.623   5.486 -0.8937 -0.4424  0.5247
 2165TIP3   OH227909   0.709   4.250  11.577  0.4279  0.2041  0.2515
 2165TIP3    H127910   0.710   4.173  11.633  0.3329  1.0466  1.4466
 2165TIP3    H227911   0.754   4.318  11.628  2.0259  0.5056 -1.4373
 2166TIP3   OH227912   3.845   3.211  10.664  0.2954  0.6537  0.2243
 2166TIP3    H127913   3.865   3.118  10.648 -1.6166  0.3839 -0.9099
 2166TIP3    H227914   3.906   3.258  10.608 -1.4027 -0.1149 -2.4814
 2167TIP3   OH227915   2.026   0.406  12.311 -0.6220  0.7047 -0.1192
 2167TIP3    H127916   1.955   0.411  12.246 -1.5930  3.0638  1.0013
 2167TIP3    H227917   1.982   0.384  12.393  0.1039  1.0065  0.3629
 2168TIP3   OH227918   0.855   2.012   5.265 -0.4023 -0.4111 -0.0170
 2168TIP3    H127919   0.898   1.991   5.348  1.7344  0.6677 -0.7486
 2168TIP3    H227920   0.802   2.089   5.285 -1.6910 -1.4730  0.8066
 2169TIP3   OH227921   1.200   6.308   5.125  0.3020  0.1285 -0.0003
 2169TIP3    H127922   1.114   6.268   5.138  0.2004  0.0890 -0.7562
 2169TIP3    H227923   1.260   6.233   5.121  0.3587  0.1499  0.4088
 2170TIP3   OH227924   0.637   4.474  12.683 -0.6681 -0.2312 -0.6259
 2170TIP3    H127925   0.688   4.493  12.762  0.2080 -1.7557 -0.7866
 2170TIP3    H227926   0.642   4.554  12.631 -0.9748  0.6715  0.7065
 2171TIP3   OH227927   4.548   2.120  13.244  0.0019  0.6763  0.7287
 2171TIP3    H127928   4.468   2.078  13.275 -0.1083  1.0474  0.9548
 2171TIP3    H227929   4.550   2.204  13.289  2.0447 -0.4711  3.0052
 2172TIP3   OH227930   2.639   5.280  13.030 -0.2948 -0.3478 -0.1257
 2172TIP3    H127931   2.693   5.205  13.002 -1.5071 -2.1300  1.9628
 2172TIP3    H227932   2.697   5.331  13.087  0.3347 -0.0726 -1.0020
 2173TIP3   OH227933   1.230   2.018  15.673  0.1102 -0.4216 -0.0822
 2173TIP3    H127934   1.274   2.064  15.602 -0.3548 -0.9958 -0.7643
 2173TIP3    H227935   1.141   2.002  15.639 -0.7768  1.0732  1.4016
 2174TIP3   OH227936   5.980   6.146  10.894  0.1987  0.1320 -0.9727
 2174TIP3    H127937   5.990   6.220  10.834 -0.7845 -0.3839 -1.8157
 2174TIP3    H227938   6.058   6.093  10.879 -0.6177 -0.6630 -2.8240
 2175TIP3   OH227939   2.357   1.893  13.582 -0.0976  0.0566 -0.0147
 2175TIP3    H127940   2.304   1.946  13.641 -0.2898  0.7481 -0.7906
 2175TIP3    H227941   2.413   1.956  13.537  0.5446 -0.5362 -0.0659
 2176TIP3   OH227942   4.976   2.026  14.121  0.0750  0.3386 -0.3398
 2176TIP3    H127943   4.923   1.969  14.064 -1.6588  0.9006  0.6282
 2176TIP3    H227944   4.984   2.108  14.071 -0.7456  0.5529 -0.1345
 2177TIP3   OH227945   2.790   2.757  16.438 -0.0959 -0.1180 -0.2450
 2177TIP3    H127946   2.850   2.793  16.503  2.4209 -1.8904 -1.4602
 2177TIP3    H227947   2.707   2.801  16.456  1.7378  3.2216  0.8743
 2178TIP3   OH227948   0.763   3.281   1.870 -0.0958  0.1432 -0.5248
 2178TIP3    H127949   0.689   3.333   1.902 -1.7598 -1.8180 -0.9515
 2178TIP3    H227950   0.733   3.247   1.786  1.4345 -0.4733 -0.8432
 2179TIP3   OH227951   5.533   0.622   1.956  0.1439  0.6023 -0.2120
 2179TIP3    H127952   5.461   0.667   1.999 -0.4364  0.5132 -1.0594
 2179TIP3    H227953   5.610   0.641   2.010 -0.2705  1.7758 -0.0216
 2180TIP3   OH227954   1.144   5.806   0.222 -0.2681  0.8584  0.4040
 2180TIP3    H127955   1.240   5.813   0.222 -0.2592  0.8820  1.4211
 2180TIP3    H227956   1.119   5.820   0.131  0.9203 -2.3384 -0.5661
 2181TIP3   OH227957   2.549   0.609  15.860  0.2579  0.0240 -0.1103
 2181TIP3    H127958   2.463   0.569  15.855  0.4987 -0.5082 -0.0169
 2181TIP3    H227959   2.583   0.604  15.770 -0.1760  1.0829 -0.3593
 2182TIP3   OH227960   0.281   1.053   4.151 -0.5441  0.0966 -0.1775
 2182TIP3    H127961   0.191   1.057   4.184 -0.7848 -0.8120 -0.6963
 2182TIP3    H227962   0.277   0.994   4.076  0.1608  1.4285 -1.3162
 2183TIP3   OH227963   0.300   2.819   2.939  0.2767 -0.5348  0.1526
 2183TIP3    H127964   0.391   2.799   2.963  0.6360  0.2829 -0.4808
 2183TIP3    H227965   0.303   2.834   2.845 -0.8459 -2.1828 -0.1876
 2184TIP3   OH227966   2.184   0.721  13.002  0.1286 -0.1244  0.1048
 2184TIP3    H127967   2.204   0.663  12.929 -0.2760  0.4432 -0.4756
 2184TIP3    H227968   2.128   0.669  13.060  0.5235 -0.6062  0.0553
 2185TIP3   OH227969   1.804   4.369   5.661 -0.0252 -0.2297  0.3914
 2185TIP3    H127970   1.839   4.436   5.602 -0.8519  1.8047  2.0400
 2185TIP3    H227971   1.881   4.326   5.699  0.5554  0.3559 -0.1091
 2186TIP3   OH227972   4.371   2.964   3.192 -0.7419 -0.0224  0.2641
 2186TIP3    H127973   4.374   2.868   3.195 -1.1809 -0.1109 -1.4750
 2186TIP3    H227974   4.456   2.989   3.156 -0.3638  0.3013  1.3413
 2187TIP3   OH227975   1.393   0.373  15.543 -0.0281 -0.1925  0.4449
 2187TIP3    H127976   1.433   0.302  15.493 -2.5096 -0.2073 -1.6872
 2187TIP3    H227977   1.310   0.337  15.574  0.5022  0.5110  2.9477
 2188TIP3   OH227978   4.931   3.564  12.515 -0.4201 -0.0013  0.4262
 2188TIP3    H127979   4.946   3.537  12.606  0.0627  0.5718  0.5242
 2188TIP3    H227980   4.980   3.500  12.463 -1.1571 -0.6644  0.5329
 2189TIP3   OH227981   2.622   1.904  10.887  0.0996 -0.3136 -0.1192
 2189TIP3    H127982   2.589   1.968  10.951  3.8101  0.9118  0.7887
 2189TIP3    H227983   2.581   1.932  10.804 -1.6392  0.5801  0.9633
 2190TIP3   OH227984   6.559   5.566   1.739  0.4862  0.2450 -0.0019
 2190TIP3    H127985   6.649   5.595   1.725  1.2071  0.1384  3.5585
 2190TIP3    H227986   6.508   5.648   1.745  0.0529  0.2980 -2.8989
 2191TIP3   OH227987   5.839   1.671   5.670  0.3755  0.7444  0.0163
 2191TIP3    H127988   5.909   1.736   5.684  0.0674  0.9962  0.3957
 2191TIP3    H227989   5.856   1.638   5.582 -0.5532  2.7006 -0.9583
 2192TIP3   OH227990   1.852   4.833  11.491  0.2774  0.0161 -0.3656
 2192TIP3    H127991   1.934   4.858  11.448 -0.6030  2.5715 -0.7222
 2192TIP3    H227992   1.791   4.818  11.419  0.0628 -0.5104 -0.0782
 2193TIP3   OH227993   6.500   4.274  13.558  0.2183  0.1805 -0.3409
 2193TIP3    H127994   6.410   4.266  13.590  0.7460 -3.8496  0.6732
 2193TIP3    H227995   6.491   4.283  13.463 -1.2508 -0.4325 -0.2821
 2194TIP3   OH227996   4.986   5.299   2.031  1.1645  0.4328  0.1391
 2194TIP3    H127997   5.028   5.248   1.962  0.6065  1.1537 -0.7546
 2194TIP3    H227998   4.993   5.390   2.003 -0.2826  0.6396  0.3360
 2195TIP3   OH227999   3.208   0.282   1.992  0.1544 -0.2938 -0.2516
 2195TIP3    H128000   3.265   0.357   1.978 -0.2248  0.3385  1.3736
 2195TIP3    H228001   3.265   0.206   1.975  1.2145  0.3314  0.3938
 2196TIP3   OH228002   4.733   4.447   3.734 -0.5144  0.1746  0.2569
 2196TIP3    H128003   4.642   4.477   3.741 -0.9337 -0.8166 -0.6415
 2196TIP3    H228004   4.766   4.491   3.655  0.5194  2.2473  1.7430
 2197TIP3   OH228005   4.752   2.179   6.282  0.0669 -0.2394  0.2366
 2197TIP3    H128006   4.698   2.255   6.299 -0.7092 -0.0331 -2.5875
 2197TIP3    H228007   4.723   2.113   6.345 -2.6469  0.2875 -0.3518
 2198TIP3   OH228008   2.271   4.945   5.317  0.1308 -0.1796 -0.5764
 2198TIP3    H128009   2.359   4.951   5.356  1.0381  0.6735 -2.6145
 2198TIP3    H228010   2.218   5.006   5.368  0.7239 -0.6323  0.6308
 2199TIP3   OH228011   4.692   2.295   4.533  0.0939 -0.2012  0.2316
 2199TIP3    H128012   4.641   2.300   4.614  1.5612  0.3112  1.1694
 2199TIP3    H228013   4.772   2.344   4.552  1.8992 -2.6866 -0.4447
 2200TIP3   OH228014   0.695   5.174  12.138 -0.1462 -0.4809  0.4002
 2200TIP3    H128015   0.726   5.252  12.091  0.3871 -0.7702  0.2596
 2200TIP3    H228016   0.633   5.133  12.078  0.2936 -0.6781  0.0748
 2201TIP3   OH228017   6.726   0.569  15.284 -0.3021 -0.0772  0.1342
 2201TIP3    H128018   6.634   0.591  15.266 -0.3719 -1.2532 -1.1272
 2201TIP3    H228019   6.726   0.534  15.373 -0.8744  1.0157  0.5777
 2202TIP3   OH228020   3.777   3.806  15.084  0.6036  0.2880 -0.0998
 2202TIP3    H128021   3.740   3.807  14.996 -0.2747 -0.0690  0.2614
 2202TIP3    H228022   3.862   3.763  15.074 -0.2406 -1.3205 -0.4838
 2203TIP3   OH228023   2.115   5.077   3.572 -0.2486  0.2106  0.0551
 2203TIP3    H128024   2.023   5.098   3.556 -0.3137  0.3105  0.5470
 2203TIP3    H228025   2.161   5.159   3.556 -0.0721 -0.1671 -1.5261
 2204TIP3   OH228026   4.828   6.485  10.764  0.5176 -0.0823  0.0846
 2204TIP3    H128027   4.881   6.553  10.723 -1.4729  0.1694 -2.2828
 2204TIP3    H228028   4.769   6.454  10.695 -2.5004 -0.2669  2.4813
 2205TIP3   OH228029   3.968   4.860   4.357  0.2125  0.3099  0.0005
 2205TIP3    H128030   3.940   4.890   4.271  2.2204  0.4491 -0.6578
 2205TIP3    H228031   4.061   4.882   4.361  0.2251  0.1208  2.1319
 2206TIP3   OH228032   4.563   0.751   5.010 -0.2279  0.1283  0.1025
 2206TIP3    H128033   4.586   0.700   5.087  0.7234 -2.1462 -1.6052
 2206TIP3    H228034   4.646   0.787   4.978 -0.5212  0.5129 -0.2516
 2207TIP3   OH228035   1.473   6.739   1.593  0.7115  0.4954  0.8387
 2207TIP3    H128036   1.475   6.806   1.524  1.1041  0.7813  1.1224
 2207TIP3    H228037   1.552   6.687   1.577  0.7781  0.5342  1.0407
 2208TIP3   OH228038   5.520   1.698   5.127  0.2980 -0.5229  1.0887
 2208TIP3    H128039   5.442   1.753   5.114  0.3057 -0.5232  1.0387
 2208TIP3    H228040   5.547   1.715   5.217 -0.1624 -1.0431  1.3321
 2209TIP3   OH228041   5.940   6.054  13.292 -0.4652 -0.7238 -0.1818
 2209TIP3    H128042   5.886   6.113  13.240 -0.2050  0.7846  1.1850
 2209TIP3    H228043   6.016   6.035  13.236  0.1941  1.4734 -0.1273
 2210TIP3   OH228044   5.311   5.352  16.037  0.0960  0.2651  0.6531
 2210TIP3    H128045   5.352   5.438  16.033 -0.2017  0.4030  0.5087
 2210TIP3    H228046   5.250   5.352  15.963  0.1771 -0.1125  0.5847
 2211TIP3   OH228047   3.820   5.646  11.003 -0.1152  0.1647  0.0090
 2211TIP3    H128048   3.906   5.644  11.045 -0.7256  1.4558  1.3930
 2211TIP3    H228049   3.761   5.608  11.067 -0.4811 -1.7286 -1.3472
 2212TIP3   OH228050   2.423   6.536   0.510 -0.3815  0.1827 -0.7795
 2212TIP3    H128051   2.508   6.522   0.467  0.1078 -0.3673  0.2988
 2212TIP3    H228052   2.359   6.501   0.449  0.1971  0.3106 -1.4783
 2213TIP3   OH228053   4.742   0.867   3.336  0.2882 -0.2644  0.0817
 2213TIP3    H128054   4.776   0.915   3.261 -0.5869  0.3133  0.0368
 2213TIP3    H228055   4.813   0.808   3.361  1.2086  0.6983 -0.1744
 2214TIP3   OH228056   6.648   4.644   4.146 -0.5448 -0.0577 -0.4356
 2214TIP3    H128057   6.665   4.730   4.185 -1.8682  0.5836 -1.1790
 2214TIP3    H228058   6.570   4.613   4.192 -0.3150 -0.6770 -0.4607
 2215TIP3   OH228059   4.566   5.803  11.678 -0.7292 -0.4260 -0.0251
 2215TIP3    H128060   4.605   5.760  11.602  0.1697  1.5713 -0.7574
 2215TIP3    H228061   4.633   5.796  11.746 -0.5691 -0.1846 -0.1546
 2216TIP3   OH228062   3.143   3.588  13.772  0.6020  0.1922 -0.3450
 2216TIP3    H128063   3.236   3.609  13.777  0.8417 -0.1207 -2.4176
 2216TIP3    H228064   3.130   3.556  13.683 -1.5919  0.6691 -0.2739
 2217TIP3   OH228065   1.160   1.730  14.260  0.1518 -0.1074 -0.4949
 2217TIP3    H128066   1.163   1.811  14.208  2.3199  0.2157  0.0297
 2217TIP3    H228067   1.080   1.686  14.232 -0.7184  1.8795 -1.3097
 2218TIP3   OH228068   1.476   4.615   5.252 -0.2760 -0.2336  0.4375
 2218TIP3    H128069   1.416   4.687   5.275 -0.0686  0.3722 -0.8547
 2218TIP3    H228070   1.528   4.602   5.332 -0.3196  1.0655  0.7107
 2219TIP3   OH228071   3.848   5.100  14.660 -0.3507 -0.1303 -0.2608
 2219TIP3    H128072   3.933   5.097  14.615  0.0560  2.7781  0.0957
 2219TIP3    H228073   3.870   5.107  14.753 -1.1202 -2.7146  0.1791
 2220TIP3   OH228074   5.708   4.629  14.738 -0.1328 -0.6502 -0.2863
 2220TIP3    H128075   5.742   4.654  14.824 -0.1603 -0.7768 -0.2381
 2220TIP3    H228076   5.617   4.658  14.739 -0.1807 -0.8004 -0.2101
 2221TIP3   OH228077   4.789   3.936  13.325  0.2044 -0.2577  0.5387
 2221TIP3    H128078   4.755   3.945  13.414  0.9467  2.2762  0.6273
 2221TIP3    H228079   4.769   3.845  13.301  0.3127 -1.1293  3.4016
 2222TIP3   OH228080   1.295   0.292   0.269  0.0302  0.0927 -0.2753
 2222TIP3    H128081   1.312   0.211   0.220 -0.8497  1.4989 -3.1736
 2222TIP3    H228082   1.361   0.354   0.238 -0.7606  1.1419  0.0561
 2223TIP3   OH228083   6.582   4.948  13.426 -0.0081 -0.4120  0.2786
 2223TIP3    H128084   6.582   4.855  13.451 -3.6827 -0.5746  0.0895
 2223TIP3    H228085   6.590   4.995  13.509 -1.3288 -0.9389  0.7263
 2224TIP3   OH228086   1.212   4.636   0.299 -0.0483  0.0684  0.3777
 2224TIP3    H128087   1.234   4.598   0.384 -0.9198  1.3199  1.2141
 2224TIP3    H228088   1.199   4.560   0.241 -1.7584 -0.9482  1.9700
 2225TIP3   OH228089   0.776   5.392  12.833 -0.6772  0.2039 -0.6208
 2225TIP3    H128090   0.741   5.466  12.884  1.4859  1.3724 -0.6908
 2225TIP3    H228091   0.804   5.431  12.750  1.0406 -0.5290 -0.4391
 2226TIP3   OH228092   2.391   1.784   4.288  0.1681  0.1813 -0.3518
 2226TIP3    H128093   2.409   1.784   4.194  1.2282 -0.2767 -0.1642
 2226TIP3    H228094   2.317   1.724   4.299 -0.9916  1.4372 -1.0521
 2227TIP3   OH228095   5.936   0.009  13.879 -0.0250  0.0541  0.6625
 2227TIP3    H128096   5.968   0.025  13.790 -0.8177 -0.4721  0.2701
 2227TIP3    H228097   5.988   0.068  13.934  0.1601  0.7134 -0.1999
 2228TIP3   OH228098   0.917   0.899   2.034  0.0467  0.2586  0.4740
 2228TIP3    H128099   0.916   0.827   2.096 -1.1998 -0.3884 -0.2482
 2228TIP3    H228100   0.950   0.861   1.953  0.0262  0.6574  0.2760
 2229TIP3   OH228101   1.568   4.531  12.217  0.1766 -0.2059  0.6353
 2229TIP3    H128102   1.628   4.481  12.272  1.1314  1.2661  1.0187
 2229TIP3    H228103   1.501   4.564  12.278 -0.6086 -1.2164  0.3382
 2230TIP3   OH228104   0.240   2.847   1.623 -0.6952 -0.2020  0.1864
 2230TIP3    H128105   0.316   2.832   1.679 -0.8961 -0.1416  0.4730
 2230TIP3    H228106   0.232   2.767   1.571  0.1090  0.1373 -0.4925
 2231TIP3   OH228107   3.267   5.035   4.697  1.0483 -0.0510 -0.2472
 2231TIP3    H128108   3.221   4.993   4.770 -0.2871  0.6646 -0.6408
 2231TIP3    H228109   3.360   5.032   4.722  0.8647 -1.9455  0.3567
 2232TIP3   OH228110   5.274   4.446  13.820  0.5238  0.6452 -0.0736
 2232TIP3    H128111   5.324   4.396  13.755 -0.2328 -0.7559  0.3932
 2232TIP3    H228112   5.316   4.424  13.903  0.2375  0.8482  0.1231
 2233TIP3   OH228113   2.013   0.001   0.696 -0.2997  0.2942 -0.1145
 2233TIP3    H128114   2.056   0.080   0.665 -1.0811  1.4909  1.6921
 2233TIP3    H228115   2.069  -0.033   0.765 -1.2349  0.7894  0.9283
 2234TIP3   OH228116   2.968   0.856  13.918 -0.0758 -0.0486  0.3638
 2234TIP3    H128117   2.937   0.795  13.985 -0.4442 -0.1206  0.1332
 2234TIP3    H228118   2.895   0.862  13.856  0.5712 -0.6180 -0.4669
 2235TIP3   OH228119   0.945   0.357   0.846 -0.1736 -0.1167  0.2049
 2235TIP3    H128120   0.893   0.287   0.807 -1.8472  1.3536 -0.3093
 2235TIP3    H228121   0.893   0.437   0.833  2.8614  1.7594 -1.8278
 2236TIP3   OH228122   1.026   4.471  13.242  0.7874  0.9524  0.4844
 2236TIP3    H128123   0.961   4.539  13.261  0.4730  0.2055  2.3128
 2236TIP3    H228124   0.975   4.390  13.236  1.1931  0.7808 -1.3901
 2237TIP3   OH228125   6.370   2.803   1.996  0.4850  0.6987 -0.3968
 2237TIP3    H128126   6.413   2.886   1.976  0.4173  0.5812 -1.0543
 2237TIP3    H228127   6.321   2.820   2.076 -1.1767  1.9222 -1.5919
 2238TIP3   OH228128   5.536   3.961  15.606 -0.5142  0.5293  0.1631
 2238TIP3    H128129   5.522   3.866  15.611  0.8355  0.1431 -2.2579
 2238TIP3    H228130   5.507   3.985  15.518  0.2073  2.1805  0.3482
 2239TIP3   OH228131   0.527   0.359  16.195  0.2915 -0.6042 -0.3774
 2239TIP3    H128132   0.590   0.334  16.263  1.6356  0.0418 -1.3305
 2239TIP3    H228133   0.512   0.453  16.210  0.3657 -0.5260 -0.7794
 2240TIP3   OH228134   2.405   5.080   4.989 -0.1834 -0.4942 -0.2709
 2240TIP3    H128135   2.492   5.046   5.009  0.3491  0.8716 -0.1079
 2240TIP3    H228136   2.385   5.139   5.063 -1.1083 -0.5529 -0.4632
 2241TIP3   OH228137   3.371   1.769   3.907 -0.1943  0.4320 -0.7808
 2241TIP3    H128138   3.448   1.800   3.954 -0.1854  1.1298 -1.2438
 2241TIP3    H228139   3.405   1.710   3.839 -0.2623 -1.2054  0.5464
 2242TIP3   OH228140   3.081   1.784  14.158  0.2605  0.0289  0.3400
 2242TIP3    H128141   3.028   1.752  14.085 -0.0068  1.5363 -0.1787
 2242TIP3    H228142   3.146   1.716  14.173  0.8053 -0.0032 -1.8403
 2243TIP3   OH228143   1.750   1.377   5.568  0.4588  0.1462  0.4753
 2243TIP3    H128144   1.772   1.395   5.476 -0.5000 -1.0535 -0.0288
 2243TIP3    H228145   1.744   1.463   5.609  1.9352  0.6652 -0.3210
 2244TIP3   OH228146   0.295   4.948  11.459  0.4032  0.8258 -0.1965
 2244TIP3    H128147   0.246   4.982  11.534 -1.0088  1.6342 -1.4432
 2244TIP3    H228148   0.297   5.020  11.396 -1.6754 -0.9116 -2.4442
 2245TIP3   OH228149   0.024   0.364  17.194 -0.2648  0.0044 -0.2780
 2245TIP3    H128150  -0.008   0.450  17.221  2.3115  0.5002  1.6097
 2245TIP3    H228151   0.069   0.330  17.271 -0.4125 -2.6873 -1.2580
 2246TIP3   OH228152   6.370   5.678  16.339 -0.5997 -1.1707  0.5408
 2246TIP3    H128153   6.324   5.713  16.415 -0.8493 -1.5403  0.5641
 2246TIP3    H228154   6.300   5.644  16.282 -0.6712  1.5603 -1.1620
 2247TIP3   OH228155   1.704   2.316  14.228  0.3498 -0.5184  0.1083
 2247TIP3    H128156   1.617   2.278  14.232  0.3380 -0.6489 -1.1564
 2247TIP3    H228157   1.763   2.240  14.229  0.4677 -0.4264  1.1019
 2248TIP3   OH228158   3.561   6.065   3.435 -0.0585  0.5418  0.5036
 2248TIP3    H128159   3.611   6.011   3.495  0.6494  0.3010 -0.2884
 2248TIP3    H228160   3.480   6.016   3.419  0.4978 -0.2033 -0.0656
 2249TIP3   OH228161   3.041   1.374  13.339 -0.0635  0.4951 -0.6971
 2249TIP3    H128162   2.962   1.412  13.300 -0.1222 -0.0267 -1.1089
 2249TIP3    H228163   3.097   1.353  13.264 -0.0128 -0.1705 -0.4866
 2250TIP3   OH228164   3.925   4.614  12.508 -0.0338 -0.6727  0.1235
 2250TIP3    H128165   3.880   4.626  12.424 -1.1238  0.6062  0.8412
 2250TIP3    H228166   3.856   4.583  12.567  0.0397  1.0680  1.1893
 2251TIP3   OH228167   3.049   4.628  11.643 -0.1118  0.2633  0.2729
 2251TIP3    H128168   2.954   4.637  11.633 -0.0977 -0.5791 -0.7769
 2251TIP3    H228169   3.060   4.540  11.681  0.2573  0.2643  0.1710
 2252TIP3   OH228170   4.909   4.496   3.481  0.0540 -0.1464  0.8382
 2252TIP3    H128171   4.817   4.478   3.461 -0.7715  1.3999  2.9487
 2252TIP3    H228172   4.931   4.571   3.426 -0.6659  0.9136  1.9610
 2253TIP3   OH228173   4.911   0.615   0.717  0.0465 -0.0124  0.2149
 2253TIP3    H128174   4.857   0.686   0.752  0.0998 -0.8802  2.1680
 2253TIP3    H228175   4.848   0.547   0.692  0.1275 -0.4663  1.1939
 2254TIP3   OH228176   2.432   2.780   0.377  0.1173 -0.0600 -0.3944
 2254TIP3    H128177   2.397   2.812   0.460  1.5041 -0.0941  0.2362
 2254TIP3    H228178   2.361   2.792   0.315 -0.5724  1.0279  0.5581
 2255TIP3   OH228179   5.598   0.575  15.433  0.1995  0.2763  0.3574
 2255TIP3    H128180   5.607   0.611  15.344 -0.3445  1.5324  0.7893
 2255TIP3    H228181   5.548   0.641  15.481  1.0581 -0.0764  1.7935
 2256TIP3   OH228182   6.365   4.320   1.177  0.0010  0.4281 -0.2191
 2256TIP3    H128183   6.406   4.324   1.090 -0.8971 -1.9386 -0.8377
 2256TIP3    H228184   6.429   4.273   1.231 -0.1592  0.3871 -0.0644
 2257TIP3   OH228185   3.542   4.236   6.352  0.6056  0.0919  0.0801
 2257TIP3    H128186   3.561   4.270   6.439 -0.0701  1.6456 -0.3421
 2257TIP3    H228187   3.545   4.313   6.295 -1.6286 -0.4077 -0.8202
 2258TIP3   OH228188   4.889   0.019  12.221  0.2304  0.1393 -0.5944
 2258TIP3    H128189   4.958  -0.033  12.181 -0.8339 -1.1743 -0.7756
 2258TIP3    H228190   4.835   0.049  12.148  0.9994  1.8043 -0.5251
 2259TIP3   OH228191   1.910   4.993  16.758  0.5452 -0.6002 -0.4822
 2259TIP3    H128192   1.952   4.932  16.697  0.3041 -0.3900 -0.8670
 2259TIP3    H228193   1.865   5.056  16.701  2.2638  1.0073 -0.1740
 2260TIP3   OH228194   2.700   0.806  12.609  0.1221 -0.4370  0.0927
 2260TIP3    H128195   2.671   0.889  12.571  0.0916 -0.5799 -0.2027
 2260TIP3    H228196   2.619   0.757  12.624  0.2423 -1.2133 -1.6116
 2261TIP3   OH228197   2.463   3.038  15.337  0.5215 -0.5584 -1.0218
 2261TIP3    H128198   2.501   2.999  15.416  0.1571 -0.3485 -0.7422
 2261TIP3    H228199   2.409   3.110  15.369  1.1728  0.1736 -1.5345
 2262TIP3   OH228200   0.344   2.758  10.915 -0.4039 -0.6667 -0.1795
 2262TIP3    H128201   0.286   2.833  10.929 -0.1870 -0.3552 -0.9023
 2262TIP3    H228202   0.404   2.787  10.846  0.7218 -0.9198  0.6687
 2263TIP3   OH228203   1.998   4.894  13.340 -0.2898  0.2815 -0.2459
 2263TIP3    H128204   2.058   4.907  13.414  0.6595  2.5467 -1.3480
 2263TIP3    H228205   2.034   4.818  13.294  0.5320  0.3548  0.2462
 2264TIP3   OH228206   4.104   0.458   0.598 -0.0242  0.6148  0.3823
 2264TIP3    H128207   4.041   0.439   0.529 -0.4444  2.7689  0.1214
 2264TIP3    H228208   4.092   0.551   0.618  0.9945  0.3703  2.4492
 2265TIP3   OH228209   0.610   4.537  14.981  0.4898  0.9678  0.0489
 2265TIP3    H128210   0.651   4.499  14.903  0.9124  1.0988  0.2045
 2265TIP3    H228211   0.589   4.627  14.956  0.6560  1.0201  0.0928
 2266TIP3   OH228212   5.882   0.062   3.468 -0.1002  0.0415 -0.0034
 2266TIP3    H128213   5.972   0.090   3.451 -0.6976  2.7932  0.8323
 2266TIP3    H228214   5.840   0.061   3.382  0.4526 -0.1061 -0.2695
 2267TIP3   OH228215   0.096   2.364   3.479  0.6405  0.4770  0.2938
 2267TIP3    H128216   0.130   2.394   3.563  1.8876  0.5046 -0.2004
 2267TIP3    H228217   0.054   2.280   3.498  2.2925 -0.2876  0.7058
 2268TIP3   OH228218   4.931   5.073  15.217  0.4045 -0.3310  0.3271
 2268TIP3    H128219   4.932   4.985  15.178  1.1009  0.8239 -2.4972
 2268TIP3    H228220   5.023   5.091  15.236  0.2077 -0.3646  1.3763
 2269TIP3   OH228221   6.427   1.563  12.183 -0.3568  0.8333  0.0637
 2269TIP3    H128222   6.512   1.587  12.221 -1.0296 -0.0474  2.3286
 2269TIP3    H228223   6.432   1.468  12.172 -0.2292  1.0427 -2.1171
 2270TIP3   OH228224   6.737   2.983  17.053 -0.4366 -0.0302  0.0865
 2270TIP3    H128225   6.701   2.947  17.135  0.6001  0.7045  0.8797
 2270TIP3    H228226   6.827   3.006  17.074 -0.4418  1.0719 -0.9974
 2271TIP3   OH228227   0.158   1.612  13.025 -0.2263  0.5689 -0.3663
 2271TIP3    H128228   0.195   1.626  13.112 -1.5276  1.8266  0.0172
 2271TIP3    H228229   0.211   1.666  12.967  0.5840 -0.1985 -0.3655
 2272TIP3   OH228230   3.195   4.988   3.569  0.0318 -0.0871 -0.1826
 2272TIP3    H128231   3.115   5.019   3.527  0.7252 -0.2125 -1.6473
 2272TIP3    H228232   3.183   4.893   3.575  0.0293 -0.0980 -0.3391
 2273TIP3   OH228233   4.885   4.755  14.809  0.1036  0.2338 -0.0379
 2273TIP3    H128234   4.803   4.729  14.767  0.6301 -3.0032  0.7284
 2273TIP3    H228235   4.862   4.769  14.901  0.1537  0.9513 -0.1246
 2274TIP3   OH228236   2.535   3.161  14.131  0.2633 -0.0596 -0.1871
 2274TIP3    H128237   2.499   3.181  14.044  1.4027  1.3125 -0.3740
 2274TIP3    H228238   2.460   3.128  14.181 -0.8906  1.1355 -1.0619
 2275TIP3   OH228239   0.181   3.290  13.349 -0.0176  0.6578 -0.5641
 2275TIP3    H128240   0.107   3.289  13.410  0.6494 -0.0105  0.2687
 2275TIP3    H228241   0.184   3.380  13.316 -0.7680  0.8722 -0.0673
 2276TIP3   OH228242   5.614   3.806   5.556  0.4933  0.2458  0.3904
 2276TIP3    H128243   5.652   3.877   5.504  0.1834 -1.1435 -1.8791
 2276TIP3    H228244   5.688   3.749   5.576  0.2973 -0.2413 -0.2654
 2277TIP3   OH228245   1.546   3.293  13.970 -0.1581 -0.0447 -0.1887
 2277TIP3    H128246   1.624   3.311  13.919 -0.9468 -1.2102 -1.8999
 2277TIP3    H228247   1.520   3.379  14.005 -0.3977  1.1310 -2.9813
 2278TIP3   OH228248   4.958   0.176  11.352  0.1957  0.2791 -0.3159
 2278TIP3    H128249   4.976   0.082  11.360  3.2111  0.7763 -0.0465
 2278TIP3    H228250   5.042   0.214  11.327 -0.8113  2.9904  0.1179
 2279TIP3   OH228251   4.822   2.633  15.765 -0.0446  0.1718  0.4391
 2279TIP3    H128252   4.764   2.672  15.830  1.4313  0.1793  1.8078
 2279TIP3    H228253   4.845   2.705  15.707 -0.5047  0.4147  0.5549
 2280TIP3   OH228254   6.251   4.932   1.846  0.3152  0.5006  0.0246
 2280TIP3    H128255   6.257   4.958   1.754  2.0754 -1.3615 -0.4707
 2280TIP3    H228256   6.198   4.852   1.844  0.0746  0.6406  0.6918
 2281TIP3   OH228257   1.989   1.119   3.523 -0.3439 -0.7036  0.0451
 2281TIP3    H128258   2.059   1.161   3.574 -0.1779 -2.0428  0.9797
 2281TIP3    H228259   1.910   1.164   3.550 -0.3403 -1.7127  1.9744
 2282TIP3   OH228260   1.202   3.452   3.268  1.1264 -0.2593  0.0913
 2282TIP3    H128261   1.279   3.425   3.219  0.9322  0.0315 -0.3838
 2282TIP3    H228262   1.144   3.492   3.202  1.0700  0.5841  0.6348
 2283TIP3   OH228263   0.216   0.770  13.356  0.5560 -0.0498 -0.2237
 2283TIP3    H128264   0.137   0.804  13.313  0.6995  1.9219  0.9759
 2283TIP3    H228265   0.183   0.722  13.432  0.4781 -0.4778 -0.5183
 2284TIP3   OH228266   2.996   5.438   0.657  0.2762  0.0560  0.0991
 2284TIP3    H128267   2.956   5.351   0.647  0.3058  0.0935 -0.4004
 2284TIP3    H228268   3.090   5.421   0.657  0.3093  0.1688 -0.9733
 2285TIP3   OH228269   6.650   5.187   4.668  0.2435 -0.0747 -0.1208
 2285TIP3    H128270   6.612   5.103   4.692  0.2606 -0.3310 -0.9463
 2285TIP3    H228271   6.594   5.252   4.711 -0.0114 -0.4945  0.1868
 2286TIP3   OH228272   5.140   3.480   1.357 -0.2951  0.1751 -0.7352
 2286TIP3    H128273   5.219   3.534   1.356 -0.3577  0.4211  1.5574
 2286TIP3    H228274   5.166   3.400   1.312  0.2340  1.4875 -2.9144
 2287TIP3   OH228275   4.040   3.816  11.545  0.6943 -0.1759  0.0667
 2287TIP3    H128276   4.028   3.887  11.607  0.9034  0.0590 -0.1601
 2287TIP3    H228277   3.997   3.740  11.586 -1.7772  0.6668 -0.7876
 2288TIP3   OH228278   2.278   6.771  14.901  0.1799 -0.0913 -0.1279
 2288TIP3    H128279   2.215   6.701  14.922 -0.1890  0.3556  0.2837
 2288TIP3    H228280   2.230   6.852  14.917  1.0922  0.2699  0.9516
 2289TIP3   OH228281   0.794   0.607   1.394 -0.6246 -0.1980 -0.1924
 2289TIP3    H128282   0.773   0.598   1.301 -0.2927 -0.9392 -0.2080
 2289TIP3    H228283   0.815   0.518   1.422 -2.0104 -0.2051  0.9206
 2290TIP3   OH228284   0.625   1.580  14.329  0.4625  0.2034 -0.4187
 2290TIP3    H128285   0.537   1.552  14.303  0.7957  0.1344 -1.4969
 2290TIP3    H228286   0.627   1.566  14.424 -1.2352  1.7030 -0.1015
 2291TIP3   OH228287   5.289   5.320  10.621  0.4875 -0.3843 -0.6387
 2291TIP3    H128288   5.241   5.345  10.700  0.5280  0.4028 -0.8594
 2291TIP3    H228289   5.372   5.283  10.654 -0.5998 -2.6369 -0.2150
 2292TIP3   OH228290   3.296   2.981  13.078 -0.0687  0.3280 -1.2343
 2292TIP3    H128291   3.346   2.941  13.149 -1.0852  0.7539 -0.2450
 2292TIP3    H228292   3.348   3.058  13.053  1.2925 -0.9037 -2.3418
 2293TIP3   OH228293   2.277   5.211   1.775 -0.3543 -0.1452 -0.4215
 2293TIP3    H128294   2.327   5.290   1.799  0.9096 -1.2025  0.5488
 2293TIP3    H228295   2.304   5.194   1.684 -0.7814  0.6281 -0.7056
 2294TIP3   OH228296   0.435   0.633   4.384  0.0819 -0.3399 -0.4684
 2294TIP3    H128297   0.514   0.682   4.358 -0.0232  0.5178  0.7329
 2294TIP3    H228298   0.364   0.677   4.337  0.2064 -0.4856 -0.7927
 2295TIP3   OH228299   4.465   5.440   6.034 -0.2303 -0.3410  0.1043
 2295TIP3    H128300   4.548   5.467   5.995 -0.5456  2.1467  1.0018
 2295TIP3    H228301   4.414   5.407   5.960  0.5190  0.7967 -0.9558
 2296TIP3   OH228302   6.440   3.112  14.096  0.6322  0.0637  0.0699
 2296TIP3    H128303   6.455   3.026  14.135 -0.1845  0.0839  0.4436
 2296TIP3    H228304   6.415   3.168  14.169 -0.0429  0.3203 -0.3455
 2297TIP3   OH228305   4.265   5.051  13.389 -0.3574  0.1725  0.2578
 2297TIP3    H128306   4.315   5.115  13.441  0.6625  0.7479 -1.3558
 2297TIP3    H228307   4.325   5.023  13.320 -1.2483 -1.5274  0.1091
 2298TIP3   OH228308   2.773   0.947   3.307  0.0146 -0.4868 -0.5343
 2298TIP3    H128309   2.782   1.006   3.382 -0.8896  0.4894 -1.1689
 2298TIP3    H228310   2.862   0.913   3.292  0.6889  1.1756 -0.5215
 2299TIP3   OH228311   1.343   2.849  14.376  0.0227 -0.0388  0.1575
 2299TIP3    H128312   1.261   2.841  14.426  0.1109 -0.9180  0.1674
 2299TIP3    H228313   1.316   2.891  14.294 -0.2984  0.4253  0.4885
 2300TIP3   OH228314   1.529   4.865  10.764  0.0051  0.4843  0.3623
 2300TIP3    H128315   1.577   4.796  10.720 -3.0659 -0.6350 -1.5791
 2300TIP3    H228316   1.546   4.943  10.712  1.0259  0.5042  0.7125
 2301TIP3   OH228317   1.645   5.823  15.243 -0.0175  0.2330  0.7521
 2301TIP3    H128318   1.705   5.764  15.289 -0.1014 -0.7021 -0.2912
 2301TIP3    H228319   1.572   5.834  15.303 -0.5029 -1.6257  0.5658
 2302TIP3   OH228320   3.755   5.716  12.348  0.1796 -0.1903 -0.2840
 2302TIP3    H128321   3.747   5.620  12.342 -2.3061 -0.2329  1.8880
 2302TIP3    H228322   3.807   5.730  12.428  1.5393  0.3265 -1.2255
 2303TIP3   OH228323   5.578   6.135  12.167 -0.2572 -0.0742 -0.2075
 2303TIP3    H128324   5.547   6.212  12.118  0.9396 -0.2087 -1.2323
 2303TIP3    H228325   5.540   6.060  12.121 -0.2598 -0.1515 -0.0801
 2304TIP3   OH228326   3.880   0.604   0.184  0.1312  0.1033 -0.7592
 2304TIP3    H128327   3.884   0.537   0.252 -1.6227 -0.2171 -0.8989
 2304TIP3    H228328   3.786   0.613   0.166  0.5231 -1.2088 -4.4301
 2305TIP3   OH228329   6.009   1.638   5.292 -0.1886  0.1942 -0.1897
 2305TIP3    H128330   6.020   1.733   5.301 -0.5880  0.2329 -0.0849
 2305TIP3    H228331   6.062   1.601   5.363 -0.1519  0.3463 -0.1373
 2306TIP3   OH228332   3.428   6.021   5.543  0.0654 -0.1276 -0.1232
 2306TIP3    H128333   3.445   5.972   5.624  0.0829  1.4294  0.8646
 2306TIP3    H228334   3.333   6.018   5.532  0.0784 -0.4986 -0.1661
 2307TIP3   OH228335   1.532   3.577  15.725 -0.1817  0.3664 -0.3407
 2307TIP3    H128336   1.489   3.512  15.779  1.0794 -0.2471 -0.0341
 2307TIP3    H228337   1.625   3.555  15.730  0.1399  1.3843 -1.3103
 2308TIP3   OH228338   3.461   1.315  17.235 -0.0476 -0.0375 -0.6649
 2308TIP3    H128339   3.377   1.350  17.266 -0.5812  0.4417 -2.5208
 2308TIP3    H228340   3.501   1.388  17.187  0.2929 -1.0005 -1.8842
 2309TIP3   OH228341   0.643   2.777   5.890 -0.6847 -0.2446 -0.3990
 2309TIP3    H128342   0.583   2.721   5.939 -0.1183 -0.9628 -0.5069
 2309TIP3    H228343   0.608   2.779   5.801 -1.1990  0.3110 -0.1959
 2310TIP3   OH228344   2.240   4.648   5.600  0.1244  0.0318  0.2545
 2310TIP3    H128345   2.306   4.699   5.647 -0.0731  0.8697 -0.3446
 2310TIP3    H228346   2.182   4.714   5.561  0.2791 -0.6096 -1.1457
 2311TIP3   OH228347   2.707   5.576  12.993 -0.4400  0.3516 -0.2096
 2311TIP3    H128348   2.757   5.599  12.915 -0.8178 -1.6225 -1.0898
 2311TIP3    H228349   2.622   5.548  12.960 -0.6569 -0.3827  0.9072
 2312TIP3   OH228350   4.957   3.876   4.851 -0.0981 -0.4700  0.8693
 2312TIP3    H128351   5.027   3.871   4.915 -0.3695 -0.4473  1.1726
 2312TIP3    H228352   4.937   3.970   4.845 -0.2389 -0.4960  0.9336
 2313TIP3   OH228353   1.556   1.420  16.114  0.1709  0.4571  0.3516
 2313TIP3    H128354   1.589   1.495  16.064 -0.6302  0.7048  0.1649
 2313TIP3    H228355   1.559   1.448  16.205 -0.3361  0.8143  0.2657
 2314TIP3   OH228356   1.766   3.069  10.959  0.6274  0.0492  0.2247
 2314TIP3    H128357   1.686   3.062  10.907 -0.0569 -0.0819  1.2606
 2314TIP3    H228358   1.777   3.163  10.974  1.3032  0.1608 -0.8410
 2315TIP3   OH228359   3.275   5.740  11.802 -0.1566 -0.1085 -0.0525
 2315TIP3    H128360   3.242   5.651  11.813 -0.8221  0.1471  0.0718
 2315TIP3    H228361   3.220   5.777  11.733  0.7894 -0.1183 -0.8440
 2316TIP3   OH228362   0.969   1.186  11.280 -0.6156  0.5057 -0.0352
 2316TIP3    H128363   0.902   1.210  11.216 -0.6977 -1.5585 -0.8055
 2316TIP3    H228364   0.927   1.200  11.365 -1.0836  1.7262 -0.4416
 2317TIP3   OH228365   2.081   4.211   1.396 -0.4309  0.3247 -0.3665
 2317TIP3    H128366   2.022   4.183   1.466  0.7936  0.6404  0.8468
 2317TIP3    H228367   2.073   4.306   1.393 -0.5678  0.3011 -0.7313
 2318TIP3   OH228368   6.174   3.175  15.601  0.1135  0.1579  0.2114
 2318TIP3    H128369   6.079   3.190  15.599  0.1286  0.1565 -1.0233
 2318TIP3    H228370   6.184   3.083  15.576  0.4966  0.5382 -1.1183
 2319TIP3   OH228371   0.127   5.286   0.570 -0.3689 -0.1053 -0.0386
 2319TIP3    H128372   0.178   5.205   0.569  1.8712  1.1842  1.9702
 2319TIP3    H228373   0.070   5.278   0.646  1.5800  1.1136  1.6314
 2320TIP3   OH228374   3.291   1.632  14.451  0.0137 -1.0430 -0.0136
 2320TIP3    H128375   3.273   1.572  14.379  0.7064 -2.6116  1.0564
 2320TIP3    H228376   3.260   1.717  14.420  0.0673 -1.7091 -2.0414
 2321TIP3   OH228377   4.483   4.117  14.940  0.1977 -0.0608  0.0323
 2321TIP3    H128378   4.547   4.067  14.890  0.8531  1.3291 -0.5791
 2321TIP3    H228379   4.518   4.207  14.941 -0.9264  0.3950  1.0824
 2322TIP3   OH228380   2.510   5.573   5.139 -0.0904  0.6292  1.1002
 2322TIP3    H128381   2.602   5.588   5.160  0.2538  0.9022 -0.4247
 2322TIP3    H228382   2.511   5.494   5.084 -0.5179  1.6463 -0.4279
 2323TIP3   OH228383   5.600   0.412  12.609  0.5463 -0.1292  0.1896
 2323TIP3    H128384   5.608   0.464  12.689  1.0950 -0.1245  0.1363
 2323TIP3    H228385   5.543   0.463  12.552 -0.7168 -0.6343  0.9772
 2324TIP3   OH228386   0.974   6.295   2.126 -0.2964 -0.3068 -0.3021
 2324TIP3    H128387   0.968   6.224   2.190 -2.1040  0.2100  0.1847
 2324TIP3    H228388   1.035   6.357   2.165 -0.2521 -0.6786  0.2317
 2325TIP3   OH228389   5.631   5.564   0.738 -0.1631  0.2471  0.0120
 2325TIP3    H128390   5.653   5.533   0.826  2.5525 -1.5605 -1.1602
 2325TIP3    H228391   5.671   5.651   0.732 -1.6270  1.0297  0.9747
 2326TIP3   OH228392   3.724   6.642  12.510 -0.0352 -0.0842 -0.1333
 2326TIP3    H128393   3.658   6.704  12.479  0.3547  0.0326 -0.7381
 2326TIP3    H228394   3.757   6.600  12.431  1.8715  1.1280 -0.0290
 2327TIP3   OH228395   5.341   1.160  14.262  0.5006 -0.2201 -0.0229
 2327TIP3    H128396   5.335   1.084  14.320 -1.4883  0.0222  0.1515
 2327TIP3    H228397   5.417   1.209  14.296  1.7257 -2.0057 -0.0572
 2328TIP3   OH228398   4.682   1.813   6.080 -0.5870  0.1694 -0.4796
 2328TIP3    H128399   4.743   1.885   6.060 -0.2933  0.5833  1.6257
 2328TIP3    H228400   4.713   1.780   6.164 -2.3865 -0.6179 -0.0968
 2329TIP3   OH228401   5.970   6.298   5.447  0.3874  0.4499  0.4196
 2329TIP3    H128402   6.065   6.298   5.462  0.4484 -0.6444  0.1504
 2329TIP3    H228403   5.958   6.352   5.369  1.0164 -0.9246 -0.6731
 2330TIP3   OH228404   4.198   6.273   4.028  0.6369 -0.0821  0.0074
 2330TIP3    H128405   4.122   6.268   3.969  0.9960  0.8419 -0.5617
 2330TIP3    H228406   4.163   6.310   4.109  0.2018 -1.0437  0.2602
 2331TIP3   OH228407   5.895   2.987  11.859 -0.3943  0.6659 -0.1929
 2331TIP3    H128408   5.964   2.921  11.849  0.2299  1.0600  1.1766
 2331TIP3    H228409   5.896   3.035  11.776 -1.8975 -1.9305 -1.8283
 2332TIP3   OH228410   3.266   5.365   0.682  0.4367 -0.0917 -0.0658
 2332TIP3    H128411   3.290   5.272   0.679  0.8452  0.0092 -0.0928
 2332TIP3    H228412   3.279   5.395   0.592 -2.1324 -0.5789 -0.6798
 2333TIP3   OH228413   3.265   2.245   2.536 -0.6654  0.8037 -0.2594
 2333TIP3    H128414   3.199   2.177   2.542 -0.5108  0.7314  0.8632
 2333TIP3    H228415   3.346   2.203   2.564 -0.4171  1.2509 -0.2875
 2334TIP3   OH228416   5.584   5.924   4.365 -0.0293 -0.3187 -0.3809
 2334TIP3    H128417   5.674   5.892   4.375  0.0428 -0.1633 -0.5157
 2334TIP3    H228418   5.594   6.019   4.352 -0.3081 -0.0203  1.3201
 2335TIP3   OH228419   0.339   6.139   0.521 -0.0211  0.2418 -0.0426
 2335TIP3    H128420   0.406   6.080   0.557  1.0213  1.0814 -0.5554
 2335TIP3    H228421   0.382   6.225   0.517 -1.2223  0.8610 -0.1346
 2336TIP3   OH228422   0.737   6.447   1.207 -0.8902 -0.3756 -0.0245
 2336TIP3    H128423   0.652   6.461   1.250 -0.5142  0.4025  0.4834
 2336TIP3    H228424   0.800   6.442   1.279 -0.1234  1.8339 -0.4610
 2337TIP3   OH228425   0.311   2.167  15.381  0.3831 -0.6697 -0.2039
 2337TIP3    H128426   0.334   2.080  15.413 -1.0941 -0.9999  0.0402
 2337TIP3    H228427   0.351   2.227  15.444 -0.1160 -1.2386  0.6791
 2338TIP3   OH228428   4.639   3.167   0.974  0.3463 -0.1142  0.1658
 2338TIP3    H128429   4.618   3.235   1.038  0.0622 -0.9897  1.0342
 2338TIP3    H228430   4.563   3.109   0.974  0.9792 -0.9800  0.2037
 2339TIP3   OH228431   5.627   6.096   5.851 -0.3584 -0.1130  0.5726
 2339TIP3    H128432   5.594   6.007   5.844  1.1215 -0.8027  1.8118
 2339TIP3    H228433   5.647   6.107   5.943  0.7682  1.0253  0.2178
 2340TIP3   OH228434   1.012   3.283  16.043  0.4039 -0.1471  0.7156
 2340TIP3    H128435   1.008   3.321  16.131 -1.7434  2.4768 -0.3381
 2340TIP3    H228436   0.931   3.313  16.001  2.4927  0.9701 -2.9919
 2341TIP3   OH228437   1.652   6.415  16.957  0.3318  0.8745 -0.3525
 2341TIP3    H128438   1.735   6.368  16.947  0.4884  1.1617 -0.3944
 2341TIP3    H228439   1.613   6.376  17.036 -0.3921 -0.5944 -1.3957
 2342TIP3   OH228440   2.052   0.520   4.021  0.5385  0.2608 -0.0305
 2342TIP3    H128441   2.029   0.507   3.929 -0.7262 -2.9266  0.6115
 2342TIP3    H228442   2.146   0.539   4.020  0.9343 -1.5409 -1.9042
 2343TIP3   OH228443   4.006   6.270  12.921  0.4497 -0.0850  0.7593
 2343TIP3    H128444   3.940   6.289  12.987  1.3628 -0.0919  1.6992
 2343TIP3    H228445   3.998   6.341  12.858 -1.2012 -0.6813  0.2365
 2344TIP3   OH228446   1.660   1.002   2.923  0.3376 -0.6523 -0.0380
 2344TIP3    H128447   1.589   1.059   2.955 -0.5472 -1.1147 -1.0996
 2344TIP3    H228448   1.664   1.020   2.829  0.3664 -1.9977 -0.3030
 2345TIP3   OH228449   5.195   1.456  13.483 -0.9281  0.0262 -0.1980
 2345TIP3    H128450   5.128   1.390  13.468 -0.6501 -0.3894  0.3634
 2345TIP3    H228451   5.266   1.409  13.526 -0.6694  0.6638  0.0843
 2346TIP3   OH228452   4.420   0.919   1.598  0.9152 -0.0723 -0.6488
 2346TIP3    H128453   4.448   1.001   1.639  0.9816  1.2462 -3.1691
 2346TIP3    H228454   4.330   0.907   1.629  0.4599  1.6410 -1.1834
 2347TIP3   OH228455   4.478   1.761  15.213  0.3516  0.2702  0.3673
 2347TIP3    H128456   4.409   1.696  15.226 -0.1179  0.1044 -2.2823
 2347TIP3    H228457   4.431   1.843  15.197  0.9104  0.9890  2.1349
 2348TIP3   OH228458   1.145   0.060  14.134  0.3075  0.4375  0.4570
 2348TIP3    H128459   1.157   0.090  14.224  0.1772  0.4655  0.4653
 2348TIP3    H228460   1.124  -0.033  14.141  0.4649  0.4004  0.4445
 2349TIP3   OH228461   4.246   6.161  11.002  0.0604  0.4104  0.2202
 2349TIP3    H128462   4.250   6.163  10.906 -0.6206  1.1829  0.1888
 2349TIP3    H228463   4.281   6.246  11.029  0.4027  0.1300  0.6640
 2350TIP3   OH228464   0.617   5.022   2.087 -0.1568  0.7624 -0.5557
 2350TIP3    H128465   0.660   4.959   2.145  1.6043 -0.7035 -3.2507
 2350TIP3    H228466   0.546   4.973   2.046 -1.8710  1.9996  0.8064
 2351TIP3   OH228467   6.547   4.848  14.746  0.1689  0.1073 -0.1665
 2351TIP3    H128468   6.474   4.827  14.688 -0.5306  1.3298  0.2542
 2351TIP3    H228469   6.543   4.781  14.815 -0.0663 -0.2933 -0.5634
 2352TIP3   OH228470   0.561   1.374   3.626  0.0036  0.2619 -0.3783
 2352TIP3    H128471   0.565   1.337   3.538 -0.7481  0.8839 -0.6865
 2352TIP3    H228472   0.468   1.393   3.639  0.0697 -0.0420  0.6442
 2353TIP3   OH228473   5.970   2.760   3.806  0.1721  0.3506  0.3566
 2353TIP3    H128474   6.011   2.846   3.797  0.9996 -0.1299 -0.7432
 2353TIP3    H228475   5.954   2.732   3.716  1.4895 -1.3619  0.5991
 2354TIP3   OH228476   6.362   1.179  12.687 -0.0823 -0.3592 -0.0544
 2354TIP3    H128477   6.357   1.169  12.782 -0.5959 -0.8266 -0.1257
 2354TIP3    H228478   6.446   1.223  12.672 -0.1005 -0.0862  0.6273
 2355TIP3   OH228479   6.495   3.108   3.346 -0.1176  0.0208 -0.0614
 2355TIP3    H128480   6.579   3.131   3.306  0.6343  1.3189  2.1005
 2355TIP3    H228481   6.431   3.163   3.301  0.5235  0.6403 -0.2366
 2356TIP3   OH228482   2.841   4.932   6.051  0.4325 -0.0517  0.5611
 2356TIP3    H128483   2.821   5.020   6.082  1.3619  0.2922  0.2149
 2356TIP3    H228484   2.779   4.916   5.980  0.7519  0.6178  0.1239
 2357TIP3   OH228485   0.818   4.711  13.212 -0.1295  0.1362  0.2703
 2357TIP3    H128486   0.804   4.777  13.143 -1.8560  1.8371  2.1255
 2357TIP3    H228487   0.801   4.757  13.293  0.0611 -2.2739  1.7771
 2358TIP3   OH228488   4.140   5.545   3.612  0.0724 -0.3839  0.1718
 2358TIP3    H128489   4.158   5.603   3.538  1.3422 -1.0999 -0.1024
 2358TIP3    H228490   4.224   5.503   3.630 -0.5573 -1.2578  1.1262
 2359TIP3   OH228491   2.875   6.145   3.011  0.0786  0.1879 -0.4981
 2359TIP3    H128492   2.893   6.120   2.920 -0.6735  0.0934 -0.6272
 2359TIP3    H228493   2.895   6.066   3.061 -1.9826 -0.6417 -0.8746
 2360TIP3   OH228494   1.710   0.724  15.790  0.1533 -0.0395 -0.0824
 2360TIP3    H128495   1.636   0.665  15.777  1.0492 -0.9211 -1.4636
 2360TIP3    H228496   1.758   0.687  15.865 -0.2988  0.0348  0.2482
 2361TIP3   OH228497   0.872   3.903  11.920  0.2540  0.0314 -0.1553
 2361TIP3    H128498   0.934   3.964  11.961 -0.3325 -0.7657  2.0608
 2361TIP3    H228499   0.806   3.888  11.987 -1.2527 -0.7359 -1.7359
 2362TIP3   OH228500   3.939   6.698   5.943 -0.8273  0.8517  0.3465
 2362TIP3    H128501   3.900   6.625   5.894  1.7549  0.7164 -1.7554
 2362TIP3    H228502   3.930   6.673   6.035 -2.0427 -1.0152 -0.2210
 2363TIP3   OH228503   5.132   3.851  11.892 -0.4510  0.1524 -0.4390
 2363TIP3    H128504   5.074   3.861  11.968 -0.8792 -1.1085 -0.5788
 2363TIP3    H228505   5.073   3.835  11.819  0.0568 -1.5901 -0.5087
 2364TIP3   OH228506   3.090   2.003  15.055  0.5007  0.0522  0.2821
 2364TIP3    H128507   3.150   1.994  15.129  0.7858 -2.2014 -0.1631
 2364TIP3    H228508   3.047   1.918  15.048 -1.1262  0.9088 -0.8186
 2365TIP3   OH228509   5.736   0.544  14.375 -0.4881  0.0414  0.0581
 2365TIP3    H128510   5.826   0.575  14.365 -0.2348 -0.9082 -0.7206
 2365TIP3    H228511   5.736   0.457  14.336 -1.9337  0.3453 -0.6637
 2366TIP3   OH228512   5.348   5.160   2.471 -0.7413 -0.0933  0.0452
 2366TIP3    H128513   5.377   5.211   2.547  1.6692  1.6610 -1.8719
 2366TIP3    H228514   5.274   5.209   2.436  0.4299  1.1986 -0.7412
 2367TIP3   OH228515   1.250   0.390   4.890 -0.3237 -0.3368  0.3827
 2367TIP3    H128516   1.255   0.484   4.907  0.0424 -0.6492  2.3005
 2367TIP3    H228517   1.157   0.374   4.870 -0.4184  0.4055  0.1995
 2368TIP3   OH228518   0.394   0.102   3.904  0.4449  0.5411  0.4858
 2368TIP3    H128519   0.440   0.085   3.986  0.3404 -0.1292  0.4091
 2368TIP3    H228520   0.405   0.021   3.853  1.6096  1.3911 -0.6926
 2369TIP3   OH228521   4.916   2.316  16.375  0.0107  0.1065  0.0282
 2369TIP3    H128522   5.000   2.343  16.338 -0.6873 -0.5673 -2.2782
 2369TIP3    H228523   4.853   2.380  16.341 -0.6209 -0.3300  0.3589
 2370TIP3   OH228524   1.521   2.850  13.318 -0.1489  0.3164 -0.1223
 2370TIP3    H128525   1.555   2.930  13.277 -0.5259  0.7860  0.4645
 2370TIP3    H228526   1.439   2.877  13.359 -0.7793 -0.5983 -0.7405
 2371TIP3   OH228527   2.891   3.595   2.345 -0.2631 -0.3209 -0.1918
 2371TIP3    H128528   2.986   3.587   2.332 -0.4023 -1.1521 -0.7068
 2371TIP3    H228529   2.859   3.505   2.346 -1.1522 -0.0214 -0.7935
 2372TIP3   OH228530   0.387   4.537  11.076 -0.0501 -0.1210 -0.2467
 2372TIP3    H128531   0.330   4.591  11.022 -3.4648 -1.1472  1.9881
 2372TIP3    H228532   0.355   4.448  11.062  1.5509 -0.8576  0.5489
 2373TIP3   OH228533   2.060   0.961  12.965 -0.5591  0.0587 -0.5482
 2373TIP3    H128534   2.124   0.891  12.978  0.2477  0.2314 -3.0830
 2373TIP3    H228535   1.977   0.916  12.951 -1.5267 -0.1560  4.1776
 2374TIP3   OH228536   6.501   3.549   3.714 -0.2517 -0.6800  0.6486
 2374TIP3    H128537   6.591   3.552   3.746  0.1219 -1.8224 -0.2026
 2374TIP3    H228538   6.462   3.631   3.743  1.3997  0.3466  0.0821
 2375TIP3   OH228539   5.471   0.140   3.926  0.8699 -0.1727  0.3222
 2375TIP3    H128540   5.552   0.116   3.972  1.3843  0.9959  0.0505
 2375TIP3    H228541   5.489   0.118   3.835 -0.2558 -2.7667  0.6408
 2376TIP3   OH228542   1.083   2.426   4.121  0.2322  0.3052  0.1818
 2376TIP3    H128543   1.002   2.399   4.164  0.5309  1.4014  1.4979
 2376TIP3    H228544   1.063   2.421   4.027 -0.6199 -1.5958  0.4162
 2377TIP3   OH228545   1.968   4.626   0.273 -0.1274 -0.1427  0.3061
 2377TIP3    H128546   2.031   4.554   0.283 -0.0192 -0.0088  0.5805
 2377TIP3    H228547   1.959   4.636   0.178  0.7133  0.2238  0.2524
 2378TIP3   OH228548   2.569   4.694   2.454 -0.1513 -0.4081 -0.1398
 2378TIP3    H128549   2.636   4.704   2.522  2.1539 -1.3481 -2.1291
 2378TIP3    H228550   2.597   4.753   2.384 -1.0982 -1.2186 -1.2448
 2379TIP3   OH228551   4.371   2.512   3.561  0.2040  0.2426  0.3099
 2379TIP3    H128552   4.333   2.472   3.640  2.5716 -1.6384  0.6283
 2379TIP3    H228553   4.367   2.606   3.577 -1.5059 -0.0130  1.6132
 2380TIP3   OH228554   2.806   3.586   1.508  0.2955 -0.2899  0.0585
 2380TIP3    H128555   2.739   3.651   1.528 -0.2456 -1.0624  0.8438
 2380TIP3    H228556   2.878   3.636   1.471 -0.3252  0.6846  0.1394
 2381TIP3   OH228557   4.174   4.203   3.839 -0.2250 -0.6667 -0.4882
 2381TIP3    H128558   4.108   4.208   3.771  0.7576 -0.4930 -1.4563
 2381TIP3    H228559   4.138   4.254   3.912 -0.2385  1.2818 -1.7969
 2382TIP3   OH228560   4.920   1.036   3.770 -0.1932 -0.3318 -0.0390
 2382TIP3    H128561   4.973   1.115   3.784 -0.2942 -0.0781 -1.0344
 2382TIP3    H228562   4.978   0.977   3.721 -1.1144  0.3246 -2.0135
 2383TIP3   OH228563   0.014   0.747  16.503 -0.2705  0.4802  0.2259
 2383TIP3    H128564   0.024   0.656  16.530 -0.6085  0.3296 -0.1472
 2383TIP3    H228565   0.093   0.791  16.536 -0.7237  0.3346  1.5546
 2384TIP3   OH228566   0.411   3.194   4.179  0.0349  0.2212 -0.0952
 2384TIP3    H128567   0.415   3.153   4.265  0.4500 -1.5082 -0.8889
 2384TIP3    H228568   0.384   3.284   4.196 -0.7414 -0.3185  1.7620
 2385TIP3   OH228569   2.413   0.357  12.941 -0.0064  0.2339 -0.1340
 2385TIP3    H128570   2.460   0.277  12.918  0.2937  0.0539  1.0516
 2385TIP3    H228571   2.482   0.417  12.969 -0.4006  0.2699  0.7694
 2386TIP3   OH228572   3.451   5.942  11.979 -0.1879  0.0227  0.0950
 2386TIP3    H128573   3.464   6.027  12.023  3.1272  0.8047 -2.0743
 2386TIP3    H228574   3.470   5.877  12.047  2.1969  1.1485  0.6303
 2387TIP3   OH228575   3.627   4.681  11.285  0.0533  0.2457 -0.2956
 2387TIP3    H128576   3.679   4.631  11.223 -0.9395 -1.2666  0.0209
 2387TIP3    H228577   3.553   4.714  11.234 -0.7605 -0.9939  0.0297
 2388TIP3   OH228578   1.617   6.341   1.857 -0.1949 -0.1457  0.6751
 2388TIP3    H128579   1.703   6.354   1.899 -0.0740  0.9585  0.1288
 2388TIP3    H228580   1.591   6.253   1.882  1.1203 -0.5084  0.8256
 2389TIP3   OH228581   2.184   2.949  12.039  0.3747 -0.2722  0.5465
 2389TIP3    H128582   2.097   2.984  12.022  0.4712 -0.0496  0.5110
 2389TIP3    H228583   2.230   2.959  11.955  1.7874  3.4531  1.5787
 2390TIP3   OH228584   0.302   1.022   0.655 -0.0951  0.0279  0.7088
 2390TIP3    H128585   0.299   1.097   0.596  0.8532  0.8395  1.6538
 2390TIP3    H228586   0.219   1.024   0.701 -1.5528 -1.5469 -1.6311
 2391TIP3   OH228587   2.552   2.059  12.703 -0.3564  0.4219 -0.3333
 2391TIP3    H128588   2.616   2.070  12.773  0.9958  0.6003 -1.5524
 2391TIP3    H228589   2.547   1.964  12.689  0.0848  0.4365 -0.6138
 2392TIP3   OH228590   1.875   1.196   1.240 -0.1488 -0.0105  0.2708
 2392TIP3    H128591   1.856   1.289   1.224 -2.5615 -0.6380 -0.9679
 2392TIP3    H228592   1.967   1.186   1.216 -0.0305  1.9016 -0.2395
 2393TIP3   OH228593   6.163   6.232  15.595  0.0185  0.1439  0.6965
 2393TIP3    H128594   6.201   6.316  15.569 -2.5838  1.2090  0.0460
 2393TIP3    H228595   6.151   6.185  15.513 -0.6877  0.1408  0.7926
 2394TIP3   OH228596   1.153   4.252  11.956  0.2972  0.1027  0.3515
 2394TIP3    H128597   1.176   4.160  11.946 -0.1882  0.0672 -0.5699
 2394TIP3    H228598   1.116   4.259  12.044  3.1519  0.0431  1.6575
 2395TIP3   OH228599   2.234   0.762  14.322  0.0804 -0.5153  0.2520
 2395TIP3    H128600   2.269   0.807  14.398 -0.2018 -0.5719  0.4132
 2395TIP3    H228601   2.249   0.669  14.340 -0.7094 -0.5817  0.6015
 2396TIP3   OH228602   4.165   4.582   3.634 -0.5513  0.0514 -0.1927
 2396TIP3    H128603   4.167   4.491   3.605 -0.6655  0.1273 -0.4328
 2396TIP3    H228604   4.122   4.578   3.719 -0.5709 -0.1163 -0.2088
 2397TIP3   OH228605   3.891   3.101  15.307 -0.3426  0.1029  0.1079
 2397TIP3    H128606   3.923   3.019  15.344 -0.3136  0.0954  0.0660
 2397TIP3    H228607   3.799   3.083  15.285 -0.0598 -0.2308 -0.8385
 2398TIP3   OH228608   0.930   3.331  16.314 -0.0956 -0.1698  0.3561
 2398TIP3    H128609   0.905   3.411  16.359  0.7304  0.2815  0.0283
 2398TIP3    H228610   0.850   3.279  16.310 -0.9087  1.1073 -0.3970
 2399TIP3   OH228611   2.995   4.932   3.039 -0.3813 -0.4687  0.6006
 2399TIP3    H128612   3.077   4.969   3.071  0.1580 -1.1704  0.0613
 2399TIP3    H228613   2.956   5.003   2.987  1.1574 -0.9295 -1.3236
 2400TIP3   OH228614   4.115   1.388   3.641 -0.4184  0.2372  0.0426
 2400TIP3    H128615   4.144   1.299   3.664 -1.2500 -0.4330 -1.3928
 2400TIP3    H228616   4.145   1.442   3.715  0.6869 -1.1064  0.6349
 2401TIP3   OH228617   5.718   4.446   2.679  0.4118 -0.0002  0.4741
 2401TIP3    H128618   5.793   4.388   2.666  1.2055  1.1213 -0.0469
 2401TIP3    H228619   5.661   4.397   2.738  1.2582 -1.1285  0.4022
 2402TIP3   OH228620   3.514   2.503  14.882  0.5731 -0.3812  0.7784
 2402TIP3    H128621   3.529   2.509  14.976 -0.4441  0.8767  0.8978
 2402TIP3    H228622   3.510   2.595  14.853  0.6319 -0.7453 -0.4467
 2403TIP3   OH228623   3.415   2.244  16.305  0.4780  0.0676  0.8868
 2403TIP3    H128624   3.432   2.162  16.351 -1.0592  0.3603  2.0751
 2403TIP3    H228625   3.342   2.223  16.246 -0.5081  0.7488  1.8232
 2404TIP3   OH228626   1.826   6.532  12.228 -0.0673  0.0640 -0.1118
 2404TIP3    H128627   1.880   6.576  12.294 -2.1643  0.3880  1.5040
 2404TIP3    H228628   1.823   6.593  12.154 -0.5173  1.3374  0.9212
 2405TIP3   OH228629   6.422   4.552   4.257 -0.4554 -0.2415 -0.4266
 2405TIP3    H128630   6.349   4.593   4.211  0.2217  0.0531 -1.2789
 2405TIP3    H228631   6.408   4.573   4.349 -0.2984  1.7046 -0.7946
 2406TIP3   OH228632   1.268   3.336   0.424  0.4230 -0.7944  0.4494
 2406TIP3    H128633   1.178   3.326   0.392  1.1606 -2.3247 -1.3098
 2406TIP3    H228634   1.316   3.264   0.384  2.0075 -1.3236  3.0696
 2407TIP3   OH228635   5.789   1.595  12.463 -0.8258  0.4813 -0.3210
 2407TIP3    H128636   5.832   1.651  12.528  1.1690  0.3045 -1.4064
 2407TIP3    H228637   5.774   1.512  12.510 -0.5935  0.7792  0.2907
 2408TIP3   OH228638   6.016   6.257  13.833 -0.3498 -0.0249  0.6375
 2408TIP3    H128639   5.994   6.342  13.873 -0.3632  0.4039 -0.2509
 2408TIP3    H228640   6.100   6.273  13.790  0.1122 -0.7391  1.2561
 2409TIP3   OH228641   4.398   6.756   0.589  0.3398  0.4413  0.3205
 2409TIP3    H128642   4.382   6.849   0.606 -0.4390  0.3617  0.0241
 2409TIP3    H228643   4.473   6.756   0.529  0.0142  0.8994 -0.0945
 2410TIP3   OH228644   3.310   5.713  15.131  0.3104  0.2066  0.0802
 2410TIP3    H128645   3.239   5.743  15.075 -0.3415 -0.0317  0.7626
 2410TIP3    H228646   3.282   5.734  15.220  0.1660 -1.6712  0.5227
 2411TIP3   OH228647   4.903   0.513   6.183  0.7184  0.0425 -0.2197
 2411TIP3    H128648   4.809   0.518   6.201  0.3845  2.7746 -2.0918
 2411TIP3    H228649   4.943   0.572   6.247  1.2937 -1.5341  0.9350
 2412TIP3   OH228650   4.938   1.117  13.710  0.2955 -0.1656 -0.2093
 2412TIP3    H128651   4.953   1.087  13.800 -0.2534 -1.0446 -0.4041
 2412TIP3    H228652   4.859   1.171  13.715  0.0683 -0.4992 -0.2281
 2413TIP3   OH228653   1.757   4.596   1.862  0.0713 -0.4853  0.0902
 2413TIP3    H128654   1.748   4.516   1.810 -2.2618  0.2562 -0.7941
 2413TIP3    H228655   1.839   4.635   1.833 -0.3675 -0.9338 -1.8999
 2414TIP3   OH228656   1.258   6.688  14.550  0.6465  0.2065 -0.4894
 2414TIP3    H128657   1.221   6.771  14.580 -0.2449 -0.7056  1.1259
 2414TIP3    H228658   1.300   6.708  14.467  1.2663  2.4526  0.3107
 2415TIP3   OH228659   2.086   6.468  14.400 -0.4851  0.1362  0.4320
 2415TIP3    H128660   2.026   6.466  14.474  0.2201 -1.5715  1.0188
 2415TIP3    H228661   2.138   6.388  14.409 -0.0570  0.1137 -1.6459
 2416TIP3   OH228662   3.075   0.718   1.569  0.1084 -0.0285  0.7870
 2416TIP3    H128663   3.035   0.770   1.498 -0.6454 -1.7053 -0.0622
 2416TIP3    H228664   3.042   0.759   1.649  0.0370  1.1828  0.1714
 2417TIP3   OH228665   5.583   3.956  12.395  0.4284 -0.3912  0.0422
 2417TIP3    H128666   5.658   3.897  12.405 -0.9265 -2.1427  0.5277
 2417TIP3    H228667   5.515   3.900  12.358 -0.4294  1.3346 -1.1011
 2418TIP3   OH228668   4.976   4.084   2.497  0.1247  0.1361  0.3452
 2418TIP3    H128669   4.953   3.992   2.510 -0.8291  0.4549  0.9718
 2418TIP3    H228670   4.926   4.131   2.563 -1.5949  1.3946 -1.7233
 2419TIP3   OH228671   2.334   1.611   1.314  0.0023 -0.3583 -0.2851
 2419TIP3    H128672   2.247   1.597   1.351  1.3617 -0.9432  3.0432
 2419TIP3    H228673   2.392   1.555   1.366  2.6172  1.3297 -1.1662
 2420TIP3   OH228674   3.637   3.064  15.812 -0.0749  0.4892  0.0555
 2420TIP3    H128675   3.619   3.029  15.899  0.1023 -1.6579 -0.6948
 2420TIP3    H228676   3.717   3.115  15.822  0.7317 -0.8696  0.9195
 2421TIP3   OH228677   1.227   3.142  11.400  0.1509  0.2444  0.0913
 2421TIP3    H128678   1.205   3.217  11.345 -0.1640 -0.6619 -1.0551
 2421TIP3    H228679   1.186   3.161  11.484  0.7975  1.7452  0.0898
 2422TIP3   OH228680   3.681   1.759  16.570  0.1026  0.1567  0.0533
 2422TIP3    H128681   3.624   1.828  16.536 -1.0082 -0.1282  1.2631
 2422TIP3    H228682   3.770   1.793  16.557 -0.4237  2.2428  1.4403
 2423TIP3   OH228683   0.781   1.851   4.542  0.4952  0.0550  0.7522
 2423TIP3    H128684   0.746   1.766   4.513  0.7828  0.1848 -0.0130
 2423TIP3    H228685   0.727   1.915   4.497 -0.3427  0.3124  2.0734
 2424TIP3   OH228686   5.468   2.134  13.524 -0.2947  0.8851  0.3412
 2424TIP3    H128687   5.482   2.057  13.579  1.5935  0.8178 -0.1564
 2424TIP3    H228688   5.406   2.105  13.457 -0.1530  0.0008  0.5821
 2425TIP3   OH228689   3.044   3.852  10.905  0.4231  0.1916 -0.2743
 2425TIP3    H128690   3.136   3.855  10.931 -0.4209 -1.8957  3.7816
 2425TIP3    H228691   3.028   3.761  10.880 -0.2326  0.9091 -2.7255
 2426TIP3   OH228692   6.223   6.284  11.347 -0.0565  0.2504 -0.1104
 2426TIP3    H128693   6.288   6.334  11.397  0.9757 -0.8788 -0.2737
 2426TIP3    H228694   6.172   6.238  11.414 -1.7258  2.2823  0.1057
 2427TIP3   OH228695   1.301   0.042   4.573  0.0122  0.3424  0.0038
 2427TIP3    H128696   1.330   0.102   4.642  0.9141 -0.5681  0.4286
 2427TIP3    H228697   1.353  -0.037   4.586 -0.4161 -0.1576 -1.2015
 2428TIP3   OH228698   4.102   2.142  11.850  0.2931 -0.0313  0.4127
 2428TIP3    H128699   4.158   2.112  11.778  1.1251 -0.1012  1.0662
 2428TIP3    H228700   4.042   2.205  11.810  0.9780  0.2016 -0.2702
 2429TIP3   OH228701   3.323   3.053  11.680  0.3211  0.2357 -0.0607
 2429TIP3    H128702   3.313   2.965  11.716 -0.7725  0.0228 -0.8397
 2429TIP3    H228703   3.241   3.070  11.635 -0.1417  2.3161  1.4306
 2430TIP3   OH228704   1.885   6.731  12.041  0.8780 -0.1670 -0.0696
 2430TIP3    H128705   1.968   6.720  11.994  0.8411  1.0199 -0.4438
 2430TIP3    H228706   1.907   6.787  12.116  0.1456  1.5311 -1.0642
 2431TIP3   OH228707   3.182   3.063   0.752 -0.0502 -0.0778  0.0286
 2431TIP3    H128708   3.154   2.984   0.798 -2.2463  0.5818 -0.0713
 2431TIP3    H228709   3.186   3.038   0.660 -2.1625  0.2331 -0.1892
 2432TIP3   OH228710   2.312   1.628   3.400  0.4042 -0.5533 -0.0338
 2432TIP3    H128711   2.346   1.544   3.430 -1.9986 -1.3396  0.6529
 2432TIP3    H228712   2.390   1.683   3.391  1.8784 -2.3521  1.0376
 2433TIP3   OH228713   4.772   4.450   1.563 -0.4590 -0.5887 -0.0265
 2433TIP3    H128714   4.706   4.487   1.505  0.5950 -0.3960 -1.1349
 2433TIP3    H228715   4.725   4.382   1.612 -1.5985 -0.0818 -0.3880
 2434TIP3   OH228716   6.207   6.191   1.642 -0.1479  0.1863 -0.5687
 2434TIP3    H128717   6.116   6.163   1.637 -0.0851 -0.0746 -0.3140
 2434TIP3    H228718   6.244   6.169   1.556 -0.1171 -0.4643 -0.3951
 2435TIP3   OH228719   3.289   0.569  12.992  0.1477 -0.2461 -0.1697
 2435TIP3    H128720   3.357   0.624  13.033 -1.1701  1.8622 -0.6258
 2435TIP3    H228721   3.317   0.563  12.901  0.7103 -1.0431  0.0476
 2436TIP3   OH228722   4.126   0.717   5.648  0.1766  0.1728  0.1890
 2436TIP3    H128723   4.111   0.811   5.661 -1.4967 -0.2484  1.7324
 2436TIP3    H228724   4.117   0.704   5.554 -3.3769  1.0500  0.2668
 2437TIP3   OH228725   2.988   6.099  12.809 -0.1809 -0.3811  0.2636
 2437TIP3    H128726   2.943   6.060  12.734 -0.0596 -0.6427  0.3269
 2437TIP3    H228727   2.917   6.127  12.867 -0.3135  0.9460 -0.5013
 2438TIP3   OH228728   2.914   4.186  10.813  0.3428  0.3030 -0.2535
 2438TIP3    H128729   2.920   4.279  10.789  0.7909  0.0978 -0.9601
 2438TIP3    H228730   2.890   4.187  10.905 -1.7953  1.1196 -0.7648
 2439TIP3   OH228731   5.572   0.099  17.010  0.0936 -0.1969  0.2893
 2439TIP3    H128732   5.592   0.006  17.008  2.0811  0.1508  1.4430
 2439TIP3    H228733   5.606   0.129  17.094  0.1930  1.7090 -0.3790
 2440TIP3   OH228734   2.177   0.648   4.674  0.0000  0.8992 -0.2172
 2440TIP3    H128735   2.088   0.679   4.653 -0.5757 -0.4740  0.0665
 2440TIP3    H228736   2.208   0.707   4.742 -1.2970  0.5404  0.7291
 2441TIP3   OH228737   5.553   4.280  14.345 -0.3695 -0.5123 -0.2607
 2441TIP3    H128738   5.603   4.358  14.372 -0.4248 -0.9790  1.3145
 2441TIP3    H228739   5.462   4.306  14.353 -0.3834 -0.4107 -0.7605
 2442TIP3   OH228740   4.923   1.139  15.785 -0.1765  0.1463 -0.0210
 2442TIP3    H128741   4.959   1.051  15.773  2.0792  0.8283  1.1208
 2442TIP3    H228742   4.893   1.165  15.697 -0.3037 -1.4801 -0.4953
 2443TIP3   OH228743   1.666   0.753  14.894  0.3834 -0.2442  0.3472
 2443TIP3    H128744   1.593   0.812  14.915 -1.5958 -1.9220 -1.2815
 2443TIP3    H228745   1.709   0.792  14.818 -1.3336 -1.0876 -1.1476
 2444TIP3   OH228746   3.576   0.532   1.582 -0.2937 -0.3621 -0.2827
 2444TIP3    H128747   3.592   0.626   1.591 -0.4499 -0.2737 -0.9425
 2444TIP3    H228748   3.500   0.515   1.637 -1.0297  0.1209 -1.1446
 2445TIP3   OH228749   1.903   5.900  16.498  0.5865  0.2446 -0.3502
 2445TIP3    H128750   1.849   5.902  16.577 -0.6561 -1.1403 -1.1277
 2445TIP3    H228751   1.860   5.960  16.438  1.5660  1.3446  0.0138
 2446TIP3   OH228752   0.656   0.551   2.003  0.1160 -0.4800  0.3784
 2446TIP3    H128753   0.581   0.519   1.954 -0.4525 -1.7964  2.0160
 2446TIP3    H228754   0.618   0.600   2.076  0.9512  2.0835 -0.7935
 2447TIP3   OH228755   3.804   0.939  16.368 -0.5359  0.0686 -0.1957
 2447TIP3    H128756   3.853   1.014  16.334 -0.1970 -0.2168 -0.3406
 2447TIP3    H228757   3.712   0.968  16.367 -0.5035  0.1685 -1.1095
 2448TIP3   OH228758   6.546   2.774   6.088 -0.6492 -0.0026 -0.3043
 2448TIP3    H128759   6.463   2.735   6.114 -0.3409  0.3747  1.3441
 2448TIP3    H228760   6.555   2.851   6.144 -0.1377  1.1411 -1.8742
 2449TIP3   OH228761   4.450   1.000  12.222  0.0206 -0.2333  0.2668
 2449TIP3    H128762   4.481   0.969  12.137 -1.8778  0.1735 -0.6329
 2449TIP3    H228763   4.514   1.065  12.250  1.4789 -1.4548 -0.1011
 2450TIP3   OH228764   0.413   0.531  12.270  0.8950 -0.6061 -0.3588
 2450TIP3    H128765   0.340   0.501  12.324  0.9015  1.1405  0.6708
 2450TIP3    H228766   0.479   0.461  12.279  0.8812 -0.4225  1.9013
 2451TIP3   OH228767   2.191   0.002  12.135  0.7120  0.0139 -0.2247
 2451TIP3    H128768   2.218   0.074  12.078  2.8737  0.1640  0.8855
 2451TIP3    H228769   2.217   0.030  12.223 -0.3897 -1.2163  0.5284
 2452TIP3   OH228770   0.400   0.279  15.962  0.2584 -0.7104  0.6392
 2452TIP3    H128771   0.431   0.201  15.917 -0.6892  0.3062 -1.9351
 2452TIP3    H228772   0.460   0.288  16.037  2.0944 -2.3646 -0.5201
 2453TIP3   OH228773   1.605   4.251  13.792 -0.9735 -0.3034 -0.1011
 2453TIP3    H128774   1.692   4.271  13.759 -0.8234  0.0424  0.4902
 2453TIP3    H228775   1.547   4.262  13.717 -0.5933  0.0963 -0.3386
 2454TIP3   OH228776   3.447   2.628  13.751  0.3672  0.0712  0.3427
 2454TIP3    H128777   3.396   2.548  13.760 -1.0668  0.9144  0.0139
 2454TIP3    H228778   3.390   2.697  13.785  1.8363  0.8781  1.2527
 2455TIP3   OH228779   4.539   2.253   3.588 -0.5712 -0.4090  0.5461
 2455TIP3    H128780   4.575   2.231   3.674  0.6864  1.6382  0.6191
 2455TIP3    H228781   4.458   2.300   3.607  0.3457  1.1619  0.7125
 2456TIP3   OH228782   6.418   5.381   5.694 -0.2604 -0.0426 -0.0693
 2456TIP3    H128783   6.453   5.418   5.613 -1.0326 -1.0313 -0.8704
 2456TIP3    H228784   6.323   5.397   5.689 -0.3653 -0.4626  0.4534
 2457TIP3   OH228785   1.577   3.640  10.642  0.5217 -0.3283 -0.2021
 2457TIP3    H128786   1.539   3.724  10.615  0.3727 -0.5724 -0.7681
 2457TIP3    H228787   1.621   3.608  10.563 -0.1682 -1.2025 -0.2395
 2458TIP3   OH228788   4.359   4.740  16.875 -0.1132 -0.2651  0.2272
 2458TIP3    H128789   4.433   4.793  16.905 -1.5372  1.6520  0.4738
 2458TIP3    H228790   4.325   4.699  16.954  0.0232 -0.3262  0.2569
 2459TIP3   OH228791   2.084   5.496  10.978 -0.3288 -0.1605  0.4092
 2459TIP3    H128792   2.084   5.509  11.073 -1.7384 -1.0769  0.5686
 2459TIP3    H228793   2.005   5.445  10.961 -0.2075  0.1616 -1.2928
 2460TIP3   OH228794   6.256   6.154  10.283 -0.0731 -0.0964  0.9482
 2460TIP3    H128795   6.212   6.158  10.368 -2.0643  0.9671 -0.0633
 2460TIP3    H228796   6.266   6.246  10.258  0.1178 -0.4096 -0.1401
 2461TIP3   OH228797   3.818   0.054  15.218 -0.3467  0.2515 -0.0096
 2461TIP3    H128798   3.811   0.061  15.123  0.4790  0.1587 -0.0870
 2461TIP3    H228799   3.728   0.040  15.248 -0.4633 -1.1474 -0.9088
 2462TIP3   OH228800   5.021   1.709  12.672 -0.1444 -0.4449  0.4303
 2462TIP3    H128801   4.930   1.687  12.653  0.2991 -0.9164 -1.3583
 2462TIP3    H228802   5.017   1.797  12.709 -1.2959 -0.2293 -0.1459
 2463TIP3   OH228803   2.645   2.503  10.720  0.6889  0.2815  0.0483
 2463TIP3    H128804   2.599   2.419  10.720  0.6627  0.2965 -0.3094
 2463TIP3    H228805   2.709   2.495  10.649  1.7006  0.0061  0.9590
 2464TIP3   OH228806   1.966   5.104   3.175  0.1442 -0.0615 -0.2175
 2464TIP3    H128807   1.901   5.146   3.118 -0.4857  0.6338  0.9802
 2464TIP3    H228808   1.999   5.174   3.229 -1.1613 -1.0896  2.0687
 2465TIP3   OH228809   0.808   3.402  14.346 -0.1262  0.1688 -0.2460
 2465TIP3    H128810   0.835   3.487  14.311 -0.8779  0.6531  0.3273
 2465TIP3    H228811   0.713   3.401  14.338 -0.1141 -0.6881 -0.3880
 2466TIP3   OH228812   0.504   0.785  12.851  0.1224 -0.6253 -0.3604
 2466TIP3    H128813   0.462   0.741  12.777  2.4562 -4.0932  0.1865
 2466TIP3    H228814   0.457   0.753  12.928  0.5112 -0.4496 -0.0478
 2467TIP3   OH228815   5.594   1.374  13.021 -0.6225 -0.5523 -0.2147
 2467TIP3    H128816   5.665   1.434  13.045  0.2929 -1.4185 -0.6812
 2467TIP3    H228817   5.517   1.430  13.016  0.4198  0.8628 -1.9282
 2468TIP3   OH228818   4.986   3.963   4.180 -0.0008 -0.1278  0.4092
 2468TIP3    H128819   5.048   3.892   4.199  1.2842  0.8782  0.1641
 2468TIP3    H228820   4.977   4.010   4.263  0.4083  0.3512  0.1887
 2469TIP3   OH228821   2.154   2.604  16.619 -0.1597 -0.1402 -0.1439
 2469TIP3    H128822   2.177   2.637  16.532  0.4037 -2.8393 -1.0882
 2469TIP3    H228823   2.059   2.595  16.617 -0.0157 -1.7699 -1.1372
 2470TIP3   OH228824   6.375   6.143   2.727  0.0888  0.4036  0.2024
 2470TIP3    H128825   6.398   6.101   2.644  0.5050 -0.2130  0.6139
 2470TIP3    H228826   6.391   6.236   2.712  0.2985  0.2820 -0.3669
 2471TIP3   OH228827   0.423   6.321   0.784 -0.1833 -0.7057  0.0871
 2471TIP3    H128828   0.495   6.283   0.834 -0.7327  0.2471  1.7115
 2471TIP3    H228829   0.463   6.356   0.705  1.0701 -0.5134  0.7900
 2472TIP3   OH228830   5.990   4.508  11.659 -0.6897  0.5394  0.2711
 2472TIP3    H128831   5.927   4.564  11.705  0.3873  1.0597  1.1410
 2472TIP3    H228832   6.054   4.484  11.725  0.8944  1.2785 -0.9436
 2473TIP3   OH228833   1.520   2.418  13.860  0.1640 -0.7091  0.2393
 2473TIP3    H128834   1.430   2.445  13.878  0.2063 -0.3761 -0.0331
 2473TIP3    H228835   1.531   2.337  13.908  0.2978  0.1866  1.7898
 2474TIP3   OH228836   3.559   4.126  14.096 -0.3227  1.0071  0.1192
 2474TIP3    H128837   3.588   4.081  14.018 -1.5058  2.1796 -1.0491
 2474TIP3    H228838   3.463   4.126  14.090 -0.4618  0.7656  1.7823
 2475TIP3   OH228839   2.898   5.467   6.150  0.2011  0.0818 -0.0449
 2475TIP3    H128840   2.912   5.539   6.211  0.5456 -0.0037 -0.0170
 2475TIP3    H228841   2.866   5.508   6.070  1.5262  0.4028 -0.4330
 2476TIP3   OH228842   0.027   3.891  11.643 -0.0364  0.4444 -0.5596
 2476TIP3    H128843   0.079   3.944  11.582  0.6425 -0.8425 -1.1577
 2476TIP3    H228844   0.054   3.920  11.730 -0.2415  1.5786 -0.8519
 2477TIP3   OH228845   0.177   4.998   2.912  0.0897  0.6067 -0.7298
 2477TIP3    H128846   0.095   4.967   2.875  0.0596  0.0719 -0.2340
 2477TIP3    H228847   0.158   5.087   2.942  0.3704  1.4227 -2.8115
 2478TIP3   OH228848   0.352   0.851  16.199 -0.0772  0.1960  0.1834
 2478TIP3    H128849   0.261   0.873  16.176 -0.1726 -0.5480 -0.1648
 2478TIP3    H228850   0.393   0.936  16.213 -0.6996  0.5669 -0.1564
 2479TIP3   OH228851   5.340   3.146   1.426 -0.2535  0.8565 -0.1286
 2479TIP3    H128852   5.316   3.054   1.437  0.4479  0.4572 -1.5733
 2479TIP3    H228853   5.277   3.179   1.361  1.3357  0.5007 -1.9676
 2480TIP3   OH228854   2.053   1.174   5.730 -0.4754  0.5559 -0.2599
 2480TIP3    H128855   2.119   1.212   5.673 -0.7764 -1.2019 -1.8731
 2480TIP3    H228856   2.098   1.164   5.814  1.5652 -1.1049 -1.4513
 2481TIP3   OH228857   4.930   1.358  13.999 -0.2696 -0.7162  0.4783
 2481TIP3    H128858   4.892   1.271  14.010 -0.4779 -0.5888  0.7909
 2481TIP3    H228859   4.963   1.359  13.909  0.3109 -1.3387  0.6764
 2482TIP3   OH228860   1.709   4.153   2.141  0.0195  0.1275  0.1191
 2482TIP3    H128861   1.635   4.205   2.173  1.4145  1.2641  1.7159
 2482TIP3    H228862   1.783   4.185   2.192  1.5891 -1.0807 -1.3221
 2483TIP3   OH228863   2.367   6.269  14.022  0.2886  0.2294 -0.3438
 2483TIP3    H128864   2.364   6.255  14.117  1.0922  1.3102 -0.1456
 2483TIP3    H228865   2.326   6.190  13.986  2.6528 -1.6782  0.7962
 2484TIP3   OH228866   6.036   2.055   0.192  0.5461 -0.4122  0.1544
 2484TIP3    H128867   5.949   2.040   0.154  1.2291 -2.1434 -0.8679
 2484TIP3    H228868   6.031   2.013   0.278  0.5541 -1.1840 -0.2039
 2485TIP3   OH228869   3.299   1.504   5.049 -0.3723 -0.3639  0.1656
 2485TIP3    H128870   3.341   1.521   4.964 -2.8267  1.5961 -0.7751
 2485TIP3    H228871   3.269   1.414   5.044 -1.2705 -0.0080 -1.4532
 2486TIP3   OH228872   3.751   0.828   4.879 -0.0836  0.4642  0.3053
 2486TIP3    H128873   3.777   0.864   4.964  0.2287 -0.5957  0.6652
 2486TIP3    H228874   3.820   0.856   4.819  1.7806 -1.9373  1.1593
 2487TIP3   OH228875   6.172   0.004  12.378  0.1193  0.6932 -0.3443
 2487TIP3    H128876   6.208   0.093  12.383  0.5645  0.6769 -2.4100
 2487TIP3    H228877   6.081   0.014  12.408  0.2938  1.7541 -0.1199
 2488TIP3   OH228878   4.367   4.160   3.286 -0.3707  0.8756 -0.2402
 2488TIP3    H128879   4.363   4.089   3.351 -0.1020  2.4801  1.6295
 2488TIP3    H228880   4.286   4.209   3.299  0.3398  2.0426 -0.1077
 2489TIP3   OH228881   6.537   4.687   0.156 -0.3745 -0.3530 -0.2332
 2489TIP3    H128882   6.503   4.614   0.104 -1.4505 -0.4431  0.5636
 2489TIP3    H228883   6.500   4.765   0.114 -1.8963 -0.4661  0.8111
 2490TIP3   OH228884   1.571   6.426  12.210  0.0004 -0.0121 -0.0841
 2490TIP3    H128885   1.662   6.445  12.234 -0.4178 -0.0956  1.7713
 2490TIP3    H228886   1.575   6.338  12.172  0.6533 -0.2541  0.5005
 2491TIP3   OH228887   5.746   6.770   3.230  0.5346  0.1689  0.3343
 2491TIP3    H128888   5.721   6.726   3.149  1.0238 -0.7059  0.6464
 2491TIP3    H228889   5.762   6.860   3.205  0.0213  0.0558 -0.4184
 2492TIP3   OH228890   3.705   5.458  12.243  0.2169  0.0349 -0.3041
 2492TIP3    H128891   3.668   5.452  12.155 -0.0080 -1.0605 -0.1484
 2492TIP3    H228892   3.639   5.417  12.299 -0.0361  1.4738  0.5048
 2493TIP3   OH228893   3.900   0.167  14.670  0.5788 -0.4051  0.2308
 2493TIP3    H128894   3.861   0.140  14.586 -1.1098  0.6867  0.6215
 2493TIP3    H228895   3.915   0.261  14.660 -2.2320  0.3560  2.0335
 2494TIP3   OH228896   0.719   2.391   5.994  0.2851 -0.8501 -0.0327
 2494TIP3    H128897   0.777   2.353   5.928  0.9648  0.3702 -0.1688
 2494TIP3    H228898   0.722   2.329   6.067  4.2117  0.5296  1.2360
 2495TIP3   OH228899   5.595   1.980  15.862  0.4319 -0.4559 -0.3105
 2495TIP3    H128900   5.509   1.957  15.827 -0.3170  1.4322  0.1859
 2495TIP3    H228901   5.657   1.952  15.794 -0.6350 -0.9237 -1.1193
 2496TIP3   OH228902   1.624   2.161  13.389 -0.0167  0.7766  0.4952
 2496TIP3    H128903   1.698   2.209  13.354 -1.1115  3.3090  1.4505
 2496TIP3    H228904   1.630   2.172  13.484 -1.2568  0.4707  0.6376
 2497TIP3   OH228905   0.308   1.894   3.382 -0.0405  0.1787 -0.0947
 2497TIP3    H128906   0.277   1.956   3.317 -1.0009 -0.4545 -0.2719
 2497TIP3    H228907   0.258   1.915   3.461 -0.0635 -0.0864 -0.0365
 2498TIP3   OH228908   0.423   2.379   2.382 -0.2546 -0.1900  0.5046
 2498TIP3    H128909   0.491   2.391   2.448  0.1872 -1.7665  0.3680
 2498TIP3    H228910   0.418   2.284   2.370 -2.3100 -0.0963  0.3243
 2499TIP3   OH228911   0.257   6.187   1.186  0.2160 -0.7749  0.5046
 2499TIP3    H128912   0.167   6.221   1.186  0.2888 -0.4018  2.7722
 2499TIP3    H228913   0.312   6.265   1.182  0.4127 -0.8600  1.4114
 2500TIP3   OH228914   2.126   4.560  11.942  0.0927 -0.5148 -0.3837
 2500TIP3    H128915   2.119   4.655  11.930  1.0481 -0.6360 -2.2550
 2500TIP3    H228916   2.096   4.545  12.032  1.1175  1.7017  0.4029
 2501TIP3   OH228917   0.660   1.748  12.931 -0.5490 -0.2702 -0.1989
 2501TIP3    H128918   0.586   1.768  12.989  0.0159 -0.3182  0.5492
 2501TIP3    H228919   0.658   1.819  12.866 -1.2716 -0.2901 -0.2062
 2502TIP3   OH228920   1.401   3.210   1.237 -0.1840 -0.1626  0.0978
 2502TIP3    H128921   1.455   3.289   1.243 -0.6583  0.0715  2.5513
 2502TIP3    H228922   1.315   3.241   1.210 -0.4622  0.2721  1.3899
 2503TIP3   OH228923   5.810   1.413   2.998 -0.3939 -0.6964 -0.5798
 2503TIP3    H128924   5.821   1.508   3.001  1.5759 -0.7829 -2.1805
 2503TIP3    H228925   5.774   1.396   2.911 -1.9689 -1.3798  0.1646
 2504TIP3   OH228926   5.430   5.892  11.137 -0.2084  0.3508 -0.2817
 2504TIP3    H128927   5.396   5.956  11.199  1.1482 -0.1349  1.0356
 2504TIP3    H228928   5.493   5.940  11.085 -0.1620  0.4027 -0.1786
 2505TIP3   OH228929   5.619   1.095  10.925  0.0610  0.0661 -0.0068
 2505TIP3    H128930   5.607   1.189  10.940  0.5747 -0.0004  0.9100
 2505TIP3    H228931   5.531   1.063  10.902 -0.3016  0.6236  0.5549
 2506TIP3   OH228932   1.392   1.152   5.824  0.2327 -0.6761 -0.7465
 2506TIP3    H128933   1.336   1.143   5.746 -1.8515  0.3640  0.5309
 2506TIP3    H228934   1.336   1.196   5.888  2.6098  0.5225  0.6188
 2507TIP3   OH228935   3.608   2.446   0.800 -0.6777  0.2421 -0.1257
 2507TIP3    H128936   3.632   2.404   0.883  0.3159  0.8717 -0.0633
 2507TIP3    H228937   3.660   2.400   0.734  0.5510  1.4193 -0.0326
 2508TIP3   OH228938   4.734   2.431   2.875  0.1513 -0.1789 -0.8194
 2508TIP3    H128939   4.724   2.496   2.944  3.0088 -0.3147 -0.1338
 2508TIP3    H228940   4.661   2.370   2.889 -1.2888  1.6154 -0.0881
 2509TIP3   OH228941   0.779   0.599   0.465  0.4062 -0.7134 -0.1072
 2509TIP3    H128942   0.794   0.679   0.414 -1.6706 -0.4399 -0.3855
 2509TIP3    H228943   0.757   0.631   0.553  2.8649 -1.1514  0.7536
 2510TIP3   OH228944   4.256   4.719  13.447  0.2845  0.0835  0.1471
 2510TIP3    H128945   4.172   4.764  13.456 -2.2917 -4.0102 -0.6807
 2510TIP3    H228946   4.283   4.737  13.357 -1.3385 -0.8681 -0.5740
 2511TIP3   OH228947   5.802   5.276   5.181 -0.4152 -0.4568  0.5595
 2511TIP3    H128948   5.876   5.326   5.214 -0.2669 -0.6297  0.4892
 2511TIP3    H228949   5.837   5.227   5.106 -1.2702  1.7003 -1.3655
 2512TIP3   OH228950   3.975   2.949  11.622 -0.0774  0.2662 -0.6070
 2512TIP3    H128951   3.920   3.010  11.572 -0.1407  0.3259 -0.4659
 2512TIP3    H228952   3.919   2.921  11.694 -0.5405 -1.0440 -1.4535
 2513TIP3   OH228953   5.557   2.993  15.620  0.3620  0.3632 -0.3625
 2513TIP3    H128954   5.505   2.926  15.577 -0.5634  0.2878  0.8321
 2513TIP3    H228955   5.635   3.002  15.565  0.7086 -1.9666 -0.3263
 2514TIP3   OH228956   1.787   0.694   0.729  0.2044  0.2138  0.0067
 2514TIP3    H128957   1.741   0.773   0.758 -2.1685 -0.4376 -1.6909
 2514TIP3    H228958   1.722   0.646   0.678  2.5267 -1.2906 -1.7151
 2515TIP3   OH228959   4.089   5.966  15.833  0.5780 -0.0389  0.1205
 2515TIP3    H128960   4.086   6.004  15.745 -1.9919 -0.3502 -0.0165
 2515TIP3    H228961   4.135   6.031  15.886  0.3415  1.1273 -1.0469
 2516TIP3   OH228962   6.250   3.730   0.319 -0.1421  0.0437  0.3727
 2516TIP3    H128963   6.332   3.702   0.279 -0.0937  0.3877  0.2211
 2516TIP3    H228964   6.184   3.718   0.251 -0.4457 -1.4199  0.9022
 2517TIP3   OH228965   6.267   1.776  16.527  0.0061  0.3609  0.2314
 2517TIP3    H128966   6.245   1.864  16.495  0.0609  0.6586  0.9853
 2517TIP3    H228967   6.273   1.723  16.448 -3.2149  0.2798 -0.1242
 2518TIP3   OH228968   1.685   3.044  12.000  0.0537  0.0164  0.2288
 2518TIP3    H128969   1.697   2.949  11.992 -0.1464  0.0698 -0.8644
 2518TIP3    H228970   1.637   3.068  11.921  2.0023  1.3468 -0.6070
 2519TIP3   OH228971   6.545   0.147  11.756  0.4861 -0.6654 -0.4720
 2519TIP3    H128972   6.546   0.156  11.852 -1.9618 -1.0049 -0.3525
 2519TIP3    H228973   6.545   0.237  11.724  0.3491 -0.5367 -0.1199
 2520TIP3   OH228974   2.984   2.362   3.003 -0.5995 -0.1339  0.1105
 2520TIP3    H128975   2.962   2.270   3.019  0.3100 -0.3910 -0.0505
 2520TIP3    H228976   2.916   2.394   2.944 -1.3972 -0.4645  0.8356
 2521TIP3   OH228977   1.528   0.506   2.111  0.5107 -0.2974 -0.1400
 2521TIP3    H128978   1.445   0.504   2.062  0.3127 -0.1065  0.1827
 2521TIP3    H228979   1.595   0.520   2.044  0.2629 -0.2731 -0.3848
 2522TIP3   OH228980   0.628   1.727  10.555  0.0146 -0.1705  0.7363
 2522TIP3    H128981   0.692   1.661  10.527 -1.2554 -0.6459 -1.2977
 2522TIP3    H228982   0.566   1.732  10.482 -1.9965  0.6231  2.3960
 2523TIP3   OH228983   2.947   4.850  16.264 -0.3865 -0.0890  0.0018
 2523TIP3    H128984   2.958   4.789  16.191 -1.2062 -1.3049  0.8460
 2523TIP3    H228985   2.895   4.922  16.228  0.7534  0.2352 -1.0631
 2524TIP3   OH228986   1.618   6.576  12.643 -0.4486 -0.2101 -0.3530
 2524TIP3    H128987   1.714   6.579  12.637 -0.3769 -1.8115 -0.4164
 2524TIP3    H228988   1.588   6.610  12.559  0.0996 -1.0569 -0.9027
 2525TIP3   OH228989   5.889   3.933  16.721  0.2387  0.2435  0.8999
 2525TIP3    H128990   5.935   4.003  16.766  0.1999  1.2723 -0.5965
 2525TIP3    H228991   5.803   3.930  16.763  0.4015  0.7852  1.2787
 2526TIP3   OH228992   1.217   6.220  13.434 -0.0463 -0.0927  0.6237
 2526TIP3    H128993   1.282   6.150  13.445  0.7792  0.8029  1.5659
 2526TIP3    H228994   1.151   6.202  13.501 -0.6984 -0.8877 -0.2033
 2527TIP3   OH228995   5.991   4.701  16.920 -0.6019 -0.2039  0.1968
 2527TIP3    H128996   5.972   4.794  16.907 -2.4153 -0.5127  0.3930
 2527TIP3    H228997   6.062   4.682  16.858  0.2316  1.4257  0.5941
 2528TIP3   OH228998   4.275   3.003  13.395  0.3076 -0.5845 -0.3647
 2528TIP3    H128999   4.181   3.021  13.395  0.5990  1.4659 -2.4296
 2528TIP3    H229000   4.292   2.962  13.480 -2.7199 -2.8340 -0.6918
 2529TIP3   OH229001   4.569   5.418   1.217 -0.0489 -0.6318 -0.2455
 2529TIP3    H129002   4.555   5.488   1.155  0.6437  0.9708  1.3210
 2529TIP3    H229003   4.634   5.452   1.278 -1.5835 -1.6215  2.0968
 2530TIP3   OH229004   6.037   3.576   1.807 -0.0400 -0.2634 -0.4958
 2530TIP3    H129005   6.124   3.549   1.778  0.4646 -0.3842  1.0209
 2530TIP3    H229006   5.981   3.565   1.730  1.3885  0.3958 -1.6777
 2531TIP3   OH229007   2.400   2.774   4.382  0.0275  0.3967 -0.1874
 2531TIP3    H129008   2.454   2.744   4.310 -0.8114 -1.1550 -0.2141
 2531TIP3    H229009   2.330   2.825   4.340 -1.2375 -1.6266 -0.6771
 2532TIP3   OH229010   0.057   6.490   3.093 -0.0554 -0.0530  0.5224
 2532TIP3    H129011  -0.000   6.546   3.041 -1.0567 -1.8924 -0.4257
 2532TIP3    H229012   0.010   6.478   3.176 -0.3147 -0.2970  0.3412
 2533TIP3   OH229013   2.325   4.005  14.114  0.9905 -0.5628 -0.1435
 2533TIP3    H129014   2.288   4.081  14.069 -2.3788 -1.2744  1.1492
 2533TIP3    H229015   2.395   4.041  14.168 -0.5703  1.6990  0.5258
 2534TIP3   OH229016   6.483   0.063  13.397  0.2068  0.4583 -0.0734
 2534TIP3    H129017   6.472   0.005  13.322 -0.1923 -0.8249  0.9387
 2534TIP3    H229018   6.576   0.085  13.396  0.6273 -1.1464  0.1549
 2535TIP3   OH229019   4.527   2.282   5.481 -0.0214 -0.7787  0.4869
 2535TIP3    H129020   4.495   2.306   5.568 -2.7100  1.4860 -0.9709
 2535TIP3    H229021   4.482   2.199   5.462  1.3539 -1.8214  1.5542
 2536TIP3   OH229022   5.282   0.020   5.850 -0.8187  0.0967 -0.3382
 2536TIP3    H129023   5.270  -0.008   5.940 -0.5385  3.2523  0.8064
 2536TIP3    H229024   5.208   0.078   5.833 -0.3274  0.3396 -1.7979
 2537TIP3   OH229025   6.631   1.149  16.118 -0.5951 -0.0151  0.5567
 2537TIP3    H129026   6.620   1.143  16.023  0.9326 -0.1034  0.3582
 2537TIP3    H229027   6.551   1.111  16.154  0.4150 -3.6704 -0.6689
 2538TIP3   OH229028   2.937   4.666   5.916 -0.3362  0.4869 -0.5182
 2538TIP3    H129029   2.900   4.743   5.958 -2.0328  0.2983 -1.5822
 2538TIP3    H229030   2.885   4.593   5.948 -0.8682  0.1942 -1.9537
 2539TIP3   OH229031   2.216   1.074   5.439  0.3953  0.4233  0.0620
 2539TIP3    H129032   2.239   1.133   5.511  3.2428  0.8199 -1.0346
 2539TIP3    H229033   2.166   1.128   5.379 -0.8166  0.4632  1.0824
 2540TIP3   OH229034   1.342   5.018   4.698  0.0112  0.1153  0.0661
 2540TIP3    H129035   1.429   5.037   4.662 -0.3221  0.0100 -0.8153
 2540TIP3    H229036   1.356   4.940   4.752  0.1710 -0.8997 -1.3861
 2541TIP3   OH229037   2.168   2.535   3.711  0.0256  0.4632  0.7329
 2541TIP3    H129038   2.189   2.619   3.670  0.6197  0.5019  1.0974
 2541TIP3    H229039   2.086   2.551   3.758  0.5150  1.0560  1.4101
 2542TIP3   OH229040   4.369   5.760  13.316  0.2781  0.3573  0.1754
 2542TIP3    H129041   4.337   5.757  13.406 -0.4769  0.6520 -0.0769
 2542TIP3    H229042   4.428   5.685  13.309  1.8621  1.4058  1.4669
 2543TIP3   OH229043   2.594   3.523   3.579 -0.0138 -0.0408 -0.1508
 2543TIP3    H129044   2.524   3.545   3.516  0.8276 -2.7541 -2.2647
 2543TIP3    H229045   2.670   3.571   3.547 -0.3769  1.2730  0.9040
 2544TIP3   OH229046   3.404   4.282   5.717  0.6750 -0.1445  0.1448
 2544TIP3    H129047   3.428   4.373   5.734 -0.0866 -0.0740  0.8811
 2544TIP3    H229048   3.461   4.231   5.775  0.6962 -0.1135  0.1510
 2545TIP3   OH229049   2.747   3.570   0.244 -0.6966 -0.0008 -0.1306
 2545TIP3    H129050   2.716   3.485   0.276 -0.8431  0.2679  0.4576
 2545TIP3    H229051   2.765   3.556   0.151  0.3510 -0.9888  0.1916
 2546TIP3   OH229052   3.073   3.255  14.517  0.8304 -0.6626 -0.3002
 2546TIP3    H129053   3.157   3.210  14.523  1.4163 -0.0305 -2.6495
 2546TIP3    H229054   3.079   3.307  14.436 -1.1747  0.7603  0.3818
 2547TIP3   OH229055   3.278   2.165  13.885  0.2739 -0.4055 -0.0525
 2547TIP3    H129056   3.323   2.101  13.939  0.0351 -0.0365  0.5897
 2547TIP3    H229057   3.185   2.150  13.901  0.2202  1.6446  1.9810
 2548TIP3   OH229058   0.179   2.421   2.302  0.3271  0.3419  0.3826
 2548TIP3    H129059   0.272   2.407   2.324 -0.0736 -0.9471  1.4289
 2548TIP3    H229060   0.166   2.515   2.315  1.5089  0.5661  0.1243
 2549TIP3   OH229061   2.425   4.406  16.196 -0.2323  0.3667 -0.3304
 2549TIP3    H129062   2.397   4.449  16.115  1.1246 -0.9130 -1.5435
 2549TIP3    H229063   2.459   4.321  16.167 -0.9519 -0.7021  1.7433
 2550TIP3   OH229064   2.658   4.915   5.840  0.6269  0.2750 -0.0866
 2550TIP3    H129065   2.565   4.928   5.821  0.9031 -0.1073 -1.9300
 2550TIP3    H229066   2.703   4.974   5.779  1.6156 -0.3791 -0.0231
 2551TIP3   OH229067   5.222   0.388  11.857 -0.2179  0.2931 -0.0830
 2551TIP3    H129068   5.254   0.345  11.936 -1.5828  0.4277  0.5769
 2551TIP3    H229069   5.153   0.331  11.825  1.1651 -0.4379 -1.9575
 2552TIP3   OH229070   0.414   5.612  14.484 -0.0571  0.1427  0.5236
 2552TIP3    H129071   0.363   5.690  14.508 -0.1204  1.2558 -2.7039
 2552TIP3    H229072   0.489   5.613  14.544 -1.5802  0.8979  2.5528
 2553TIP3   OH229073   3.871   6.298   1.357  0.2865  0.0604 -0.3060
 2553TIP3    H129074   3.812   6.374   1.357 -0.5891 -0.6051 -0.4277
 2553TIP3    H229075   3.958   6.336   1.346 -0.3164  0.9203 -2.7461
 2554TIP3   OH229076   3.940   2.904  14.800 -0.2170  0.0531 -0.1353
 2554TIP3    H129077   3.865   2.944  14.844 -0.7847  0.6949 -1.6298
 2554TIP3    H229078   4.016   2.942  14.844 -0.7277 -0.4917  1.2999
 2555TIP3   OH229079   5.610   6.137  17.081 -0.1554  0.1298  0.1161
 2555TIP3    H129080   5.521   6.104  17.091  0.2345 -1.3399 -0.9003
 2555TIP3    H229081   5.615   6.168  16.991  0.3782  0.1404  0.1439
 2556TIP3   OH229082   5.445   0.771  13.965 -0.5310 -0.0513 -0.4347
 2556TIP3    H129083   5.501   0.710  14.012 -1.1150 -0.6391 -0.4752
 2556TIP3    H229084   5.471   0.858  13.996  0.5706 -0.2927 -0.6517
 2557TIP3   OH229085   3.779   3.412   0.638  0.3539 -0.4203  0.0221
 2557TIP3    H129086   3.746   3.466   0.710  0.7542  1.2896 -1.0325
 2557TIP3    H229087   3.712   3.345   0.626 -0.9473  0.7648  0.3751
 2558TIP3   OH229088   3.186   0.820  15.665 -0.1974 -0.0232  0.1846
 2558TIP3    H129089   3.271   0.819  15.708 -0.9564 -0.2206  1.7418
 2558TIP3    H229090   3.162   0.913  15.660  0.1202  0.0347 -0.2876
 2559TIP3   OH229091   0.855   3.526   2.190 -0.6662  0.1845 -0.0883
 2559TIP3    H129092   0.814   3.450   2.149  1.5486 -0.7531 -0.6492
 2559TIP3    H229093   0.864   3.502   2.282 -1.5758  0.5273  0.1108
 2560TIP3   OH229094   1.001   1.343  16.096 -0.0654  0.0166 -0.3667
 2560TIP3    H129095   0.924   1.288  16.111 -0.0533 -0.1810 -0.9877
 2560TIP3    H229096   0.989   1.418  16.153  0.8684 -1.5121  2.0096
 2561TIP3   OH229097   0.726   6.218   1.488  0.1336  0.3119 -0.5234
 2561TIP3    H129098   0.785   6.154   1.529 -0.3549  0.0993 -0.1398
 2561TIP3    H229099   0.767   6.303   1.506 -0.3082  0.2619  0.8264
 2562TIP3   OH229100   6.399   1.973   3.104  0.1435 -0.2151 -0.5118
 2562TIP3    H129101   6.437   2.008   3.024 -0.4028 -0.8794 -1.0838
 2562TIP3    H229102   6.314   1.938   3.077 -0.1032 -0.3444  0.3800
 2563TIP3   OH229103   4.464   4.756  13.649 -0.0366  0.1800  0.2139
 2563TIP3    H129104   4.415   4.835  13.672 -1.0280 -0.1838 -0.5367
 2563TIP3    H229105   4.413   4.717  13.577 -0.2689 -1.7762  1.3706
 2564TIP3   OH229106   1.891   0.012   1.330 -0.1128 -0.0517  0.0858
 2564TIP3    H129107   1.894  -0.032   1.245 -0.2430 -0.7418  0.4374
 2564TIP3    H229108   1.868   0.103   1.309 -1.0744 -0.4264 -0.5436
 2565TIP3   OH229109   5.785   0.351  13.447 -0.3593 -0.0982 -0.0652
 2565TIP3    H129110   5.794   0.267  13.492  0.8936  0.5651  0.9651
 2565TIP3    H229111   5.743   0.329  13.364 -1.6081 -1.5160  0.8915
 2566TIP3   OH229112   1.480   5.108  16.949  0.4735  0.2558 -0.0902
 2566TIP3    H129113   1.390   5.084  16.972  0.3680  0.0913 -0.6462
 2566TIP3    H229114   1.500   5.183  17.004  0.3568 -0.3243  0.7680
 2567TIP3   OH229115   1.311   2.655   5.159 -0.1879  0.2482  0.0567
 2567TIP3    H129116   1.217   2.649   5.145 -0.4771  0.7615  1.5575
 2567TIP3    H229117   1.349   2.592   5.098 -1.3213  1.6412 -2.2116
 2568TIP3   OH229118   4.131   2.298   0.761 -0.7701  0.5345  0.5513
 2568TIP3    H129119   4.046   2.254   0.757 -0.3179 -0.2762 -0.9826
 2568TIP3    H229120   4.163   2.297   0.671  0.8684  0.8303  1.0891
 2569TIP3   OH229121   1.916   0.673  16.684 -0.3250 -0.3770 -0.3604
 2569TIP3    H129122   1.988   0.731  16.711 -0.0853 -0.4375 -0.8537
 2569TIP3    H229123   1.842   0.732  16.674 -0.2244 -0.2398 -0.3143
 2570TIP3   OH229124   4.832   4.328  13.031  0.0971  0.4729 -0.0299
 2570TIP3    H129125   4.867   4.250  12.988 -0.7262  0.0771  0.0033
 2570TIP3    H229126   4.798   4.296  13.114 -0.4113  0.8345 -0.0963
 2571TIP3   OH229127   4.525   1.002   6.469  0.1830  0.0215  0.3919
 2571TIP3    H129128   4.553   0.928   6.524  1.7795 -1.4174 -2.1482
 2571TIP3    H229129   4.448   0.970   6.423  1.4630 -0.5723 -1.4799
 2572TIP3   OH229130   3.503   2.164  12.988 -0.4223 -0.3116  0.6615
 2572TIP3    H129131   3.519   2.070  12.977 -1.6223 -0.7040  2.0353
 2572TIP3    H229132   3.507   2.199  12.899  0.0045 -1.6638  0.1218
 2573TIP3   OH229133   6.220   3.469   4.101 -0.0349  0.2078  0.0504
 2573TIP3    H129134   6.161   3.534   4.061 -0.0563  1.2219  1.6371
 2573TIP3    H229135   6.308   3.499   4.078 -0.0435  0.8579  0.7951
 2574TIP3   OH229136   5.352   6.193   2.914  0.1967 -0.3816  0.4701
 2574TIP3    H129137   5.426   6.133   2.923  0.6532 -0.0864 -0.9266
 2574TIP3    H229138   5.372   6.265   2.974  1.5410  0.1194 -0.5143
 2575TIP3   OH229139   1.979   5.770  15.673  0.2807 -0.0056 -0.0747
 2575TIP3    H129140   1.889   5.770  15.706 -0.0208  1.1598 -0.8687
 2575TIP3    H229141   1.998   5.677  15.657 -0.3888 -0.3662  1.1078
 2576TIP3   OH229142   5.705   6.618   2.976 -0.6055 -0.0138 -0.0209
 2576TIP3    H129143   5.773   6.664   2.926 -0.4278  0.9453  1.0557
 2576TIP3    H229144   5.667   6.556   2.914 -0.6295  1.3667 -1.4377
 2577TIP3   OH229145   5.096   1.087   4.149  0.1712  0.3113 -0.1883
 2577TIP3    H129146   5.170   1.094   4.210 -0.5878  0.0318  0.8066
 2577TIP3    H229147   5.135   1.059   4.067  1.2759  1.0177  0.0760
 2578TIP3   OH229148   5.803   3.800  12.394 -0.1156  0.7331 -0.0540
 2578TIP3    H129149   5.803   3.705  12.401 -0.7101  0.7091 -0.2855
 2578TIP3    H229150   5.867   3.820  12.326  0.9279  0.5817  0.8509
 2579TIP3   OH229151   3.854   4.731   5.735 -0.1930 -0.3171 -0.7902
 2579TIP3    H129152   3.942   4.766   5.749  0.0131 -1.1868  0.1957
 2579TIP3    H229153   3.865   4.668   5.664 -0.0860 -0.1965 -0.8811
 2580TIP3   OH229154   4.187   1.726  11.936 -0.1165  0.1479  0.2766
 2580TIP3    H129155   4.112   1.672  11.960 -0.2277  0.3021  0.2806
 2580TIP3    H229156   4.262   1.683  11.978 -0.1721 -0.1215  0.1019
 2581TIP3   OH229157   2.551   5.168  16.130 -0.0777  0.2980  0.1991
 2581TIP3    H129158   2.496   5.142  16.204  1.8092 -1.2806  1.1236
 2581TIP3    H229159   2.515   5.120  16.055 -1.8142  1.6795  0.0729
 2582TIP3   OH229160   0.836   4.778  13.774 -0.6692 -0.0409  0.2600
 2582TIP3    H129161   0.923   4.745  13.751 -0.2792 -1.4845  3.3058
 2582TIP3    H229162   0.844   4.873  13.771  0.2464 -0.1214 -1.8163
 2583TIP3   OH229163   0.692   5.975  13.749  0.3188 -0.5264  0.4693
 2583TIP3    H129164   0.654   6.013  13.670 -0.9545 -0.0525  1.2941
 2583TIP3    H229165   0.619   5.966  13.810  1.6413  1.1852  2.4290
 2584TIP3   OH229166   1.401   3.660   4.826 -0.0520  0.3304 -0.1114
 2584TIP3    H129167   1.394   3.642   4.919  1.9522  0.3341  0.0804
 2584TIP3    H229168   1.464   3.596   4.793 -1.9210 -0.7589 -1.8250
 2585TIP3   OH229169   5.393   0.848   0.438 -0.3174 -0.3296  0.1258
 2585TIP3    H129170   5.305   0.819   0.463 -0.8273  1.3073  0.3803
 2585TIP3    H229171   5.445   0.768   0.434 -1.9366 -1.3925 -0.5137
 2586TIP3   OH229172   0.849   1.018   6.662  0.2491 -0.3908 -0.3199
 2586TIP3    H129173   0.911   1.072   6.613  2.4337 -1.6298  0.9785
 2586TIP3    H229174   0.858   0.931   6.625 -0.1045 -0.7704  0.4606
 2587TIP3   OH229175   3.577   6.377  14.447  0.7339 -1.1445  0.1640
 2587TIP3    H129176   3.630   6.316  14.396 -1.5643 -2.5386 -0.6768
 2587TIP3    H229177   3.506   6.324  14.483  0.0596  0.5766  1.5362
 2588TIP3   OH229178   3.872   3.225  15.845 -0.2023  0.2082 -0.6530
 2588TIP3    H129179   3.850   3.308  15.887 -1.4621 -0.0055 -0.8519
 2588TIP3    H229180   3.913   3.173  15.914  1.3569  1.2677 -0.7331
 2589TIP3   OH229181   5.684   6.376  13.492  0.1096  0.4023  0.1720
 2589TIP3    H129182   5.676   6.380  13.588  0.1271  0.5429  0.1676
 2589TIP3    H229183   5.675   6.467  13.464  0.4175  0.3992  0.0637
 2590TIP3   OH229184   5.851   1.897  12.487 -0.3388  0.2268 -0.3319
 2590TIP3    H129185   5.915   1.841  12.532 -0.0852  0.1063 -0.8358
 2590TIP3    H229186   5.802   1.939  12.558 -1.3535 -1.5345  0.0674
 2591TIP3   OH229187   2.604   0.564   1.555  0.3765  0.2114 -0.4285
 2591TIP3    H129188   2.632   0.620   1.482  0.9850 -0.1304 -0.4668
 2591TIP3    H229189   2.685   0.525   1.587 -0.1674 -1.8030 -1.3551
 2592TIP3   OH229190   5.498   1.355   5.971 -0.4846 -0.6087  0.1843
 2592TIP3    H129191   5.437   1.387   6.037 -0.5260 -0.8303  0.2560
 2592TIP3    H229192   5.527   1.433   5.924  0.4035 -0.3139  1.2016
 2593TIP3   OH229193   4.241   6.603   5.997  0.0117  0.1636  0.0766
 2593TIP3    H129194   4.306   6.627   6.063  0.5922 -0.8620 -0.0962
 2593TIP3    H229195   4.159   6.599   6.046  0.6530 -2.1092  1.1642
 2594TIP3   OH229196   6.482   4.806  14.152  0.5666  0.1800  0.6752
 2594TIP3    H129197   6.508   4.714  14.145  0.3280  0.0719  1.1910
 2594TIP3    H229198   6.505   4.831  14.241  1.0556  0.7595  0.4025
 2595TIP3   OH229199   1.691   2.970  12.905  0.2452  0.3732  0.5531
 2595TIP3    H129200   1.784   2.973  12.880  0.4927  1.4945  1.5357
 2595TIP3    H229201   1.667   2.878  12.894  0.7385  0.4623 -2.2669
 2596TIP3   OH229202   0.026   2.774   4.346  0.0018 -0.7135  0.5878
 2596TIP3    H129203  -0.005   2.752   4.257 -1.3008  1.2766  0.4873
 2596TIP3    H229204  -0.045   2.744   4.403  0.6758 -1.6547  0.9528
 2597TIP3   OH229205   2.171   6.006  14.897  0.0616  0.1406  0.4665
 2597TIP3    H129206   2.149   6.098  14.903  0.2623  0.1185  1.5932
 2597TIP3    H229207   2.205   5.995  14.807 -0.6808  0.9857  0.0774
 2598TIP3   OH229208   5.021   1.681   2.050  0.1619  0.2309 -1.1363
 2598TIP3    H129209   4.949   1.743   2.061 -1.7916 -1.8186 -1.5561
 2598TIP3    H229210   5.035   1.676   1.956 -0.0704 -0.3252 -1.1481
 2599TIP3   OH229211   5.890   4.532  16.391 -0.1063  0.6974  0.0344
 2599TIP3    H129212   5.945   4.478  16.447 -0.7031  0.5074  0.4593
 2599TIP3    H229213   5.854   4.471  16.326  1.8072  1.1883 -1.5701
 2600TIP3   OH229214   5.000   6.469   2.492 -0.9340 -0.2185  0.1037
 2600TIP3    H129215   5.055   6.461   2.414  0.6235 -1.6223  1.2790
 2600TIP3    H229216   4.918   6.426   2.468 -0.3697 -0.8883 -0.6693
 2601TIP3   OH229217   4.666   1.280   6.484 -0.2784  0.3237  0.7717
 2601TIP3    H129218   4.636   1.195   6.454 -1.6700  1.2049 -0.4587
 2601TIP3    H229219   4.597   1.311   6.543 -0.3862  1.0979  0.2573
 2602TIP3   OH229220   0.014   4.913  12.355  0.4349  0.4355  0.4308
 2602TIP3    H129221  -0.071   4.916  12.400 -0.4547  0.2203 -1.1376
 2602TIP3    H229222   0.057   4.835  12.390 -1.9483 -2.1383 -1.8980
 2603TIP3   OH229223   1.443   3.587  12.604 -0.2397 -0.3154 -0.0995
 2603TIP3    H129224   1.389   3.663  12.624 -0.2683 -0.3826  0.0762
 2603TIP3    H229225   1.486   3.610  12.521 -1.5931 -0.8185 -0.9809
 2604TIP3   OH229226   0.932   0.329  11.127 -0.2295 -0.2739  0.0436
 2604TIP3    H129227   0.854   0.288  11.089 -0.7544  0.2922  0.4842
 2604TIP3    H229228   0.948   0.405  11.070 -2.5319  2.0912  2.2617
 2605TIP3   OH229229   1.319   6.111   1.336  0.2065 -0.1825 -0.6630
 2605TIP3    H129230   1.299   6.106   1.242  1.4272  0.4152 -0.9823
 2605TIP3    H229231   1.410   6.142   1.339 -0.3444  1.4408  0.7522
 2606TIP3   OH229232   6.649   6.017  15.877  0.1590  0.4179 -0.5752
 2606TIP3    H129233   6.646   6.112  15.882  1.6103  0.4529  0.3699
 2606TIP3    H229234   6.643   5.988  15.969 -2.0208 -0.5081 -0.9490
 2607TIP3   OH229235   1.529   5.971   5.758  0.4130 -0.0727 -0.4451
 2607TIP3    H129236   1.496   5.918   5.830 -0.7201  0.7167 -0.3504
 2607TIP3    H229237   1.496   5.927   5.679 -2.2837  1.5107 -0.3166
 2608TIP3   OH229238   0.553   6.569   0.139  0.7166  0.1198  0.2925
 2608TIP3    H129239   0.476   6.623   0.122 -0.2371 -0.5376  2.3060
 2608TIP3    H229240   0.555   6.507   0.066 -0.6902  0.1227  0.2294
 2609TIP3   OH229241   0.317   4.840   0.858  0.3895 -0.0545 -0.0576
 2609TIP3    H129242   0.385   4.862   0.922 -0.1708  0.1391  0.4842
 2609TIP3    H229243   0.259   4.779   0.904  0.2391 -0.2823 -0.5390
 2610TIP3   OH229244   5.664   6.384   5.754  0.2767  0.5813 -0.2545
 2610TIP3    H129245   5.606   6.448   5.713 -0.3779  0.5343  0.5611
 2610TIP3    H229246   5.608   6.337   5.816  0.5667 -1.2594 -1.3104
 2611TIP3   OH229247   6.297   4.015  15.879  0.1121  0.5831  0.5612
 2611TIP3    H129248   6.205   4.001  15.904  0.9515 -0.1749  3.5805
 2611TIP3    H229249   6.324   4.090  15.932  0.9642  1.5848 -1.2110
 2612TIP3   OH229250   3.949   2.581   1.372 -0.1814 -0.0251  0.4771
 2612TIP3    H129251   3.985   2.645   1.433  0.7208  0.1451 -0.2082
 2612TIP3    H229252   3.972   2.615   1.285 -1.2274 -0.3805  0.0408
 2613TIP3   OH229253   0.251   4.784  17.206  0.3125  0.1847 -0.0114
 2613TIP3    H129254   0.264   4.718  17.274  1.7148 -0.0392 -0.4629
 2613TIP3    H229255   0.178   4.751  17.154  0.4917 -0.6195  0.2341
 2614TIP3   OH229256   5.650   4.234  13.482  0.0522 -0.2116 -0.2293
 2614TIP3    H129257   5.701   4.231  13.563 -0.2535 -0.6658 -0.0514
 2614TIP3    H229258   5.675   4.317  13.441 -0.4158  0.4169  0.7397
 2615TIP3   OH229259   1.783   5.385   2.323  0.3018 -0.2426  0.1385
 2615TIP3    H129260   1.854   5.383   2.258 -0.3061 -0.6371 -0.5296
 2615TIP3    H229261   1.812   5.323   2.391  1.3403  0.8163  0.6953
 2616TIP3   OH229262   4.062   0.165  15.308 -0.3880 -0.4673 -0.1290
 2616TIP3    H129263   3.976   0.133  15.279  0.5368 -1.4106 -1.9886
 2616TIP3    H229264   4.100   0.091  15.356 -0.0861 -0.5301 -0.4621
 2617TIP3   OH229265   6.449   5.426  15.132  0.4212  0.2291  0.3106
 2617TIP3    H129266   6.525   5.440  15.188  0.2266 -2.5033  1.3803
 2617TIP3    H229267   6.379   5.475  15.174  0.3369 -1.5679  2.4118
 2618TIP3   OH229268   5.542   0.779  14.749 -0.1182  0.0057 -0.0618
 2618TIP3    H129269   5.452   0.770  14.716 -0.0648 -1.2740  0.0608
 2618TIP3    H229270   5.534   0.841  14.822 -1.0615 -0.6507  0.4297
 2619TIP3   OH229271   5.739   1.979   3.247 -0.3431  0.4684  0.5142
 2619TIP3    H129272   5.719   1.948   3.336  0.0729 -3.8758 -0.6446
 2619TIP3    H229273   5.678   1.931   3.191  1.2007  0.9770 -1.7433
 2620TIP3   OH229274   6.391   4.348   4.071 -0.2383  0.3698 -0.0273
 2620TIP3    H129275   6.402   4.260   4.107  2.0185  0.4260 -0.4747
 2620TIP3    H229276   6.405   4.406   4.145 -3.0446  0.4252  0.5826
 2621TIP3   OH229277   1.857   0.762  12.223  0.1338  0.9898  0.2617
 2621TIP3    H129278   1.841   0.718  12.140 -0.4325  3.8307 -1.2632
 2621TIP3    H229279   1.769   0.785  12.255  0.2624 -1.0377  2.2989
 2622TIP3   OH229280   0.307   2.785   4.457 -0.0327 -0.3289 -0.0538
 2622TIP3    H129281   0.213   2.778   4.438  0.1521  0.3850 -1.3617
 2622TIP3    H229282   0.317   2.873   4.492  0.0568 -0.6595  0.7732
 2623TIP3   OH229283   2.880   6.195   4.108  0.1512 -0.2921 -0.0040
 2623TIP3    H129284   2.818   6.123   4.115 -2.2685  1.3700 -2.4552
 2623TIP3    H229285   2.827   6.270   4.083  3.0370  1.4729 -1.3712
 2624TIP3   OH229286   3.805   4.670  12.253  0.2291  0.2538 -0.2016
 2624TIP3    H129287   3.758   4.746  12.285  0.1581 -0.4309  1.3894
 2624TIP3    H229288   3.863   4.705  12.184  1.1727  1.9854  1.3806
 2625TIP3   OH229289   2.650   0.509  13.825 -0.0628 -0.1315 -0.4590
 2625TIP3    H129290   2.703   0.581  13.790 -0.8939  1.7231  1.8232
 2625TIP3    H229291   2.713   0.438  13.839  1.0151  0.5471 -1.6385
 2626TIP3   OH229292   6.680   6.630   1.974  0.2647  0.7661  0.0098
 2626TIP3    H129293   6.645   6.643   1.886 -0.4701  0.1373  0.1995
 2626TIP3    H229294   6.735   6.707   1.990  1.3857  0.3214 -1.4596
 2627TIP3   OH229295   1.019   3.541  15.592 -0.0821  0.1251 -0.6285
 2627TIP3    H129296   1.060   3.626  15.576  1.1751  0.4023  3.1041
 2627TIP3    H229297   0.942   3.561  15.646 -0.4937 -1.0222 -0.7623
 2628TIP3   OH229298   3.665   3.808  14.192  0.4192  0.3158 -0.6670
 2628TIP3    H129299   3.643   3.899  14.212 -0.3869 -0.0541  0.2186
 2628TIP3    H229300   3.758   3.800  14.214  0.5217  0.9389 -0.8409
 2629TIP3   OH229301   2.281   1.064   4.434 -0.4510  0.2306  0.7327
 2629TIP3    H129302   2.232   1.017   4.367 -1.1997  0.4270  1.1275
 2629TIP3    H229303   2.230   1.144   4.450  0.2623  0.6891  0.7991
 2630TIP3   OH229304   6.569   3.357   0.348 -0.3489  0.1195  0.1860
 2630TIP3    H129305   6.556   3.266   0.373 -0.3755 -0.5715 -2.0525
 2630TIP3    H229306   6.658   3.378   0.373 -0.9368  0.1320  2.4348
 2631TIP3   OH229307   6.343   2.541   3.078  0.0022 -0.2036  0.2560
 2631TIP3    H129308   6.334   2.446   3.083 -1.0849 -0.0926  0.5461
 2631TIP3    H229309   6.267   2.570   3.029  1.0719  0.4142 -1.1141
 2632TIP3   OH229310   2.629   3.800  12.811 -0.0845 -0.2122  0.0007
 2632TIP3    H129311   2.619   3.744  12.888  1.3633 -0.6868 -0.1197
 2632TIP3    H229312   2.586   3.751  12.741 -1.8210  0.4357  0.5697
 2633TIP3   OH229313   1.862   4.007  11.720  0.0930 -0.5454 -0.0561
 2633TIP3    H129314   1.844   3.951  11.795  1.2619 -1.9601 -0.7921
 2633TIP3    H229315   1.950   4.041  11.734  0.5561 -1.2835 -1.0388
 2634TIP3   OH229316   4.460   2.870  13.042 -0.1616  0.0773 -0.2178
 2634TIP3    H129317   4.468   2.783  13.002 -1.2736  0.1742 -0.6971
 2634TIP3    H229318   4.394   2.914  12.988 -1.4793  0.3395  1.5210
 2635TIP3   OH229319   3.504   2.258   4.478 -0.2666 -0.3572 -0.3232
 2635TIP3    H129320   3.504   2.283   4.386 -0.1821  1.7853  0.2168
 2635TIP3    H229321   3.436   2.191   4.485 -2.1877  1.3702 -1.4696
 2636TIP3   OH229322   5.381   0.378   4.928 -0.2204 -0.1459 -0.4587
 2636TIP3    H129323   5.436   0.301   4.913  0.4555  0.3007 -0.3421
 2636TIP3    H229324   5.441   0.442   4.967 -1.3774 -0.4921  2.0832
 2637TIP3   OH229325   1.576   4.948  13.624 -0.0581  0.0350 -0.0008
 2637TIP3    H129326   1.665   4.971  13.598 -0.0198  1.6197  1.3536
 2637TIP3    H229327   1.569   4.854  13.609  1.9349 -0.1585  0.1059
 2638TIP3   OH229328   1.133   5.862   2.945 -0.0228 -0.1754  0.4394
 2638TIP3    H129329   1.157   5.773   2.918 -1.2637 -0.0294 -1.2917
 2638TIP3    H229330   1.042   5.854   2.972 -0.6016  0.7995 -1.1003
 2639TIP3   OH229331   4.497   5.371   6.300 -0.5204 -0.2447 -0.1135
 2639TIP3    H129332   4.459   5.439   6.356 -0.6291 -0.8254  0.5344
 2639TIP3    H229333   4.487   5.405   6.211  0.8409  1.2973  0.2780
 2640TIP3   OH229334   0.759   5.047   3.083  0.3335 -0.2434 -0.0207
 2640TIP3    H129335   0.852   5.060   3.063  0.3465  0.8975  0.7448
 2640TIP3    H229336   0.728   4.989   3.013  1.4032  0.1160 -0.8208
 2641TIP3   OH229337   6.091   1.243  11.486  0.0311  0.2382  0.3030
 2641TIP3    H129338   6.002   1.257  11.520  0.2467  0.2100  0.8886
 2641TIP3    H229339   6.079   1.231  11.392 -0.5094  1.0037  0.2608
 2642TIP3   OH229340   1.589   5.046  11.996  0.2161 -0.4495 -0.6575
 2642TIP3    H129341   1.549   5.132  11.981  0.0420 -0.7186 -1.8008
 2642TIP3    H229342   1.683   5.063  11.996  0.1805 -0.2464 -0.8171
 2643TIP3   OH229343   3.973   2.968   1.311  0.1144 -0.0756 -0.4771
 2643TIP3    H129344   4.047   2.925   1.355  0.4150  1.6208  0.7973
 2643TIP3    H229345   3.998   3.061   1.307 -1.6967  0.4495 -0.5372
 2644TIP3   OH229346   0.350   2.654   5.434 -0.0433 -0.1327  0.5221
 2644TIP3    H129347   0.417   2.674   5.369 -0.3657  0.8935  0.4938
 2644TIP3    H229348   0.275   2.625   5.382  0.8799 -2.9724  0.6156
 2645TIP3   OH229349   5.631   2.269   3.268  0.5501 -0.5329 -0.6694
 2645TIP3    H129350   5.647   2.176   3.251 -1.1281 -0.6086 -2.0949
 2645TIP3    H229351   5.581   2.269   3.350 -0.3460 -1.0002 -1.1943
 2646TIP3   OH229352   0.591   0.832   2.727 -0.0397 -0.5737 -0.1891
 2646TIP3    H129353   0.561   0.919   2.754  1.7027 -0.3744  1.2482
 2646TIP3    H229354   0.627   0.845   2.639 -1.5031 -0.2703 -0.7784
 2647TIP3   OH229355   1.075   5.894   1.807  0.2953 -0.5378  0.6092
 2647TIP3    H129356   1.091   5.849   1.724  0.3098  0.2776  0.1599
 2647TIP3    H229357   1.020   5.833   1.857  0.8921 -1.3468  0.3023
 2648TIP3   OH229358   0.136   6.237   0.081  0.1225  0.6227 -0.0996
 2648TIP3    H129359   0.141   6.173   0.152 -3.0652  1.8214  1.3609
 2648TIP3    H229360   0.119   6.184   0.003  0.0655 -0.4625  0.6288
 2649TIP3   OH229361   3.371   2.955   1.361 -0.1328 -0.2948  0.2865
 2649TIP3    H129362   3.334   2.867   1.357  1.3789 -0.9687  0.4603
 2649TIP3    H229363   3.345   2.996   1.279 -0.5719 -1.0299  0.0566
 2650TIP3   OH229364   1.182   1.905  11.076 -0.5518  0.2324  0.5805
 2650TIP3    H129365   1.196   1.875  10.986 -1.2294  0.4903  0.3837
 2650TIP3    H229366   1.260   1.957  11.097 -1.1628  1.6301 -0.4720
 2651TIP3   OH229367   0.112   5.452   1.376 -0.0550 -0.6977 -0.0753
 2651TIP3    H129368   0.140   5.448   1.284 -1.1588 -1.5380 -0.3965
 2651TIP3    H229369   0.044   5.385   1.383 -0.0811 -0.5470  1.3323
 2652TIP3   OH229370   5.478   2.478  11.289  0.0754 -0.9052 -0.2419
 2652TIP3    H129371   5.442   2.410  11.345 -0.2799 -0.4686  0.0608
 2652TIP3    H229372   5.415   2.549  11.293  2.0214  0.8452  2.1647
 2653TIP3   OH229373   4.404   2.546  13.835  0.0866  0.0793 -0.1970
 2653TIP3    H129374   4.413   2.629  13.882  0.7326  0.0628 -0.2809
 2653TIP3    H229375   4.311   2.537  13.818  0.1401  1.4664 -1.3887
 2654TIP3   OH229376   1.141   1.426  16.933  0.2870  0.4971 -0.8658
 2654TIP3    H129377   1.215   1.471  16.973  0.4790  0.0902 -0.7514
 2654TIP3    H229378   1.176   1.340  16.909 -0.5123 -0.2431  0.4966
 2655TIP3   OH229379   1.237   3.994  11.932  0.2721 -0.4479 -0.3195
 2655TIP3    H129380   1.331   4.009  11.919  0.7841  0.2940  3.2387
 2655TIP3    H229381   1.231   3.902  11.958  0.1266 -0.3288  0.0802
 2656TIP3   OH229382   1.545   3.136  13.618 -0.5264 -0.5678 -0.0487
 2656TIP3    H129383   1.553   3.041  13.626  0.4769 -0.4595  0.3960
 2656TIP3    H229384   1.635   3.167  13.609 -0.9047  0.2661 -1.1710
 2657TIP3   OH229385   2.699   2.963   1.221  0.1919  0.0081  0.1451
 2657TIP3    H129386   2.717   2.888   1.278 -0.6312  1.0615  1.8473
 2657TIP3    H229387   2.768   2.960   1.155  0.0842 -2.3341  0.0552
 2658TIP3   OH229388   3.402   6.100   3.727  0.3109  0.0716  0.0916
 2658TIP3    H129389   3.402   6.160   3.802  0.5441 -1.1223  1.0633
 2658TIP3    H229390   3.381   6.157   3.653 -1.4615  1.0381  1.2433
 2659TIP3   OH229391   6.300   4.415  12.348 -0.0996 -0.0885 -0.1272
 2659TIP3    H129392   6.329   4.343  12.292 -1.3815  0.0950 -1.0753
 2659TIP3    H229393   6.371   4.480  12.343 -0.3966  0.1316 -1.9495
 2660TIP3   OH229394   4.333   4.008   2.355 -0.3552 -0.1420 -0.2671
 2660TIP3    H129395   4.317   4.035   2.264 -2.5491 -0.0351  0.0847
 2660TIP3    H229396   4.317   3.914   2.355 -2.1007  0.1068  0.2758
 2661TIP3   OH229397   1.311   5.576  14.982 -0.7095  0.5852 -0.0853
 2661TIP3    H129398   1.343   5.608  14.898 -0.9900  4.2303  1.0137
 2661TIP3    H229399   1.218   5.596  14.982 -0.9651 -0.4962  0.6536
 2662TIP3   OH229400   0.626   1.656   1.330 -0.5550  0.3413 -0.1194
 2662TIP3    H129401   0.647   1.571   1.292 -0.4484 -0.2059  1.1165
 2662TIP3    H229402   0.684   1.717   1.285  2.3327 -0.8241  1.7375
 2663TIP3   OH229403   2.410   5.706  17.014  0.3360 -0.2915 -0.5112
 2663TIP3    H129404   2.352   5.688  16.940  0.4151  0.1397 -0.6811
 2663TIP3    H229405   2.447   5.620  17.037 -1.9278 -0.9542  0.9205
 2664TIP3   OH229406   6.174   3.800  14.882 -0.1049  0.0022 -0.1629
 2664TIP3    H129407   6.125   3.876  14.912  2.3415  1.3003  0.8024
 2664TIP3    H229408   6.220   3.769  14.960  0.8702 -0.9429 -1.0790
 2665TIP3   OH229409   4.834   2.903   2.818 -0.4180 -0.6582 -0.1602
 2665TIP3    H129410   4.823   2.808   2.816 -0.1084 -0.6953 -0.0748
 2665TIP3    H229411   4.816   2.928   2.909 -1.3791 -0.5282 -0.3780
 2666TIP3   OH229412   0.023   1.651  10.549 -0.9620 -0.3563  0.2471
 2666TIP3    H129413   0.027   1.712  10.623 -1.8257 -2.4185  2.1476
 2666TIP3    H229414  -0.070   1.647  10.526 -0.7826 -0.2427 -0.5277
 2667TIP3   OH229415   5.403   5.625  15.955 -0.0245 -0.3944  0.2518
 2667TIP3    H129416   5.335   5.667  16.007  1.0576  0.2510  1.1907
 2667TIP3    H229417   5.481   5.679  15.969  0.8483 -1.4685 -0.2963
 2668TIP3   OH229418   2.294   2.043  12.419 -0.0169  0.0649 -0.0747
 2668TIP3    H129419   2.339   1.961  12.441 -0.5051 -1.1903 -3.1482
 2668TIP3    H229420   2.202   2.018  12.413 -0.0192  0.3705 -2.4427
 2669TIP3   OH229421   2.322   6.366   5.540  0.0577  0.5130  0.3520
 2669TIP3    H129422   2.388   6.298   5.543  0.8435  1.2865  1.1080
 2669TIP3    H229423   2.340   6.414   5.459 -2.8899 -2.4312 -2.3584
 2670TIP3   OH229424   1.948   6.000   1.391 -0.5966 -0.9126 -0.3657
 2670TIP3    H129425   1.868   5.962   1.353 -1.2915  0.1469 -0.0196
 2670TIP3    H229426   1.950   6.090   1.356 -0.2343 -0.5310  0.6095
 2671TIP3   OH229427   2.730   6.534  12.404 -0.0518  0.2130  0.5433
 2671TIP3    H129428   2.795   6.604  12.397 -0.0768  0.3018  1.0856
 2671TIP3    H229429   2.723   6.519  12.499 -3.0814  2.3790  0.8226
 2672TIP3   OH229430   4.381   5.251   3.051  0.0161 -0.3655 -0.3937
 2672TIP3    H129431   4.397   5.213   2.965 -0.0727  0.7851 -0.9298
 2672TIP3    H229432   4.286   5.255   3.058  0.0172 -0.8005 -0.0787
 2673TIP3   OH229433   2.172   4.889  13.539 -0.4408  0.0969 -0.5842
 2673TIP3    H129434   2.199   4.895  13.631 -0.7842  1.2777 -0.5501
 2673TIP3    H229435   2.236   4.830  13.499  0.7317  0.9208  0.0278
 2674TIP3   OH229436   5.128   6.738   4.229  0.3016 -0.6120  0.0867
 2674TIP3    H129437   5.193   6.672   4.251  0.7715  0.1354  0.9894
 2674TIP3    H229438   5.163   6.820   4.264 -0.3130  0.1130 -0.9273
 2675TIP3   OH229439   2.284   1.103  12.545 -0.7344  0.0212 -0.5478
 2675TIP3    H129440   2.215   1.116  12.479 -1.4724 -0.2162  0.1582
 2675TIP3    H229441   2.248   1.141  12.625 -0.4520 -0.9933  0.0745
 2676TIP3   OH229442   3.724   4.380  13.340  0.8258  0.3218 -0.4260
 2676TIP3    H129443   3.729   4.350  13.430  1.5968  0.1013 -0.5419
 2676TIP3    H229444   3.805   4.350  13.299  0.5091  0.4624 -1.1798
 2677TIP3   OH229445   4.677   1.507   3.482 -0.3137  0.4296 -0.3284
 2677TIP3    H129446   4.759   1.535   3.523 -0.5098  1.0382 -0.3410
 2677TIP3    H229447   4.624   1.473   3.554 -0.4386  0.9720 -0.1621
 2678TIP3   OH229448   5.604   2.703   0.870  0.3346 -0.3679  0.5683
 2678TIP3    H129449   5.548   2.776   0.843 -0.5330 -0.9762  0.6858
 2678TIP3    H229450   5.561   2.667   0.948 -1.1647 -3.0975 -1.3694
 2679TIP3   OH229451   6.495   6.007   4.064  0.2715 -0.1880 -0.3525
 2679TIP3    H129452   6.559   5.967   4.005 -1.5983 -0.2595 -2.5110
 2679TIP3    H229453   6.518   5.976   4.151  3.3811  0.1490 -0.9582
 2680TIP3   OH229454   5.767   4.825  16.622  0.2076  0.0389 -0.2577
 2680TIP3    H129455   5.732   4.900  16.573  1.6253  0.2928 -0.9363
 2680TIP3    H229456   5.826   4.865  16.686 -0.9450 -0.3564  1.0918
 2681TIP3   OH229457   2.850   3.459  16.311 -0.0716 -0.0611  0.0217
 2681TIP3    H129458   2.868   3.426  16.223 -1.6459 -0.8724 -0.0316
 2681TIP3    H229459   2.921   3.520  16.329 -0.0813  0.6404 -2.0838
 2682TIP3   OH229460   2.890   5.120  13.873  0.2451  0.1640  0.4492
 2682TIP3    H129461   2.865   5.209  13.897  0.3009  0.4957 -0.6745
 2682TIP3    H229462   2.898   5.122  13.778  1.2117 -0.7957  0.4878
 2683TIP3   OH229463   1.173   0.412   3.396 -0.3584 -0.0901  0.6659
 2683TIP3    H129464   1.133   0.435   3.480 -0.6226  3.3308 -0.2848
 2683TIP3    H229465   1.267   0.411   3.414 -0.4756 -3.3201  1.7797
 2684TIP3   OH229466   0.736   0.369   5.001  0.0689 -0.2191 -0.1891
 2684TIP3    H129467   0.645   0.341   5.009  0.5621 -1.6936  0.5695
 2684TIP3    H229468   0.788   0.292   5.026  1.5940 -0.2583 -2.9520
 2685TIP3   OH229469   4.298   6.511  10.896  0.2633  0.4460 -0.2648
 2685TIP3    H129470   4.381   6.513  10.849  0.9008 -0.5105  0.7632
 2685TIP3    H229471   4.238   6.465  10.837  0.7775  0.1148 -0.5356
 2686TIP3   OH229472   4.644   6.654  13.959 -0.2426  0.1106  0.7753
 2686TIP3    H129473   4.612   6.620  14.043  1.8690 -2.5172  0.6850
 2686TIP3    H229474   4.565   6.666  13.906 -1.4026 -1.6029  1.9932
 2687TIP3   OH229475   4.343   3.987  12.700  0.5289  0.2309 -0.4805
 2687TIP3    H129476   4.402   3.936  12.755 -0.1398  0.3582  0.3738
 2687TIP3    H229477   4.324   4.066  12.751 -0.6525  0.0291 -0.5672
 2688TIP3   OH229478   4.774   1.860  11.149  0.0007 -0.0141  0.1182
 2688TIP3    H129479   4.869   1.868  11.152  0.0649 -0.2499 -0.9812
 2688TIP3    H229480   4.744   1.939  11.105 -0.2755 -0.1207  0.1114
 2689TIP3   OH229481   2.229   4.852   5.934  0.5038 -0.3458 -0.3123
 2689TIP3    H129482   2.148   4.810   5.905  0.6262 -1.0157  0.2934
 2689TIP3    H229483   2.296   4.784   5.926  0.6732 -0.3346  0.8318
 2690TIP3   OH229484   5.744   3.064  12.865 -0.3075  0.1548 -0.0761
 2690TIP3    H129485   5.811   3.040  12.801 -0.8922  0.9585 -1.0201
 2690TIP3    H229486   5.674   2.999  12.852  0.6022 -1.2261  1.5107
 2691TIP3   OH229487   0.920   6.016   5.439 -0.7026  0.3046  0.2509
 2691TIP3    H129488   0.869   6.010   5.358 -0.0887  0.7415 -0.1791
 2691TIP3    H229489   1.012   6.012   5.410 -0.4757  0.5769  0.9152
 2692TIP3   OH229490   0.360   1.782   2.516  0.5252 -0.1837 -0.1154
 2692TIP3    H129491   0.325   1.833   2.589 -3.5373 -0.7658 -1.4070
 2692TIP3    H229492   0.442   1.826   2.494  0.1829  2.1005  2.5701
 2693TIP3   OH229493   6.499   2.306  14.602  0.5199  0.2144  0.8302
 2693TIP3    H129494   6.406   2.327  14.609  0.2797  0.2627 -1.5607
 2693TIP3    H229495   6.508   2.222  14.647 -0.9643 -0.4050  0.0675
 2694TIP3   OH229496   4.614   2.180  15.943  0.3380 -0.9202 -0.0925
 2694TIP3    H129497   4.686   2.224  15.989  0.3250 -0.3962 -0.5690
 2694TIP3    H229498   4.577   2.247  15.886 -0.9376 -1.0077  0.6060
 2695TIP3   OH229499   3.833   6.241  13.324 -0.5710  0.0011 -0.3644
 2695TIP3    H129500   3.920   6.222  13.358 -0.8779 -0.0566  0.4094
 2695TIP3    H229501   3.837   6.333  13.296 -0.0353 -0.2381 -1.0716
 2696TIP3   OH229502   5.141   2.582  12.339 -0.3865 -0.0377  0.4160
 2696TIP3    H129503   5.209   2.637  12.299  0.9536  0.2262  2.9011
 2696TIP3    H229504   5.075   2.645  12.369 -2.1673 -0.3230 -2.4917
 2697TIP3   OH229505   6.517   6.364  12.079 -0.5071  0.0467 -0.1718
 2697TIP3    H129506   6.577   6.297  12.046  2.3847  2.4082 -0.1816
 2697TIP3    H229507   6.443   6.315  12.114  0.6138 -3.0135 -1.7097
 2698TIP3   OH229508   5.294   0.499  16.660 -0.0431  0.6492  0.5493
 2698TIP3    H129509   5.240   0.576  16.639  2.4497  1.9662 -1.5380
 2698TIP3    H229510   5.363   0.533  16.717 -1.3090 -1.0638  3.3690
 2699TIP3   OH229511   0.836   2.078   5.701 -0.2175  0.3692  0.5577
 2699TIP3    H129512   0.842   2.070   5.606  1.2231  1.5750  0.5228
 2699TIP3    H229513   0.773   2.011   5.727  0.2878 -0.7852 -1.1129
 2700TIP3   OH229514   4.723   5.381   5.606  0.5905  0.2412  0.8152
 2700TIP3    H129515   4.742   5.340   5.522  1.6012  1.1502  0.5707
 2700TIP3    H229516   4.683   5.312   5.658 -0.6144 -0.1730 -0.6024
 2701TIP3   OH229517   2.768   0.544  12.482 -0.0678 -0.1094 -0.2397
 2701TIP3    H129518   2.735   0.628  12.514  0.6357  0.4367 -0.9080
 2701TIP3    H229519   2.806   0.502  12.559  1.2761  1.0268 -0.2564
 2702TIP3   OH229520   5.763   4.098  15.632 -0.0352 -0.4177  0.4015
 2702TIP3    H129521   5.767   4.151  15.552 -0.5885 -0.7900  0.1185
 2702TIP3    H229522   5.677   4.057  15.629 -0.4568  0.3121  1.6831
 2703TIP3   OH229523   2.815   1.853   0.695  0.6213 -0.0865  0.4803
 2703TIP3    H129524   2.837   1.807   0.775 -0.4673 -0.3766  0.6350
 2703TIP3    H229525   2.720   1.866   0.701  0.6687  0.7052 -0.3281
 2704TIP3   OH229526   5.209   0.703   5.089  0.5577 -0.5686 -0.3970
 2704TIP3    H129527   5.192   0.796   5.071 -1.7182 -0.5233  1.4495
 2704TIP3    H229528   5.217   0.663   5.003 -0.8293  0.9990 -1.3277
 2705TIP3   OH229529   3.210   3.857   2.729 -0.2178  0.2722  0.0629
 2705TIP3    H129530   3.241   3.941   2.694  0.6730  0.0218  0.2339
 2705TIP3    H229531   3.287   3.800   2.727 -1.3692 -1.4085 -2.6048
 2706TIP3   OH229532   2.134   6.005  15.947 -0.0006  0.4701 -0.2281
 2706TIP3    H129533   2.111   5.926  15.996  0.8882  1.7515  2.4542
 2706TIP3    H229534   2.179   5.972  15.869  2.2872 -1.7177  1.8399
 2707TIP3   OH229535   2.614   3.667   5.023 -0.1081 -0.2990 -0.3087
 2707TIP3    H129536   2.527   3.695   5.052 -0.8346 -0.2519 -2.4011
 2707TIP3    H229537   2.625   3.580   5.061 -1.6947 -0.9051 -1.1266
 2708TIP3   OH229538   3.676   0.469   1.171 -0.3438 -0.3829  0.5521
 2708TIP3    H129539   3.747   0.495   1.112  1.1784  0.8051  2.7680
 2708TIP3    H229540   3.605   0.529   1.150  0.3271  0.3183  0.2205
 2709TIP3   OH229541   1.313   0.195  12.539 -0.1722  0.4731  0.2334
 2709TIP3    H129542   1.317   0.272  12.482  1.9184 -0.3784 -0.9026
 2709TIP3    H229543   1.239   0.144  12.506  1.3201 -0.2688 -2.1995
 2710TIP3   OH229544   4.223   1.712   1.141 -0.1969  0.3945 -0.3411
 2710TIP3    H129545   4.140   1.718   1.189  0.0497  0.3041  0.0930
 2710TIP3    H229546   4.286   1.757   1.196  0.5813 -1.6379  0.5101
 2711TIP3   OH229547   0.706   2.435  13.083  0.2628 -0.4180 -0.0498
 2711TIP3    H129548   0.710   2.408  12.991  2.0074  0.9397 -0.4306
 2711TIP3    H229549   0.694   2.354  13.131 -1.0395 -1.1261 -1.4704
 2712TIP3   OH229550   4.821   0.707   0.019 -0.1198  0.6674  0.0327
 2712TIP3    H129551   4.832   0.796   0.053 -1.1495  0.8393 -0.0412
 2712TIP3    H229552   4.874   0.704  -0.061 -0.1549  1.2406 -0.0123
 2713TIP3   OH229553   3.543   5.305   1.566  0.0662  0.0127 -0.3475
 2713TIP3    H129554   3.474   5.283   1.504  0.0056 -1.2834  0.1462
 2713TIP3    H229555   3.624   5.285   1.519  0.0109 -1.3816  0.1071
 2714TIP3   OH229556   4.861   4.735   1.543  0.1618 -0.2785  0.2160
 2714TIP3    H129557   4.796   4.668   1.561  0.5221 -0.7964 -0.3885
 2714TIP3    H229558   4.810   4.807   1.503 -0.3822  0.2437  1.7709
 2715TIP3   OH229559   1.964   0.001  14.781  0.2241 -0.5334  0.8500
 2715TIP3    H129560   1.943   0.093  14.766  0.3068 -0.5328  0.7443
 2715TIP3    H229561   1.927  -0.018  14.868  1.5032 -0.0097  1.5224
 2716TIP3   OH229562   5.255   5.540   0.908  0.0846  0.0486  0.4441
 2716TIP3    H129563   5.264   5.611   0.844 -0.4104 -0.5836 -0.3379
 2716TIP3    H229564   5.344   5.508   0.920  0.2614  0.5576  0.5262
 2717TIP3   OH229565   2.962   1.213  16.185  0.8355  0.2226 -0.0651
 2717TIP3    H129566   2.912   1.243  16.261  1.3543 -0.2555  0.4759
 2717TIP3    H229567   3.031   1.278  16.174  2.8433 -1.3917  1.9904
 2718TIP3   OH229568   5.058   3.764   2.376 -0.3405 -0.1524  1.2814
 2718TIP3    H129569   5.148   3.799   2.374 -0.2133 -0.5080  0.7588
 2718TIP3    H229570   5.016   3.813   2.447 -0.1157  0.9535  0.6841
 2719TIP3   OH229571   2.956   2.612   0.896 -0.2159  0.6422 -0.1345
 2719TIP3    H129572   2.943   2.666   0.818  0.2894  1.3540  0.2679
 2719TIP3    H229573   2.962   2.523   0.862 -4.3929  0.3457 -0.5254
 2720TIP3   OH229574   5.985   3.416  13.927 -0.5184  0.1502  0.5988
 2720TIP3    H129575   6.021   3.382  13.845  0.1553  0.9821  0.5430
 2720TIP3    H229576   5.891   3.398  13.921 -0.7495  1.6851 -1.0980
 2721TIP3   OH229577   1.940   0.302   0.360  0.1177  0.2402 -0.3305
 2721TIP3    H129578   2.017   0.345   0.321  0.6851  0.7163  1.2525
 2721TIP3    H229579   1.932   0.220   0.312  2.4692 -0.4685  0.3649
 2722TIP3   OH229580   2.349   4.628  13.402 -0.1111 -0.5807  0.0814
 2722TIP3    H129581   2.408   4.640  13.477  2.3188 -0.5371 -1.7071
 2722TIP3    H229582   2.404   4.585  13.336 -2.3439 -1.2095 -1.4621
 2723TIP3   OH229583   3.664   1.375   1.152 -0.2580  0.2397  0.4041
 2723TIP3    H129584   3.577   1.337   1.167  0.9803 -3.6194 -0.9421
 2723TIP3    H229585   3.721   1.332   1.216  1.2222  0.0853 -0.9505
 2724TIP3   OH229586   3.886   4.094   4.879 -0.3571 -0.1268 -0.2127
 2724TIP3    H129587   3.878   4.007   4.838 -0.5539 -1.1061  1.7518
 2724TIP3    H229588   3.831   4.088   4.957  0.1571  1.5645  0.3162
 2725TIP3   OH229589   3.681   3.271   0.164  0.2925 -0.0636 -0.0926
 2725TIP3    H129590   3.712   3.360   0.150 -0.8821  0.4592  0.5265
 2725TIP3    H229591   3.755   3.227   0.206  0.9982  0.5212 -0.7019
 2726TIP3   OH229592   0.134   6.398   4.547  0.6164  0.2726  0.2506
 2726TIP3    H129593   0.115   6.438   4.462 -0.0068 -0.0890  0.2148
 2726TIP3    H229594   0.114   6.305   4.535 -0.0670  0.3164  0.9575
 2727TIP3   OH229595   0.786   5.673  15.041  0.1065  0.2857  0.1003
 2727TIP3    H129596   0.749   5.733  15.105 -0.1467  0.5900 -0.3226
 2727TIP3    H229597   0.742   5.589  15.058 -0.3520  0.4993 -0.0245
 2728TIP3   OH229598   3.001   2.148  15.492  0.3968  0.1442 -0.4617
 2728TIP3    H129599   2.996   2.131  15.586  0.3819 -1.5812 -0.7375
 2728TIP3    H229600   3.067   2.086  15.460  0.7195  1.0074 -1.5283
 2729TIP3   OH229601   4.909   1.749   4.025  0.5735 -0.2664 -0.5370
 2729TIP3    H129602   4.954   1.758   4.109 -0.1520  1.2086 -0.2667
 2729TIP3    H229603   4.944   1.821   3.972 -0.3793  0.0032 -0.8210
 2730TIP3   OH229604   3.776   6.642  17.020 -0.2564 -0.4254 -0.0023
 2730TIP3    H129605   3.867   6.670  17.033  0.2920 -1.9647 -0.3268
 2730TIP3    H229606   3.755   6.671  16.931 -0.7557  1.5841  0.7179
 2731TIP3   OH229607   6.521   2.645   0.844  0.0212  0.3486 -0.0630
 2731TIP3    H129608   6.479   2.582   0.902  0.2764  0.8534  0.6988
 2731TIP3    H229609   6.498   2.617   0.756 -0.5819 -0.2965  0.2918
 2732TIP3   OH229610   6.500   1.989   0.623 -0.2631 -0.1199 -0.1155
 2732TIP3    H129611   6.528   1.951   0.706 -1.7522 -1.9441 -0.3894
 2732TIP3    H229612   6.563   1.956   0.559  1.0520  1.5112  0.2676
 2733TIP3   OH229613   6.247   6.107   0.957 -0.0892  0.7249  0.1228
 2733TIP3    H129614   6.222   6.154   1.037  0.2862 -1.3705  1.5665
 2733TIP3    H229615   6.342   6.099   0.963 -0.0900  0.3277 -0.3898
 2734TIP3   OH229616   0.587   5.505  13.309  0.5161  0.0095  0.2813
 2734TIP3    H129617   0.641   5.490  13.386  1.5153 -0.9739 -0.5730
 2734TIP3    H229618   0.527   5.431  13.305 -0.1937  0.5534  0.6356
 2735TIP3   OH229619   5.335   4.471   6.037  0.1283  0.0353  0.0133
 2735TIP3    H129620   5.381   4.390   6.015  0.0005 -0.1802  0.5243
 2735TIP3    H229621   5.391   4.514   6.101 -0.4092 -0.2664  0.6989
 2736TIP3   OH229622   6.006   0.835   3.309 -0.2486  0.4296  0.0428
 2736TIP3    H129623   5.972   0.910   3.261 -1.7676 -1.0737 -1.3608
 2736TIP3    H229624   6.041   0.777   3.242 -0.8237 -0.9477  0.8807
 2737TIP3   OH229625   1.394   2.410   5.781  0.2842 -0.0410  0.0692
 2737TIP3    H129626   1.358   2.495   5.756 -0.7719 -0.3778  0.4081
 2737TIP3    H229627   1.478   2.405   5.734  0.8600  1.6175  0.8331
 2738TIP3   OH229628   0.681   2.701   2.336  0.8793 -0.0533  0.2364
 2738TIP3    H129629   0.606   2.675   2.282  0.2591 -0.5908  1.3221
 2738TIP3    H229630   0.644   2.761   2.400  1.8525  1.6340 -0.7184
 2739TIP3   OH229631   3.718   2.716   5.534  0.4915 -0.1132  0.4436
 2739TIP3    H129632   3.810   2.723   5.509  0.3990 -0.8182 -0.0964
 2739TIP3    H229633   3.709   2.779   5.606  1.2044  0.5334 -0.0163
 2740TIP3   OH229634   0.071   0.088  14.254  0.4371  0.2547 -0.6897
 2740TIP3    H129635  -0.003   0.027  14.247 -0.0787  0.7472  0.2133
 2740TIP3    H229636   0.144   0.033  14.281 -0.0946  0.0439  0.4178
 2741TIP3   OH229637   4.836   0.368  17.245  0.9856 -0.0273 -0.4974
 2741TIP3    H129638   4.900   0.299  17.262 -0.1327 -0.8414  0.4912
 2741TIP3    H229639   4.812   0.356  17.154 -0.9725 -2.5274  0.2452
 2742TIP3   OH229640   0.813   4.120  13.849  0.1450 -0.3168 -0.9136
 2742TIP3    H129641   0.771   4.085  13.927 -0.9477 -0.2792 -1.4741
 2742TIP3    H229642   0.759   4.194  13.823  0.7402 -0.0608 -1.4711
 2743TIP3   OH229643   5.353   5.235  15.538 -0.7693  0.4069  0.0110
 2743TIP3    H129644   5.434   5.216  15.490 -0.5382  2.1512 -0.3517
 2743TIP3    H229645   5.383   5.268  15.623 -1.0354  1.7819 -0.3975
 2744TIP3   OH229646   1.460   1.073  15.278 -0.0960 -0.0386 -0.3873
 2744TIP3    H129647   1.423   1.152  15.238  1.4021  0.4322 -0.9164
 2744TIP3    H229648   1.420   1.001  15.230  0.0333  0.4596 -1.2588
 2745TIP3   OH229649   6.251   4.598  13.731  0.1193  0.2187 -0.3006
 2745TIP3    H129650   6.279   4.633  13.816  1.3227  0.3843 -0.7354
 2745TIP3    H229651   6.221   4.509  13.750 -1.3720  0.8724  0.5632
 2746TIP3   OH229652   6.340   0.729  13.863  0.4811 -0.0064 -0.0490
 2746TIP3    H129653   6.357   0.641  13.827 -0.2794 -0.3582  0.4386
 2746TIP3    H229654   6.359   0.720  13.956 -0.7593  0.0358  0.2115
 2747TIP3   OH229655   3.441   2.774  10.817 -0.3815 -0.1717  0.1713
 2747TIP3    H129656   3.497   2.850  10.798 -0.5724 -0.3895 -1.3724
 2747TIP3    H229657   3.357   2.812  10.843  0.5530  0.1780  3.1170
 2748TIP3   OH229658   2.705   3.096   5.756  0.0049 -0.6184 -0.6209
 2748TIP3    H129659   2.747   3.156   5.695 -1.2390 -0.8334 -1.7246
 2748TIP3    H229660   2.762   3.097   5.833  1.0715  0.4260 -1.3842
 2749TIP3   OH229661   3.946   2.361  15.775 -0.5811 -0.1211  0.2700
 2749TIP3    H129662   3.892   2.284  15.757 -0.8075 -0.0206  0.5049
 2749TIP3    H229663   3.954   2.406  15.691 -1.3256  0.1550  0.3369
 2750TIP3   OH229664   2.061   3.990  16.527 -0.0929  0.7697  0.4432
 2750TIP3    H129665   1.977   3.944  16.528  0.6565 -0.6234  1.0555
 2750TIP3    H229666   2.122   3.931  16.570  1.1106  1.9787  0.4729
 2751TIP3   OH229667   5.483   5.207  16.662  0.4836  0.0308  0.1620
 2751TIP3    H129668   5.533   5.159  16.729 -0.1695  0.4723  0.9840
 2751TIP3    H229669   5.425   5.264  16.712  0.5163  0.9293 -0.7983
 2752TIP3   OH229670   5.568   1.576   4.648  0.2430  0.5453 -0.4568
 2752TIP3    H129671   5.494   1.600   4.705  0.5129  0.8299 -0.2239
 2752TIP3    H229672   5.560   1.481   4.638 -0.3442  0.6118 -0.6987
 2753TIP3   OH229673   0.866   6.746   3.182  0.0388 -0.1351  0.0890
 2753TIP3    H129674   0.885   6.740   3.276 -0.7790  1.2456  0.3709
 2753TIP3    H229675   0.775   6.717   3.175  0.3253 -0.9461 -0.3992
 2754TIP3   OH229676   3.893   2.727   4.308 -0.3415  0.5083 -0.1537
 2754TIP3    H129677   3.813   2.779   4.305 -0.8086 -0.2179 -0.9248
 2754TIP3    H229678   3.868   2.642   4.270  0.6304  0.0504  0.1842
 2755TIP3   OH229679   3.985   6.359   5.554 -0.5323  0.5765 -0.3838
 2755TIP3    H129680   4.036   6.382   5.631 -1.3294  0.6929  0.1265
 2755TIP3    H229681   3.987   6.263   5.552 -0.6405  0.5690 -0.1269
 2756TIP3   OH229682   5.902   6.532   0.178 -0.5304 -0.1364 -0.7579
 2756TIP3    H129683   5.862   6.490   0.253 -1.7002  0.7414 -0.8533
 2756TIP3    H229684   5.849   6.504   0.103  0.0623 -0.2852 -1.1284
 2757TIP3   OH229685   3.969   0.290   5.861  0.4805 -0.1335 -0.3260
 2757TIP3    H129686   4.061   0.298   5.836  0.1534 -0.2645 -1.6869
 2757TIP3    H229687   3.923   0.351   5.803 -0.0769  1.7599  1.9780
 2758TIP3   OH229688   1.948   4.135  16.331  0.1608 -0.7867  0.4137
 2758TIP3    H129689   1.991   4.092  16.257  1.7353 -0.0375  0.8541
 2758TIP3    H229690   1.991   4.098  16.408  0.4195  0.3652  0.8470
 2759TIP3   OH229691   6.739   4.668   2.941 -0.1325  0.3157  0.3090
 2759TIP3    H129692   6.827   4.651   2.973  0.3156 -1.4143 -1.5877
 2759TIP3    H229693   6.751   4.729   2.868 -0.4338 -0.2646 -0.2367
 2760TIP3   OH229694   0.174   5.748   1.217 -0.6622 -0.4028 -0.2648
 2760TIP3    H129695   0.179   5.687   1.291 -0.2422  0.5686  0.5409
 2760TIP3    H229696   0.233   5.711   1.151  1.9106  0.5291  1.3169
 2761TIP3   OH229697   6.352   6.035   4.401 -0.4877  0.6901  0.3240
 2761TIP3    H129698   6.434   5.997   4.369 -1.4558 -0.4353 -0.9402
 2761TIP3    H229699   6.287   6.009   4.336 -1.3457  4.1293 -0.3687
 2762TIP3   OH229700   6.117   5.414  13.575  0.0894 -0.5502  0.1831
 2762TIP3    H129701   6.192   5.389  13.520 -2.8942  0.1969 -4.8495
 2762TIP3    H229702   6.127   5.509  13.588 -0.5170 -0.2143 -1.5928
 2763TIP3   OH229703   4.685   1.491   2.635 -0.2453 -0.1937 -0.0850
 2763TIP3    H129704   4.726   1.465   2.718  0.5250 -1.2536 -0.7698
 2763TIP3    H229705   4.621   1.423   2.617 -0.1485 -0.1694 -0.5392
 2764TIP3   OH229706   5.739   4.194   4.410  0.1387  0.0315  0.1615
 2764TIP3    H129707   5.818   4.208   4.358  0.8067  2.5630  1.7459
 2764TIP3    H229708   5.694   4.278   4.409 -1.7670 -0.9223  0.6085
 2765TIP3   OH229709   3.316   2.424   1.936  1.2834  0.2608 -0.0634
 2765TIP3    H129710   3.326   2.519   1.945  0.7813  0.4764 -1.5971
 2765TIP3    H229711   3.232   2.413   1.891  1.6633 -0.8768 -0.5126
 2766TIP3   OH229712   1.527   5.671  13.519 -0.5728  0.0839  0.0661
 2766TIP3    H129713   1.439   5.652  13.488 -1.6569  2.2784  1.5083
 2766TIP3    H229714   1.570   5.713  13.445 -1.0158 -0.2232 -0.3734
 2767TIP3   OH229715   0.744   3.954  12.913 -0.6302 -0.9364 -0.4017
 2767TIP3    H129716   0.719   3.862  12.924 -0.7642 -1.1279 -1.9982
 2767TIP3    H229717   0.725   3.972  12.821 -0.1192  0.5517 -0.2320
 2768TIP3   OH229718   2.733   3.963   4.272  0.1159 -0.4727 -0.1870
 2768TIP3    H129719   2.797   3.919   4.327  0.2012  0.1200  0.1994
 2768TIP3    H229720   2.696   4.031   4.328 -1.3360 -1.2199 -0.1855
 2769TIP3   OH229721   0.424   6.663  14.752  0.1314  0.4573 -0.3335
 2769TIP3    H129722   0.388   6.734  14.699 -1.2688  0.8792  1.0922
 2769TIP3    H229723   0.518   6.677  14.750  0.0285  1.0853 -1.8035
 2770TIP3   OH229724   6.477   6.689   5.259 -0.3621  0.5142  0.3291
 2770TIP3    H129725   6.471   6.617   5.195 -1.8532  0.2875  0.6842
 2770TIP3    H229726   6.558   6.734   5.236  0.5812 -1.2253  0.0469
 2771TIP3   OH229727   0.526   2.732   4.318  0.0920  0.0603 -0.8130
 2771TIP3    H129728   0.460   2.760   4.381  0.9628 -0.1453  0.2224
 2771TIP3    H229729   0.490   2.758   4.233 -0.6703  1.2177 -0.1728
 2772TIP3   OH229730   3.999   5.523   2.290 -0.2434 -0.0715  0.0306
 2772TIP3    H129731   4.082   5.570   2.296  0.5152 -1.4210  0.7064
 2772TIP3    H229732   3.973   5.532   2.199 -0.3794  2.0039  0.2253
 2773TIP3   OH229733   0.342   5.611   5.830  0.2334 -0.2183 -0.4120
 2773TIP3    H129734   0.342   5.591   5.924  1.5016  1.3052 -0.0485
 2773TIP3    H229735   0.374   5.532   5.788 -0.2515 -0.8825  0.4343
 2774TIP3   OH229736   4.691   1.680  12.696  0.0607 -0.1672 -0.0837
 2774TIP3    H129737   4.606   1.652  12.660  0.7767 -0.0567 -1.9470
 2774TIP3    H229738   4.684   1.775  12.701 -0.3691 -0.2437  0.9859
 2775TIP3   OH229739   3.110   5.923   0.012  0.2743 -0.2912  0.1643
 2775TIP3    H129740   3.043   5.908  -0.054 -1.7499 -2.5680  2.4869
 2775TIP3    H229741   3.073   5.990   0.069 -0.3975 -1.9123  1.7492
 2776TIP3   OH229742   3.887   6.117   0.732 -0.2081  0.4158  0.2248
 2776TIP3    H129743   3.944   6.185   0.768 -1.1361  0.4267  1.7608
 2776TIP3    H229744   3.817   6.107   0.797 -0.1242 -1.9857  0.0244
 2777TIP3   OH229745   2.051   6.464   3.393  0.1148 -0.2971  0.4775
 2777TIP3    H129746   2.061   6.490   3.485 -1.9646  1.2441  0.3494
 2777TIP3    H229747   1.963   6.427   3.388 -0.9614  2.1781 -1.3222
 2778TIP3   OH229748   1.205   0.947  14.899  0.4081 -0.2348  0.2551
 2778TIP3    H129749   1.126   0.942  14.953 -0.7359 -2.7846 -1.4545
 2778TIP3    H229750   1.174   0.979  14.814  1.6120  0.6770  0.1372
 2779TIP3   OH229751   6.561   2.996   1.790  0.0600 -0.2722 -0.2034
 2779TIP3    H129752   6.647   3.010   1.749  0.2477 -1.3248 -0.2098
 2779TIP3    H229753   6.578   3.006   1.884  0.6052 -2.2214 -0.0496
 2780TIP3   OH229754   5.117   2.164  16.286 -0.0502 -0.0795  0.1311
 2780TIP3    H129755   5.152   2.130  16.367 -1.7044 -1.1510  0.4481
 2780TIP3    H229756   5.173   2.128  16.217  0.6595 -0.1015  0.7166
 2781TIP3   OH229757   3.819   4.813   0.541  0.3099 -0.3862 -0.1792
 2781TIP3    H129758   3.871   4.815   0.622  0.9080 -0.3721 -0.5555
 2781TIP3    H229759   3.763   4.737   0.551  0.4906 -0.4753  0.1878
 2782TIP3   OH229760   3.875   3.004  14.357  0.0008  0.5446  0.7617
 2782TIP3    H129761   3.907   2.922  14.396 -4.9175 -1.3110  1.6192
 2782TIP3    H229762   3.865   3.063  14.431 -1.6173 -0.1190  1.1185
 2783TIP3   OH229763   1.427   5.559  11.164 -1.0696  0.1787 -0.1338
 2783TIP3    H129764   1.507   5.608  11.149  0.4002 -1.7203  1.1255
 2783TIP3    H229765   1.455   5.468  11.169 -2.9468 -0.3553  2.6188
 2784TIP3   OH229766   3.673   6.520   0.390  0.2421 -0.2025 -0.0264
 2784TIP3    H129767   3.615   6.521   0.314  0.3810  0.8606 -0.1389
 2784TIP3    H229768   3.752   6.475   0.360  0.3000  0.2214 -0.5244
 2785TIP3   OH229769   0.077   0.903   3.620  0.1624 -0.3568  0.1400
 2785TIP3    H129770   0.049   0.989   3.588 -0.7493 -0.8240 -0.3782
 2785TIP3    H229771   0.152   0.881   3.566  0.1493 -0.0600 -0.0036
 2786TIP3   OH229772   3.195   0.874  16.399 -0.5138 -0.2630 -0.6561
 2786TIP3    H129773   3.233   0.883  16.311 -1.3466 -1.0437 -1.1189
 2786TIP3    H229774   3.269   0.850  16.454  0.1454  0.8795 -1.0015
 2787TIP3   OH229775   6.771   0.368   6.686 -0.4587 -0.5109  0.1665
 2787TIP3    H129776   6.863   0.348   6.699 -0.2087  0.5934  0.1818
 2787TIP3    H229777   6.761   0.458   6.718 -1.3794 -0.3455 -0.5391
 2788TIP3   OH229778   4.111   5.116  14.529 -0.5682  0.1631  0.2005
 2788TIP3    H129779   4.110   5.212  14.523 -0.2614  0.1656  0.1997
 2788TIP3    H229780   4.100   5.087  14.438  0.0355  0.2010  0.1109
 2789TIP3   OH229781   5.618   4.618   1.752  0.1469 -0.4262  0.6660
 2789TIP3    H129782   5.691   4.619   1.814 -0.2350 -2.3834  1.2131
 2789TIP3    H229783   5.561   4.548   1.784 -1.1060 -0.0834 -0.7332
 2790TIP3   OH229784   4.358   0.144   1.150 -0.5314 -0.2570 -0.1062
 2790TIP3    H129785   4.269   0.148   1.113  0.0807 -1.2231 -1.7941
 2790TIP3    H229786   4.378   0.050   1.153  0.0547 -0.1057  1.2686
 2791TIP3   OH229787   5.932   1.491  12.894  0.7025  0.1670 -0.1657
 2791TIP3    H129788   6.006   1.552  12.902 -0.3783  2.0939 -3.1808
 2791TIP3    H229789   5.901   1.502  12.804 -0.8007 -3.5319 -0.2808
 2792TIP3   OH229790   5.158   5.003  11.722  0.2570 -0.5665 -0.0108
 2792TIP3    H129791   5.161   4.909  11.743  0.6717 -0.5468  0.0326
 2792TIP3    H229792   5.065   5.026  11.728  0.4014 -0.3229  2.9491
 2793TIP3   OH229793   2.968   2.066   2.586 -0.3129  0.2642  0.0658
 2793TIP3    H129794   3.015   1.991   2.548 -1.3980 -0.1118 -0.5646
 2793TIP3    H229795   2.950   2.040   2.676 -1.8736 -0.8361 -0.5200
 2794TIP3   OH229796   3.387   4.377   5.459  0.1824  0.4630 -0.2608
 2794TIP3    H129797   3.333   4.305   5.428  0.4109 -0.2809  0.9982
 2794TIP3    H229798   3.398   4.361   5.552  0.6333  1.8837 -0.0382
 2795TIP3   OH229799   5.717   4.033  15.188  0.5709  0.4033 -0.0991
 2795TIP3    H129800   5.702   4.077  15.104 -0.5210  0.6615  0.2252
 2795TIP3    H229801   5.801   4.068  15.218  0.5160  1.0164 -0.6316
 2796TIP3   OH229802   0.056   4.461   2.348  0.3548  0.2960  0.1153
 2796TIP3    H129803  -0.029   4.474   2.391  1.0995 -0.0498  1.8036
 2796TIP3    H229804   0.110   4.421   2.416  1.3206 -1.2768 -1.5050
 2797TIP3   OH229805   0.016   1.196  17.188 -0.0649  0.5465 -0.0989
 2797TIP3    H129806   0.086   1.137  17.161 -0.3729  1.4362 -3.1958
 2797TIP3    H229807   0.054   1.284  17.179 -0.7641  0.9659  0.8608
 2798TIP3   OH229808   1.695   6.336  16.303  0.4197  0.2198  0.0481
 2798TIP3    H129809   1.657   6.356  16.389 -1.3017  0.8059 -0.8054
 2798TIP3    H229810   1.742   6.416  16.279  0.6587  0.1607  0.3127
 2799TIP3   OH229811   0.697   3.247   2.534  0.2322 -0.4951 -0.1608
 2799TIP3    H129812   0.623   3.245   2.473  0.2840 -1.2003 -0.2126
 2799TIP3    H229813   0.747   3.167   2.514  0.6621 -0.3471  0.2949
 2800TIP3   OH229814   5.782   2.152  15.266 -0.0882  0.1429 -0.2381
 2800TIP3    H129815   5.864   2.129  15.223  1.2386  2.0484  1.1056
 2800TIP3    H229816   5.780   2.099  15.346 -0.3210 -0.1230 -0.4182
 2801TIP3   OH229817   0.320   3.322   5.639 -0.1941 -0.1003 -0.1469
 2801TIP3    H129818   0.349   3.392   5.579  3.2238  0.4180  1.8732
 2801TIP3    H229819   0.385   3.253   5.629 -0.7178 -0.8755  1.4841
 2802TIP3   OH229820   6.037   4.705   1.479  0.3157 -0.2759 -0.0314
 2802TIP3    H129821   5.955   4.694   1.430 -0.2351  2.9782 -0.0657
 2802TIP3    H229822   6.080   4.620   1.473 -2.8757 -2.0552 -0.3058
 2803TIP3   OH229823   6.014   5.252  13.309  0.3875  0.1072  0.0835
 2803TIP3    H129824   5.921   5.262  13.293  0.6766  1.1095 -1.2072
 2803TIP3    H229825   6.037   5.326  13.366  0.6934  0.9869 -1.1261
 2804TIP3   OH229826   5.207   4.835   5.906 -0.2397 -0.6388  0.1027
 2804TIP3    H129827   5.202   4.931   5.909 -0.1209 -0.5838 -1.1051
 2804TIP3    H229828   5.290   4.815   5.949 -0.7545 -0.2858  1.3232
 2805TIP3   OH229829   1.507   3.031  13.934 -0.3547 -0.4773  0.6153
 2805TIP3    H129830   1.540   3.121  13.931 -0.2519 -0.4869  1.2166
 2805TIP3    H229831   1.434   3.029  13.872 -0.7572  0.1842  1.0599
 2806TIP3   OH229832   6.507   1.502  13.197 -0.4413  0.5745  0.1097
 2806TIP3    H129833   6.593   1.539  13.215  0.0511 -0.7747  0.7126
 2806TIP3    H229834   6.497   1.432  13.261 -1.9735  0.6651  0.0142
 2807TIP3   OH229835   1.153   1.369   1.456 -0.1579  0.1897 -0.3660
 2807TIP3    H129836   1.068   1.335   1.429 -0.1885  0.5649 -0.7507
 2807TIP3    H229837   1.153   1.460   1.428 -0.5983  0.9211  1.8440
 2808TIP3   OH229838   3.382   2.889   1.075 -0.1064 -0.1719 -0.2560
 2808TIP3    H129839   3.418   2.818   1.128  0.0835 -0.2176 -0.4458
 2808TIP3    H229840   3.309   2.849   1.027  0.8362 -0.5921 -1.3930
 2809TIP3   OH229841   0.336   4.142   6.117 -0.1279  0.1885 -0.1279
 2809TIP3    H129842   0.376   4.133   6.203  0.3334  0.8550 -0.2622
 2809TIP3    H229843   0.297   4.229   6.118  0.2827  0.3901 -0.7469
 2810TIP3   OH229844   2.993   0.761   5.643 -0.3491  0.1291 -0.2800
 2810TIP3    H129845   3.046   0.792   5.570  1.8042 -0.7504  0.8192
 2810TIP3    H229846   3.020   0.815   5.717  1.2919 -2.2199  0.9752
 2811TIP3   OH229847   6.476   4.336  13.299 -0.2882  0.1747  0.3616
 2811TIP3    H129848   6.502   4.414  13.249  1.6800 -0.0169  1.0023
 2811TIP3    H229849   6.426   4.284  13.237  1.2025  0.4291 -1.1074
 2812TIP3   OH229850   2.911   2.116   3.107  0.4612  0.2255  0.1972
 2812TIP3    H129851   2.827   2.135   3.148 -0.0786  0.9918 -1.2005
 2812TIP3    H229852   2.970   2.098   3.180 -1.1661 -1.4772  1.1848
 2813TIP3   OH229853   6.382   3.684  13.689  0.2561 -0.0400 -0.1093
 2813TIP3    H129854   6.396   3.655  13.599  0.1921 -0.0725 -0.1085
 2813TIP3    H229855   6.349   3.607  13.735 -1.2923  0.4028 -0.4385
 2814TIP3   OH229856   0.460   4.265   1.527  0.0278  0.2476 -0.2341
 2814TIP3    H129857   0.508   4.307   1.455  0.3004  0.1161 -0.1300
 2814TIP3    H229858   0.427   4.183   1.489 -0.2285  0.4017 -0.3441
 2815TIP3   OH229859   3.588   6.450   0.671 -0.3446 -0.1079  0.3045
 2815TIP3    H129860   3.626   6.475   0.587 -0.9955  1.1658  0.3686
 2815TIP3    H229861   3.513   6.395   0.648 -0.4731  0.1701  0.0603
 2816TIP3   OH229862   3.149   3.658  12.039  0.6314 -0.4029 -0.0467
 2816TIP3    H129863   3.134   3.630  12.129  0.1659  0.5831  0.1969
 2816TIP3    H229864   3.242   3.644  12.024  0.3263 -2.7348 -0.1907
 2817TIP3   OH229865   3.770   6.395  11.975  0.1597  0.2116  0.0001
 2817TIP3    H129866   3.849   6.342  11.981  2.4655  3.1117 -1.7398
 2817TIP3    H229867   3.753   6.423  12.065  0.1340 -1.6350  0.6186
 2818TIP3   OH229868   0.254   3.463   3.850 -0.2750  0.0676 -0.1137
 2818TIP3    H129869   0.269   3.369   3.859  2.0356  0.2760 -1.1798
 2818TIP3    H229870   0.242   3.494   3.940  0.3570 -1.0413  0.3705
 2819TIP3   OH229871   0.340   1.984  14.061  0.0927 -0.5602  0.1718
 2819TIP3    H129872   0.259   1.972  14.111 -1.2037 -0.3604 -1.7751
 2819TIP3    H229873   0.356   2.078  14.064  0.9770 -0.7209  1.5576
 2820TIP3   OH229874   4.855   2.833  16.115  0.5278  0.1073  0.7302
 2820TIP3    H129875   4.917   2.874  16.054  0.0889  1.8110  1.3612
 2820TIP3    H229876   4.773   2.879  16.098  0.6202  1.3331  3.2422
 2821TIP3   OH229877   3.838   6.480   5.841  0.0784 -0.7062 -0.0488
 2821TIP3    H129878   3.894   6.421   5.891 -1.4117 -1.4773  0.7598
 2821TIP3    H229879   3.850   6.451   5.750  0.5804 -1.2018  0.1628
 2822TIP3   OH229880   2.476   1.011  16.145 -0.4513  0.1337 -0.0221
 2822TIP3    H129881   2.438   1.085  16.192  0.1850  1.1949 -1.1421
 2822TIP3    H229882   2.570   1.024  16.152 -0.3459  0.2365 -1.4521
 2823TIP3   OH229883   3.843   0.697   1.575  0.2959  0.0474  0.0326
 2823TIP3    H129884   3.847   0.734   1.663  1.9796 -0.5842  0.2681
 2823TIP3    H229885   3.918   0.637   1.571 -1.1980 -1.8796 -0.9601
 2824TIP3   OH229886   5.078   6.548   5.618  0.2179  0.6940  0.5841
 2824TIP3    H129887   5.119   6.491   5.684  2.0787  0.6962 -0.4969
 2824TIP3    H229888   5.007   6.592   5.665 -0.1405 -1.1762  1.9084
 2825TIP3   OH229889   4.215   3.255   2.991  0.4629 -0.3926  0.2663
 2825TIP3    H129890   4.162   3.303   3.054  2.8240  0.0335  2.0988
 2825TIP3    H229891   4.198   3.162   3.011  0.1426 -0.2670  0.5812
 2826TIP3   OH229892   3.916   2.054  12.898 -0.3375 -0.2437  0.7135
 2826TIP3    H129893   3.824   2.029  12.898 -0.2376 -0.6249  1.0953
 2826TIP3    H229894   3.919   2.133  12.952 -0.8853  1.5602 -1.7207
 2827TIP3   OH229895   0.408   3.244  15.863 -0.3948  0.5859  0.1488
 2827TIP3    H129896   0.350   3.316  15.888 -1.1033  0.0510  0.0583
 2827TIP3    H229897   0.441   3.270  15.777 -3.3314 -0.7249 -1.5154
 2828TIP3   OH229898   1.458   6.113   1.981 -0.3427  0.0105  0.1631
 2828TIP3    H129899   1.371   6.082   2.006 -0.2270 -1.1640 -0.8102
 2828TIP3    H229900   1.466   6.090   1.889  0.7821  0.6347  0.0911
 2829TIP3   OH229901   3.126   0.989  15.087  0.2742 -0.3241 -0.1031
 2829TIP3    H129902   3.153   0.912  15.137  3.9523  0.1026 -1.1147
 2829TIP3    H229903   3.068   0.954  15.019 -1.4143 -1.4999  1.8171
 2830TIP3   OH229904   4.714   4.939  12.746 -0.2298 -0.0703 -0.2023
 2830TIP3    H129905   4.745   4.848  12.741  0.7723  0.2730 -0.2737
 2830TIP3    H229906   4.644   4.936  12.812 -0.6341 -1.0052 -0.6421
 2831TIP3   OH229907   1.672   2.100   3.615  0.6476  0.2705 -0.2800
 2831TIP3    H129908   1.673   2.081   3.522  1.0657  1.5333 -0.5514
 2831TIP3    H229909   1.580   2.095   3.640  0.5071  0.1629 -0.8122
 2832TIP3   OH229910   1.387   2.649   2.368  0.3419 -0.8404 -0.1856
 2832TIP3    H129911   1.436   2.574   2.404 -0.9442 -1.7674 -0.3045
 2832TIP3    H229912   1.328   2.610   2.303  1.1848  0.5542 -1.8970
 2833TIP3   OH229913   3.979   6.236  11.198  0.1960 -0.4184 -0.2828
 2833TIP3    H129914   4.015   6.304  11.141  2.6126 -0.7006  0.7880
 2833TIP3    H229915   3.895   6.271  11.226  0.1787  0.9249 -1.8473
 2834TIP3   OH229916   4.226   2.028   2.987 -0.1378 -0.0879 -0.0402
 2834TIP3    H129917   4.252   1.937   3.002  0.4726  0.2625  1.1549
 2834TIP3    H229918   4.253   2.074   3.066 -0.4590  1.1359 -0.6155
 2835TIP3   OH229919   1.340   6.068  13.671  0.1424  0.6633 -0.4535
 2835TIP3    H129920   1.263   6.021  13.704 -0.7959  2.1346 -0.4474
 2835TIP3    H229921   1.355   6.138  13.735  2.2010 -0.2460  0.1392
 2836TIP3   OH229922   0.181   0.749   4.272  0.6431 -0.0190 -0.1423
 2836TIP3    H129923   0.160   0.827   4.221  0.0015  1.2243  1.9078
 2836TIP3    H229924   0.097   0.712   4.297  0.9289 -0.4774  0.1727
 2837TIP3   OH229925   0.849   0.877  10.465  0.1143  0.1840 -0.0918
 2837TIP3    H129926   0.856   0.972  10.473 -2.4913  0.7512 -2.7301
 2837TIP3    H229927   0.757   0.858  10.482  0.4973 -1.8333 -0.0142
 2838TIP3   OH229928   2.332   2.345  15.682 -0.3046 -0.2546 -0.1001
 2838TIP3    H129929   2.251   2.323  15.727  0.3845 -1.2696  0.6997
 2838TIP3    H229930   2.338   2.280  15.611 -1.5952  1.5892 -2.0015
 2839TIP3   OH229931   1.453   3.993   3.172 -0.3282  0.5979  0.0092
 2839TIP3    H129932   1.518   4.004   3.103  0.1740  0.5140  0.4516
 2839TIP3    H229933   1.421   3.903   3.160  0.1780  0.3803  0.2262
 2840TIP3   OH229934   1.084   1.805   4.252 -0.3065  0.0328  0.2283
 2840TIP3    H129935   1.039   1.878   4.211 -0.4915 -1.2082 -1.8802
 2840TIP3    H229936   1.075   1.821   4.346 -0.2966  2.7105 -0.1674
 2841TIP3   OH229937   5.183   0.694   0.829 -0.2315  0.0144 -0.1791
 2841TIP3    H129938   5.172   0.787   0.847  0.7012 -0.2314  1.8590
 2841TIP3    H229939   5.093   0.659   0.828 -0.6768  1.0552 -2.0625
 2842TIP3   OH229940   3.646   1.517  11.561  0.6005  0.6862  0.6905
 2842TIP3    H129941   3.674   1.608  11.568 -0.5550  1.0627  0.5995
 2842TIP3    H229942   3.587   1.515  11.486  2.5549 -0.6631 -0.9285
 2843TIP3   OH229943   2.850   5.837  12.262 -0.1791  0.3477 -0.0941
 2843TIP3    H129944   2.924   5.856  12.204  1.1827 -0.8251  1.1580
 2843TIP3    H229945   2.798   5.917  12.262  1.7266  1.6626 -0.1469
 2844TIP3   OH229946   1.355   4.090  15.077  0.5147  0.2850  0.4167
 2844TIP3    H129947   1.366   4.137  14.994 -1.0311 -0.9500 -0.5225
 2844TIP3    H229948   1.293   4.143  15.127 -0.4631 -0.2276 -0.2381
 2845TIP3   OH229949   4.796   3.320   4.412  0.3928 -0.1273  0.2181
 2845TIP3    H129950   4.721   3.301   4.468  0.4302  0.9628  0.6567
 2845TIP3    H229951   4.856   3.368   4.468  1.6234 -1.3462 -0.0028
 2846TIP3   OH229952   3.654   6.290  14.963 -0.1293  0.2398  0.0776
 2846TIP3    H129953   3.653   6.384  14.979  1.4306  0.2646  0.1408
 2846TIP3    H229954   3.631   6.251  15.047 -1.2510  0.5544 -0.0666
 2847TIP3   OH229955   4.285   2.170  15.643 -0.0906 -0.2428 -0.6731
 2847TIP3    H129956   4.235   2.224  15.582  1.4141  1.2838 -0.6302
 2847TIP3    H229957   4.353   2.129  15.589  0.0185 -0.4898 -0.3556
 2848TIP3   OH229958   6.103   2.105  12.900  0.1667  0.5417 -0.2170
 2848TIP3    H129959   6.128   2.193  12.873  2.5792  0.1224  0.4076
 2848TIP3    H229960   6.010   2.112  12.923  0.6621  3.3141  1.3468
 2849TIP3   OH229961   0.435   3.103   1.255  0.5679 -0.0126  0.1662
 2849TIP3    H129962   0.504   3.121   1.192 -0.7296  0.7250 -1.1115
 2849TIP3    H229963   0.360   3.153   1.223 -0.3050 -0.0695  2.0018
 2850TIP3   OH229964   1.611   0.760   3.071 -1.0451  0.2148  0.0893
 2850TIP3    H129965   1.606   0.774   3.166  0.5971 -2.0739  0.5872
 2850TIP3    H229966   1.653   0.840   3.038 -2.3184  1.3708  1.1607
 2851TIP3   OH229967   0.307   1.696  12.322  0.1104 -0.7470 -0.3651
 2851TIP3    H129968   0.389   1.717  12.278  0.6336  0.6007  1.1320
 2851TIP3    H229969   0.258   1.779  12.322 -0.7443 -1.2317 -0.2012
 2852TIP3   OH229970   2.349   5.661   2.414  0.2775 -0.6255  0.5095
 2852TIP3    H129971   2.380   5.656   2.505  0.1284 -0.9041  0.5447
 2852TIP3    H229972   2.261   5.698   2.421  0.6255  0.2381  0.4034
 2853TIP3   OH229973   6.122   5.340   4.981  0.5400 -0.3481 -0.0762
 2853TIP3    H129974   6.061   5.306   4.916 -0.3062 -1.4198  1.2376
 2853TIP3    H229975   6.125   5.273   5.050  2.1501  0.3074  0.5411
 2854TIP3   OH229976   2.241   2.025  11.467  0.5345  0.2945  0.3744
 2854TIP3    H129977   2.227   2.050  11.376 -0.3736 -1.2113  0.0832
 2854TIP3    H229978   2.336   2.033  11.479  0.7519 -0.1781 -0.9028
 2855TIP3   OH229979   3.593   0.112   2.748 -0.3182  0.0424  0.4197
 2855TIP3    H129980   3.658   0.157   2.802  0.3763  0.5235 -0.7975
 2855TIP3    H229981   3.534   0.182   2.719 -0.2697 -0.1008 -0.0270
 2856TIP3   OH229982   1.245   4.387  13.938 -0.3564  0.0244 -0.7141
 2856TIP3    H129983   1.255   4.446  13.864  0.1252 -1.7071 -2.0806
 2856TIP3    H229984   1.181   4.322  13.909  0.6648 -1.3245 -0.0455
 2857TIP3   OH229985   6.570   4.671  13.454 -0.0511 -0.3132  0.4229
 2857TIP3    H129986   6.571   4.602  13.388 -0.5339  1.6632 -1.7625
 2857TIP3    H229987   6.477   4.685  13.473 -0.0684  0.7852 -0.3705
 2858TIP3   OH229988   6.170   2.795  12.738 -0.1772 -0.0463  0.0094
 2858TIP3    H129989   6.179   2.891  12.741 -0.2365 -0.0663  1.8175
 2858TIP3    H229990   6.227   2.768  12.666 -0.9675  1.4223 -1.2382
 2859TIP3   OH229991   0.685   3.988   3.413  0.7242  0.0009 -0.0554
 2859TIP3    H129992   0.662   4.033   3.494  0.4752  1.1535 -0.7406
 2859TIP3    H229993   0.628   3.911   3.411  2.2342 -1.2437  1.8807
 2860TIP3   OH229994   6.750   6.771   3.224 -0.1296  1.3158  0.7663
 2860TIP3    H129995   6.731   6.685   3.262 -1.0678  2.0603  2.0834
 2860TIP3    H229996   6.675   6.788   3.167  0.2795  1.0673  0.1543
 2861TIP3   OH229997   6.113   0.292   5.432  0.1085 -0.1886 -0.2946
 2861TIP3    H129998   6.032   0.298   5.382  1.4944 -0.2535 -2.7062
 2861TIP3    H229999   6.120   0.376   5.478 -1.2716 -0.1749 -0.0896
 2862TIP3   OH230000   6.555   4.384  16.768 -0.4118 -0.3412  0.0320
 2862TIP3    H130001   6.474   4.431  16.788  0.4266  0.6007  1.4013
 2862TIP3    H230002   6.566   4.324  16.842  0.9187  0.6407  0.6535
 2863TIP3   OH230003   6.350   6.155   1.419 -0.1430 -0.4838  0.2163
 2863TIP3    H130004   6.314   6.193   1.339  1.0091  1.7240  0.6636
 2863TIP3    H230005   6.347   6.061   1.404  2.1947 -0.1824 -3.4788
 2864TIP3   OH230006   2.444   5.612   2.694 -0.1793  0.0964 -0.0458
 2864TIP3    H130007   2.423   5.686   2.751  0.4513  0.3298 -0.1119
 2864TIP3    H230008   2.375   5.547   2.713  0.0445  0.1469  1.0159
 2865TIP3   OH230009   3.083   5.719   5.031 -0.2888  0.4246  0.7180
 2865TIP3    H130010   3.038   5.663   4.968  0.0645  1.1778 -0.2219
 2865TIP3    H230011   3.176   5.705   5.013 -0.1945  1.9639 -0.1453
 2866TIP3   OH230012   3.318   5.524   3.099 -0.0557 -0.2035  0.2029
 2866TIP3    H130013   3.292   5.558   3.184 -2.0811  0.3663 -0.5833
 2866TIP3    H230014   3.413   5.531   3.098 -0.1011  1.2586  1.7944
 2867TIP3   OH230015   0.578   4.176   0.865  0.1687 -0.0805  0.2752
 2867TIP3    H130016   0.658   4.168   0.918 -0.6004  2.6822  2.0532
 2867TIP3    H230017   0.592   4.255   0.813 -0.7951 -0.4585 -0.5835
 2868TIP3   OH230018   2.712   3.615   6.492  0.1313  0.2087  0.1341
 2868TIP3    H130019   2.655   3.682   6.529  0.2618  0.0503  0.6356
 2868TIP3    H230020   2.720   3.550   6.562 -0.5469 -0.6689 -0.5703
 2869TIP3   OH230021   0.684   6.698  12.005 -0.2542 -0.1055  0.1092
 2869TIP3    H130022   0.646   6.653  11.929  0.2136  0.6406 -0.5777
 2869TIP3    H230023   0.747   6.635  12.040  1.8885  0.6951 -2.0495
 2870TIP3   OH230024   4.894   4.945   0.579  0.4190  0.1452 -0.2122
 2870TIP3    H130025   4.945   5.026   0.582  0.5657  0.0607 -0.3968
 2870TIP3    H230026   4.944   4.888   0.520 -0.9638  0.8151 -2.1262
 2871TIP3   OH230027   0.195   6.270  16.239  0.1222  0.0155 -0.1582
 2871TIP3    H130028   0.125   6.214  16.273  0.1866 -0.1294 -0.2622
 2871TIP3    H230029   0.173   6.283  16.147  1.5966 -2.2159 -0.9231
 2872TIP3   OH230030   2.485   6.646  16.000  0.1938  0.0731  0.4516
 2872TIP3    H130031   2.533   6.568  15.973 -0.3681  0.0039 -0.3997
 2872TIP3    H230032   2.408   6.613  16.047 -0.1143  0.0952 -0.0254
 2873TIP3   OH230033   4.049   6.561   2.440 -0.2049  0.0463 -0.2417
 2873TIP3    H130034   4.135   6.590   2.409 -0.2128  0.7671  0.3660
 2873TIP3    H230035   4.021   6.630   2.500 -0.5900 -0.8533  0.6509
 2874TIP3   OH230036   3.395   2.791   2.284 -0.6748  0.1065  0.3655
 2874TIP3    H130037   3.474   2.755   2.324 -0.9285 -0.0859  0.6957
 2874TIP3    H230038   3.379   2.873   2.331  0.9708  1.6896 -1.6123
 2875TIP3   OH230039   4.857   3.163   5.467  0.1775  0.5114 -0.0304
 2875TIP3    H130040   4.837   3.252   5.437 -0.6509  0.4759  0.4151
 2875TIP3    H230041   4.936   3.140   5.417  0.9153  1.8108  0.4699
 2876TIP3   OH230042   0.500   2.771   0.594 -0.0856 -0.0162 -0.3758
 2876TIP3    H130043   0.415   2.798   0.628  0.4747  1.4661 -0.0203
 2876TIP3    H230044   0.481   2.724   0.513 -1.2460  0.1107 -0.1901
 2877TIP3   OH230045   2.225   3.483  12.860 -0.0242  0.0452  0.1993
 2877TIP3    H130046   2.167   3.541  12.811  0.5758  0.7877  0.3436
 2877TIP3    H230047   2.261   3.424  12.794  0.3459  0.6734 -0.1717
 2878TIP3   OH230048   3.472   2.173  14.473  0.9081 -0.2273 -0.0462
 2878TIP3    H130049   3.460   2.226  14.551 -0.6318  0.5453 -0.7671
 2878TIP3    H230050   3.391   2.183  14.424  2.2612  0.2517 -2.3350
 2879TIP3   OH230051   0.563   4.155   2.067  0.5530  0.1128 -0.7517
 2879TIP3    H130052   0.543   4.178   1.976 -1.1137  0.9120 -0.2217
 2879TIP3    H230053   0.498   4.203   2.118 -0.3312 -2.4699  0.7093
 2880TIP3   OH230054   4.381   1.502   2.556 -0.3515  0.4503  1.1184
 2880TIP3    H130055   4.347   1.443   2.623  0.2133 -1.3932 -0.1458
 2880TIP3    H230056   4.462   1.536   2.593  0.4229 -1.2431  1.0802
 2881TIP3   OH230057   4.603   2.537  14.057 -0.3641  0.0040 -0.3383
 2881TIP3    H130058   4.508   2.534  14.045 -0.3849 -0.5791 -0.0583
 2881TIP3    H230059   4.634   2.456  14.019 -0.2171 -0.8985  1.5726
 2882TIP3   OH230060   5.699   4.297   5.576 -0.8170 -0.1989 -0.2421
 2882TIP3    H130061   5.680   4.360   5.646  0.4233 -0.1137  0.0334
 2882TIP3    H230062   5.671   4.213   5.610 -0.6016 -0.0941  0.1962
 2883TIP3   OH230063   1.184   3.631  12.285  0.2457  0.4723  0.5183
 2883TIP3    H130064   1.261   3.664  12.239  0.8810  0.5094  1.5871
 2883TIP3    H230065   1.197   3.536  12.288  1.3541  0.6238  2.5444
 2884TIP3   OH230066   4.618   0.328   6.135 -0.3384 -0.5380  0.5166
 2884TIP3    H130067   4.630   0.341   6.040  0.5422  0.6638  0.7651
 2884TIP3    H230068   4.569   0.246   6.142 -0.7638 -0.4446 -0.9946
 2885TIP3   OH230069   0.760   1.359  16.670  0.3043  0.3676  0.2218
 2885TIP3    H130070   0.718   1.443  16.688  0.3802  0.1901  1.3135
 2885TIP3    H230071   0.759   1.351  16.575 -1.0884  0.8940  0.1769
 2886TIP3   OH230072   2.466   6.280   5.224  0.7149  0.8483  0.1292
 2886TIP3    H130073   2.552   6.259   5.260  1.2758  1.5840 -0.7174
 2886TIP3    H230074   2.474   6.371   5.194 -0.2780  0.8482 -0.1909
 2887TIP3   OH230075   2.691   2.333   4.886 -0.4476 -0.6773 -0.3896
 2887TIP3    H130076   2.779   2.305   4.912 -0.1447  0.8025  0.2858
 2887TIP3    H230077   2.633   2.289   4.947  0.0803  0.7086  1.2031
 2888TIP3   OH230078   6.763   2.480   1.882  0.1096  0.2865  0.0340
 2888TIP3    H130079   6.668   2.489   1.888  0.0597 -1.0050  4.4879
 2888TIP3    H230080   6.797   2.568   1.901 -0.2289  0.1247  1.4353
 2889TIP3   OH230081   2.869   4.181  14.056 -0.6073 -0.3507 -0.6980
 2889TIP3    H130082   2.839   4.254  14.110  1.0255  0.3570 -0.6859
 2889TIP3    H230083   2.892   4.112  14.119 -0.7170 -0.3106 -0.6151
 2890TIP3   OH230084   3.332   4.432   3.226  0.2983 -0.2413  0.5712
 2890TIP3    H130085   3.326   4.428   3.130  1.2116  1.0993  0.4263
 2890TIP3    H230086   3.306   4.345   3.256  0.3828 -0.8012 -0.9190
 2891TIP3   OH230087   0.181   1.477  14.139  0.0006 -0.2515 -0.1027
 2891TIP3    H130088   0.106   1.475  14.198  1.0034  0.0039  1.2315
 2891TIP3    H230089   0.171   1.559  14.090 -1.3551 -0.9370 -1.0123
 2892TIP3   OH230090   2.554   1.719  13.620 -0.3844  0.2979  0.3970
 2892TIP3    H130091   2.511   1.636  13.639 -2.2962  1.2120  0.4039
 2892TIP3    H230092   2.481   1.779  13.600  0.9872  1.6926 -0.6907
 2893TIP3   OH230093   2.609   0.144   0.336 -0.0759  0.1324  0.0878
 2893TIP3    H130094   2.693   0.105   0.360 -0.0769  0.2560  0.2983
 2893TIP3    H230095   2.543   0.087   0.375 -0.0696  0.5556  0.7269
 2894TIP3   OH230096   0.422   2.324   5.915 -0.2853  0.7376  0.5786
 2894TIP3    H130097   0.508   2.353   5.946 -0.0292  2.2555 -1.3447
 2894TIP3    H230098   0.406   2.243   5.963  2.5701 -0.0374  0.4357
 2895TIP3   OH230099   2.954   6.580  16.333  0.0122  0.3015 -0.6781
 2895TIP3    H130100   2.862   6.585  16.357 -0.3603 -1.9098 -1.4001
 2895TIP3    H230101   2.979   6.671  16.313 -1.8749  0.9937 -0.0634
 2896TIP3   OH230102   2.064   3.325  15.547  0.1339 -0.7556  0.0845
 2896TIP3    H130103   2.042   3.381  15.621  0.3255  3.2828 -2.5784
 2896TIP3    H230104   1.979   3.295  15.513  0.0490 -2.6902  1.7854
 2897TIP3   OH230105   4.646   3.397   4.901 -0.4521 -0.3596 -0.6667
 2897TIP3    H130106   4.679   3.342   4.971  1.2178 -0.5253 -1.5368
 2897TIP3    H230107   4.596   3.466   4.945 -1.2215 -1.6448  0.5252
 2898TIP3   OH230108   4.085   0.192  13.079 -0.2921  0.1607 -0.5245
 2898TIP3    H130109   4.089   0.098  13.060 -0.2843 -0.0203  0.3143
 2898TIP3    H230110   3.992   0.209  13.097  0.1062 -0.4472  2.7729
 2899TIP3   OH230111   1.096   2.401   3.143  1.0592  0.1096 -0.2742
 2899TIP3    H130112   1.019   2.419   3.089  0.1762 -0.8056  0.6416
 2899TIP3    H230113   1.157   2.472   3.122 -0.1461  1.0296 -0.7885
 2900TIP3   OH230114   5.916   3.186   2.808  0.4278  0.0269  0.3052
 2900TIP3    H130115   5.955   3.229   2.731  0.5442 -1.2131 -0.3531
 2900TIP3    H230116   5.824   3.173   2.784  0.0000  1.3166  1.1414
 2901TIP3   OH230117   1.996   2.512  13.020  0.0876  0.0425 -0.2085
 2901TIP3    H130118   1.964   2.531  12.931 -0.5722 -2.2118 -0.5138
 2901TIP3    H230119   1.917   2.499  13.072  0.4409  2.0916  0.9794
 2902TIP3   OH230120   1.040   4.969   4.987 -0.0388  0.0265 -0.2711
 2902TIP3    H130121   0.968   4.947   4.929 -1.2532 -0.0681  1.2163
 2902TIP3    H230122   1.000   5.018   5.058  1.2593 -0.5584  0.9150
 2903TIP3   OH230123   5.859   1.349  12.582 -0.1989 -0.2224 -0.5396
 2903TIP3    H130124   5.773   1.323  12.614 -0.4891  0.4789 -0.7489
 2903TIP3    H230125   5.888   1.274  12.530 -0.0720 -1.0409  0.6650
 2904TIP3   OH230126   3.285   3.126  14.796  0.1466 -0.2828  0.1047
 2904TIP3    H130127   3.306   3.173  14.716 -0.1075 -0.6533 -0.1806
 2904TIP3    H230128   3.258   3.194  14.858 -0.1508 -0.0487 -0.2818
 2905TIP3   OH230129   1.568   5.483  15.030 -0.2536  0.5313  0.2117
 2905TIP3    H130130   1.600   5.572  15.013 -1.0331  1.2678  2.2988
 2905TIP3    H230131   1.473   5.493  15.040 -0.3571 -0.5348  0.4302
 2906TIP3   OH230132   2.436   3.915   1.931 -0.4332 -0.2135 -0.4075
 2906TIP3    H130133   2.526   3.917   1.964 -0.2442  1.7955 -0.9125
 2906TIP3    H230134   2.415   3.822   1.926  1.4749 -0.7278  0.1044
 2907TIP3   OH230135   3.535   1.740  10.669  0.0843 -0.1249  0.6771
 2907TIP3    H130136   3.513   1.720  10.760  0.1307 -0.2899  0.6513
 2907TIP3    H230137   3.484   1.678  10.617 -0.0231  0.0388  0.5857
 2908TIP3   OH230138   0.924   6.538   0.360  0.5742  0.3598  0.1593
 2908TIP3    H130139   1.001   6.591   0.340  0.3722  0.3307 -0.7677
 2908TIP3    H230140   0.927   6.468   0.294  0.6045 -0.5333  1.0926
 2909TIP3   OH230141   3.387   3.225   1.771  0.0648  0.3970  0.4651
 2909TIP3    H130142   3.383   3.138   1.732 -0.1596  0.8618 -0.6042
 2909TIP3    H230143   3.478   3.233   1.802 -0.3773 -0.8560  2.1835
 2910TIP3   OH230144   4.512   2.033  14.250 -0.2684 -0.0706  0.7558
 2910TIP3    H130145   4.493   1.953  14.200  0.5153 -0.6981  1.4303
 2910TIP3    H230146   4.604   2.023  14.276  0.4851  2.0147 -0.8723
 2911TIP3   OH230147   5.507   4.695  15.918  0.1004  0.3036  0.3440
 2911TIP3    H130148   5.514   4.790  15.910 -0.0732  0.1932 -1.7053
 2911TIP3    H230149   5.413   4.677  15.913  0.2120 -0.0483 -0.8234
 2912TIP3   OH230150   4.793   0.663   2.716 -0.1069  0.1507 -0.4042
 2912TIP3    H130151   4.773   0.703   2.632 -0.1797 -1.6850 -1.3124
 2912TIP3    H230152   4.708   0.655   2.760 -0.1343  0.6526 -0.3581
 2913TIP3   OH230153   4.501   4.586   5.663 -0.1335 -0.1864  0.1407
 2913TIP3    H130154   4.500   4.641   5.742 -0.8217  0.7010 -0.4707
 2913TIP3    H230155   4.436   4.626   5.605 -1.6081 -2.3450  0.1614
 2914TIP3   OH230156   0.300   0.983   0.294 -0.4163 -0.5720  0.2548
 2914TIP3    H130157   0.294   1.066   0.341 -1.7970 -0.2703 -0.4093
 2914TIP3    H230158   0.260   0.919   0.352 -0.9758 -0.4307  0.0332
 2915TIP3   OH230159   2.408   6.459  13.080 -0.9078  0.3399  0.3242
 2915TIP3    H130160   2.429   6.405  13.004 -1.5484  0.4910  0.0339
 2915TIP3    H230161   2.487   6.455  13.135 -0.1249  0.8975 -0.7293
 2916TIP3   OH230162   3.079   4.761   2.465 -0.4987  0.6151  0.6074
 2916TIP3    H130163   3.056   4.677   2.504  1.3223 -0.6110 -0.8183
 2916TIP3    H230164   3.165   4.747   2.426 -0.2294  3.0988  0.1393
 2917TIP3   OH230165   6.717   0.858  13.763 -0.3235  0.7541  0.5004
 2917TIP3    H130166   6.778   0.801  13.810 -0.3523  2.0618  2.2382
 2917TIP3    H230167   6.691   0.808  13.686  3.5149  0.4331 -0.7826
 2918TIP3   OH230168   2.377   6.548   2.976  0.9370 -0.1873 -0.0670
 2918TIP3    H130169   2.466   6.582   2.977  0.6964  0.4939  2.0998
 2918TIP3    H230170   2.346   6.557   3.066 -1.9998  1.3387 -1.1021
 2919TIP3   OH230171   6.617   1.455  14.228 -0.6489  0.0230  0.0857
 2919TIP3    H130172   6.594   1.507  14.151 -1.7221  1.8644  1.5660
 2919TIP3    H230173   6.575   1.370  14.213 -1.5416  0.6235 -0.9968
 2920TIP3   OH230174   3.381   6.515  15.118 -0.2761 -0.1568  0.3355
 2920TIP3    H130175   3.432   6.444  15.156 -0.2987 -1.1337 -1.3584
 2920TIP3    H230176   3.383   6.498  15.024 -1.8737  1.0383  0.0508
 2921TIP3   OH230177   3.212   2.446  12.433  1.1429 -0.0210 -0.5345
 2921TIP3    H130178   3.222   2.351  12.440  1.5702 -0.0130 -1.0365
 2921TIP3    H230179   3.125   2.463  12.471  0.7342 -0.6955 -1.1373
 2922TIP3   OH230180   4.740   5.336   5.331 -0.3703  0.4640  0.0247
 2922TIP3    H130181   4.787   5.322   5.248 -1.6124 -0.7010 -0.5322
 2922TIP3    H230182   4.681   5.409   5.313  0.3225  1.1200  0.3416
 2923TIP3   OH230183   0.150   3.853   1.785 -0.1966 -0.3305  0.3229
 2923TIP3    H130184   0.107   3.887   1.707 -2.5292 -1.4309  1.0489
 2923TIP3    H230185   0.183   3.930   1.831 -2.0880  0.6677  0.0920
 2924TIP3   OH230186   2.090   3.150  13.248  0.1314  0.5558  0.3702
 2924TIP3    H130187   2.024   3.204  13.291 -1.7357 -2.5402  1.7601
 2924TIP3    H230188   2.172   3.173  13.291 -0.8460  1.1874  1.9906
 2925TIP3   OH230189   5.604   4.204  12.291  0.2520  0.3003 -0.1429
 2925TIP3    H130190   5.583   4.124  12.339  0.8869 -0.4976 -1.1529
 2925TIP3    H230191   5.696   4.192  12.265  0.4954  1.5621  0.0686
 2926TIP3   OH230192   3.656   3.721   4.462  0.1747  0.3706  0.3893
 2926TIP3    H130193   3.562   3.739   4.455  0.3582  0.8449 -1.6030
 2926TIP3    H230194   3.699   3.800   4.429  1.2532 -0.0731  0.6748
 2927TIP3   OH230195   0.344   1.548   2.788  0.3217 -0.3959 -0.0484
 2927TIP3    H130196   0.413   1.604   2.753 -0.6683  1.5374  0.9463
 2927TIP3    H230197   0.329   1.582   2.877 -1.7714 -0.8716 -0.1738
 2928TIP3   OH230198   1.603   5.899   0.740 -0.1538 -0.5731 -0.0482
 2928TIP3    H130199   1.666   5.964   0.711 -2.1397  1.3976 -0.2466
 2928TIP3    H230200   1.582   5.925   0.830 -1.5951 -0.3800 -0.4135
 2929TIP3   OH230201   2.168   4.907   3.772 -0.5725 -0.4548 -0.9711
 2929TIP3    H130202   2.161   4.972   3.702  0.8235 -1.7432 -2.3529
 2929TIP3    H230203   2.241   4.937   3.825 -1.0475  0.0240 -0.5724
 2930TIP3   OH230204   0.040   4.665   3.244 -0.1637 -0.1040 -0.4066
 2930TIP3    H130205   0.103   4.674   3.172  1.4888 -0.4184  0.9381
 2930TIP3    H230206  -0.043   4.697   3.207  1.0916  1.7835 -1.8107
 2931TIP3   OH230207   6.772   0.241   6.454  0.1663  0.1389  0.3436
 2931TIP3    H130208   6.867   0.253   6.443  0.1050  1.5650  1.1685
 2931TIP3    H230209   6.752   0.283   6.537 -1.4636  1.4508 -0.6617
 2932TIP3   OH230210   5.291   5.280   6.211 -0.1982 -0.3758 -0.0158
 2932TIP3    H130211   5.249   5.326   6.139  0.2979 -0.8189 -0.5949
 2932TIP3    H230212   5.255   5.321   6.290 -0.3865  0.4286 -0.5110
 2933TIP3   OH230213   3.360   1.459   3.560  0.0183 -0.0279  0.4398
 2933TIP3    H130214   3.439   1.447   3.509 -0.4359  0.4025 -0.3825
 2933TIP3    H230215   3.324   1.371   3.570  1.1658 -0.3789  1.7856
 2934TIP3   OH230216   2.320   2.119  12.909 -0.1593 -0.2157  0.2361
 2934TIP3    H130217   2.397   2.088  12.862  0.1435  1.9909 -0.8712
 2934TIP3    H230218   2.338   2.211  12.926 -1.1595 -0.4475  2.9594
 2935TIP3   OH230219   5.563   3.232  14.540 -0.0367  0.1201  0.3619
 2935TIP3    H130220   5.650   3.255  14.573  0.2699  0.7878 -0.8623
 2935TIP3    H230221   5.570   3.140  14.517 -0.0470 -0.1682  1.4327
 2936TIP3   OH230222   1.499   1.484  15.692  0.4191  0.2897  0.7010
 2936TIP3    H130223   1.447   1.518  15.765  0.1356 -0.4838  0.8677
 2936TIP3    H230224   1.584   1.461  15.730  0.8685  1.4594  0.4475
 2937TIP3   OH230225   6.664   5.728   5.865  0.1757  0.0930 -0.3026
 2937TIP3    H130226   6.726   5.782   5.817  0.0664 -1.1832 -1.9785
 2937TIP3    H230227   6.589   5.785   5.881  0.0898  0.4727 -1.9507
 2938TIP3   OH230228   3.845   3.854   5.981 -0.1355  0.0263  0.1579
 2938TIP3    H130229   3.761   3.860   6.027 -0.6218 -1.5775 -0.4588
 2938TIP3    H230230   3.861   3.760   5.972  1.1878  0.3061 -0.7072
 2939TIP3   OH230231   1.818   0.086  12.813  0.7844  0.3467 -0.2262
 2939TIP3    H130232   1.824   0.018  12.746  0.6012  0.4083 -0.3066
 2939TIP3    H230233   1.909   0.103  12.838  0.7554 -1.8796  1.7929
 2940TIP3   OH230234   2.932   2.929   3.328 -0.5651  0.5173 -0.0300
 2940TIP3    H130235   2.911   3.016   3.295  1.9622  0.8062 -1.1116
 2940TIP3    H230236   2.867   2.872   3.286 -1.8493  1.7625  0.1781
 2941TIP3   OH230237   4.292   1.401   0.248 -0.1951 -0.4330  0.5542
 2941TIP3    H130238   4.233   1.378   0.176  1.6322 -0.2676 -1.1161
 2941TIP3    H230239   4.270   1.491   0.269 -0.5518 -0.3785 -0.0278
 2942TIP3   OH230240   5.874   0.379   5.280 -0.3566 -0.0278  0.2294
 2942TIP3    H130241   5.798   0.327   5.308  0.0180 -0.4868  0.4012
 2942TIP3    H230242   5.853   0.468   5.309 -1.0483 -0.0544 -0.1621
 2943TIP3   OH230243   6.649   4.890   1.235  0.3801 -0.1170  0.3837
 2943TIP3    H130244   6.692   4.815   1.276 -1.1717 -1.0851  0.2939
 2943TIP3    H230245   6.614   4.940   1.309  2.3448  1.1607  0.5164
 2944TIP3   OH230246   6.407   4.626   1.204 -0.0167  0.4295  0.3910
 2944TIP3    H130247   6.376   4.538   1.181 -1.8302  0.9149  0.7967
 2944TIP3    H230248   6.365   4.684   1.140  1.7798  0.9511 -0.3586
 2945TIP3   OH230249   0.151   1.181  15.024  0.4152  0.9463 -0.1794
 2945TIP3    H130250   0.185   1.124  14.955 -0.5624  1.5146 -1.1369
 2945TIP3    H230251   0.057   1.166  15.024  0.4687  0.3085  1.6311
 2946TIP3   OH230252   4.561   5.177   5.476 -0.1525  0.0336  0.3358
 2946TIP3    H130253   4.622   5.205   5.408 -0.5199  0.2198  0.0824
 2946TIP3    H230254   4.476   5.213   5.449 -0.8046 -1.9487 -0.4239
 2947TIP3   OH230255   0.782   2.258  12.210  0.4994 -0.6961  0.0359
 2947TIP3    H130256   0.827   2.333  12.250  1.7310 -1.1669 -0.4193
 2947TIP3    H230257   0.747   2.292  12.128  1.2705 -0.6610 -0.2909
 2948TIP3   OH230258   1.224   5.020   4.284  0.1176 -0.5926 -0.2988
 2948TIP3    H130259   1.233   4.949   4.347  0.8380 -0.9484 -0.7962
 2948TIP3    H230260   1.233   5.100   4.336 -1.1194 -0.8380  0.3317
 2949TIP3   OH230261   1.556   2.813  16.265 -0.1363 -0.2861 -0.7433
 2949TIP3    H130262   1.519   2.876  16.327  1.4728 -0.0116 -0.0028
 2949TIP3    H230263   1.551   2.729  16.311 -3.8405 -1.1706 -2.3636
 2950TIP3   OH230264   0.114   1.718   1.762 -0.0685  0.7991 -0.1767
 2950TIP3    H130265   0.201   1.679   1.773  0.4327  2.0167  0.2278
 2950TIP3    H230266   0.122   1.806   1.798 -1.5128  0.8802 -0.0184
 2951TIP3   OH230267   1.652   2.969   3.331  0.1060 -0.0304 -0.1648
 2951TIP3    H130268   1.627   3.042   3.388  1.4222 -0.2224  0.7098
 2951TIP3    H230269   1.601   2.895   3.364 -1.4873  0.5116 -1.2663
 2952TIP3   OH230270   2.039   1.964  12.402  0.0712 -0.0553  0.1186
 2952TIP3    H130271   1.989   1.961  12.484 -0.4106 -2.4093 -0.1909
 2952TIP3    H230272   1.993   2.029  12.348 -1.0055 -0.1745  0.8629
 2953TIP3   OH230273   2.780   5.787   4.541  0.9845 -0.4264  0.0574
 2953TIP3    H130274   2.827   5.853   4.592 -1.1306  1.3032 -0.0751
 2953TIP3    H230275   2.724   5.743   4.606 -2.5763  2.5538 -0.6823
 2954TIP3   OH230276   2.344   2.977   3.500  0.2337  0.5321  0.3778
 2954TIP3    H130277   2.297   3.043   3.551  1.2739  1.3872  0.2677
 2954TIP3    H230278   2.345   3.012   3.411 -2.1352 -1.2432 -0.4573
 2955TIP3   OH230279   2.939   0.951   0.500 -0.9304 -0.1534  0.4399
 2955TIP3    H130280   3.015   0.932   0.555 -0.4202 -0.5839 -0.3818
 2955TIP3    H230281   2.871   0.891   0.531 -0.0549 -1.7838 -0.5924
 2956TIP3   OH230282   1.842   3.563  17.133 -0.2253  0.2720 -0.2529
 2956TIP3    H130283   1.911   3.625  17.112  1.1446 -0.0071  2.8657
 2956TIP3    H230284   1.876   3.478  17.104  1.1057  0.0515  1.7755
 2957TIP3   OH230285   2.556   1.682   0.052 -0.0366  0.1925  0.4783
 2957TIP3    H130286   2.557   1.764   0.100  1.4246  0.8017 -0.5136
 2957TIP3    H230287   2.598   1.619   0.112  1.9333  0.9829  0.0227
 2958TIP3   OH230288   4.356   4.521  16.594  0.2617 -0.2538 -0.0564
 2958TIP3    H130289   4.335   4.587  16.661 -0.1401 -0.9166  0.4834
 2958TIP3    H230290   4.443   4.546  16.564  0.5551 -0.0623  0.8927
 2959TIP3   OH230291   3.076   1.510   3.766  0.1475  0.2391 -0.3580
 2959TIP3    H130292   3.094   1.491   3.674 -0.7592  0.3951 -0.5748
 2959TIP3    H230293   3.048   1.602   3.767 -0.6863 -0.0035 -0.0623
 2960TIP3   OH230294   3.844   1.810   3.269  0.2433  0.2153 -0.1261
 2960TIP3    H130295   3.928   1.815   3.315  0.5278  0.8008 -0.6919
 2960TIP3    H230296   3.849   1.728   3.220  0.4415  0.1929 -0.0710
 2961TIP3   OH230297   0.682   3.570   1.735  0.1078 -0.0450 -0.6833
 2961TIP3    H130298   0.663   3.486   1.692  0.1809 -1.3156  1.5932
 2961TIP3    H230299   0.603   3.622   1.722 -0.4024 -0.9141 -1.1506
 2962TIP3   OH230300   1.177   3.795  10.877  0.4084  0.0734  0.3695
 2962TIP3    H130301   1.124   3.734  10.826  0.9399 -0.1485  0.0756
 2962TIP3    H230302   1.150   3.780  10.967  0.5579 -0.6309  0.3062
 2963TIP3   OH230303   6.481   6.694  16.989  0.0191 -0.0585  0.3236
 2963TIP3    H130304   6.458   6.654  16.905 -0.5529 -1.4032  1.0800
 2963TIP3    H230305   6.430   6.774  16.992 -0.4392 -0.3116 -0.3479
 2964TIP3   OH230306   0.866   4.405  11.747 -0.2640  0.2057 -0.1914
 2964TIP3    H130307   0.863   4.500  11.757 -0.0840  0.0101  2.4607
 2964TIP3    H230308   0.955   4.386  11.716  0.1547  0.8292  0.6114
 2965TIP3   OH230309   4.756   2.521   0.791 -0.3150  0.2241 -0.0139
 2965TIP3    H130310   4.842   2.521   0.833 -0.6270 -0.9390  0.6753
 2965TIP3    H230311   4.735   2.613   0.780  1.0556  0.5315 -0.2854
 2966TIP3   OH230312   2.402   0.758   4.112  0.0839 -0.0676 -0.6040
 2966TIP3    H130313   2.415   0.779   4.204  0.5672 -0.3373 -0.6107
 2966TIP3    H230314   2.308   0.744   4.104  0.4094 -4.6664  0.8605
 2967TIP3   OH230315   4.234   3.284   1.209 -0.3223 -0.6341 -0.3797
 2967TIP3    H130316   4.292   3.266   1.136  1.1990 -1.3765  0.9456
 2967TIP3    H230317   4.164   3.219   1.201 -0.0527 -0.8466 -1.0533
 2968TIP3   OH230318   4.186   3.972   4.922 -0.0177  0.6721 -0.0920
 2968TIP3    H130319   4.141   3.986   4.840 -0.2603  0.3634 -0.0142
 2968TIP3    H230320   4.147   4.034   4.983 -1.9122 -1.0602  0.5668
 2969TIP3   OH230321   4.821   3.352  11.725  0.5391 -0.0071  0.0171
 2969TIP3    H130322   4.908   3.382  11.750  0.6620 -0.8886  0.7388
 2969TIP3    H230323   4.785   3.422  11.672  1.5630  0.5133 -0.0139
 2970TIP3   OH230324   0.075   5.259  16.021  0.3718  0.6268  0.1548
 2970TIP3    H130325   0.093   5.318  15.948  0.3614 -1.2268 -1.4414
 2970TIP3    H230326   0.127   5.293  16.094  2.1029  1.3157 -1.3517
 2971TIP3   OH230327   3.758   6.647  16.162 -0.0853  0.1848 -0.4298
 2971TIP3    H130328   3.707   6.711  16.112 -0.0503  2.1486  1.8652
 2971TIP3    H230329   3.734   6.663  16.253  1.0554 -2.1236  0.3539
 2972TIP3   OH230330   4.493   4.321  12.092  0.0951  0.4891 -0.2115
 2972TIP3    H130331   4.455   4.276  12.017  1.2588  0.3317 -0.7318
 2972TIP3    H230332   4.585   4.333  12.068 -0.2488  3.6732 -0.3784
 2973TIP3   OH230333   1.785   5.070  13.309  0.6874 -0.0325 -0.2140
 2973TIP3    H130334   1.757   5.089  13.398 -1.5134 -1.1153 -0.6266
 2973TIP3    H230335   1.865   5.019  13.320  0.6882  0.2172  1.1178
 2974TIP3   OH230336   5.539   3.595  13.895  0.1071 -0.0530  0.0540
 2974TIP3    H130337   5.453   3.591  13.853 -0.9970  3.0985  1.7132
 2974TIP3    H230338   5.593   3.647  13.835  0.0270  0.1971  0.1937
 2975TIP3   OH230339   3.938   4.879   4.688  0.2957  0.2930  0.3846
 2975TIP3    H130340   3.927   4.874   4.593 -0.0887 -1.8784  0.4763
 2975TIP3    H230341   4.029   4.907   4.700  0.5680 -0.0884 -0.6585
 2976TIP3   OH230342   0.685   2.423  15.654  0.3512  0.2086 -0.2145
 2976TIP3    H130343   0.637   2.505  15.639  0.3265  0.2571  0.1088
 2976TIP3    H230344   0.770   2.437  15.614 -0.5410 -0.5916 -2.5497
 2977TIP3   OH230345   0.937   0.802   0.864  0.1139 -0.6376  0.2210
 2977TIP3    H130346   0.894   0.871   0.813  0.5515 -0.5647 -0.0496
 2977TIP3    H230347   0.884   0.795   0.944 -2.1675 -2.5434 -1.3079
 2978TIP3   OH230348   1.686   3.432  11.448 -0.1108 -0.3674 -0.1845
 2978TIP3    H130349   1.624   3.359  11.441 -0.1476 -0.3475 -0.0743
 2978TIP3    H230350   1.764   3.394  11.488  0.8825 -0.9558 -2.4884
 2979TIP3   OH230351   1.032   1.427   1.820  0.3178  0.2834  0.1656
 2979TIP3    H130352   0.997   1.502   1.770 -1.5882 -0.2446  0.6312
 2979TIP3    H230353   1.008   1.351   1.767  1.6868 -0.0604  0.0152
 2980TIP3   OH230354   4.202   0.854   0.074  0.5093  0.0876  0.5531
 2980TIP3    H130355   4.122   0.838   0.124  0.8580 -0.1564  1.0352
 2980TIP3    H230356   4.185   0.937   0.028  0.4167  0.6413  1.5522
 2981TIP3   OH230357   5.318   2.570   5.268 -0.0530  0.5321 -0.1065
 2981TIP3    H130358   5.337   2.483   5.231  2.0516  1.1803 -0.7099
 2981TIP3    H230359   5.229   2.590   5.239 -0.7596 -1.5852  0.4168
 2982TIP3   OH230360   3.270   4.160   2.638 -0.2721 -0.8277  0.0406
 2982TIP3    H130361   3.215   4.185   2.564  0.7198  0.4776 -0.3046
 2982TIP3    H230362   3.345   4.114   2.599 -0.0276 -0.6423  0.2825
 2983TIP3   OH230363   6.561   4.587   3.887  0.5003  0.7559 -0.4686
 2983TIP3    H130364   6.488   4.526   3.894 -0.6380  2.2295  1.7929
 2983TIP3    H230365   6.615   4.568   3.964  1.9303  0.4600 -1.4988
 2984TIP3   OH230366   2.755   5.267   0.573 -0.0218 -0.0969 -0.0799
 2984TIP3    H130367   2.706   5.221   0.642  0.0409  1.0383  0.7497
 2984TIP3    H230368   2.784   5.198   0.514  1.7092 -1.4052  2.1308
 2985TIP3   OH230369   5.028   3.961   5.256 -0.3258 -0.5130 -0.0709
 2985TIP3    H130370   5.099   4.009   5.297 -0.0817 -1.3360  0.5007
 2985TIP3    H230371   4.949   4.010   5.279 -0.0736 -0.3363  0.4304
 2986TIP3   OH230372   1.231   2.615   0.103  0.1518  0.4336 -0.5514
 2986TIP3    H130373   1.188   2.688   0.147 -0.8612 -0.0496 -0.7204
 2986TIP3    H230374   1.254   2.649   0.016  0.6434  0.8669 -0.2602
 2987TIP3   OH230375   5.158   3.628  13.212  0.2694  0.2700 -0.2658
 2987TIP3    H130376   5.215   3.640  13.136 -0.0045 -1.5202 -0.7991
 2987TIP3    H230377   5.172   3.707  13.265  1.8777  0.6924 -1.2428
 2988TIP3   OH230378   0.534   5.277  16.546  0.1339 -0.1868 -0.4054
 2988TIP3    H130379   0.498   5.351  16.595  0.8473  1.0313 -1.6381
 2988TIP3    H230380   0.458   5.233  16.509 -0.4590 -1.4116  2.0739
 2989TIP3   OH230381   2.285   6.150   0.184 -0.0070 -0.3864 -0.1987
 2989TIP3    H130382   2.294   6.216   0.116  1.2872  0.9392  1.1761
 2989TIP3    H230383   2.207   6.100   0.160 -1.3296  1.9501 -1.0370
 2990TIP3   OH230384   1.234   3.112   0.899 -0.2763  0.5649 -0.1707
 2990TIP3    H130385   1.189   3.055   0.836 -2.0161  3.2772 -1.5981
 2990TIP3    H230386   1.247   3.194   0.851  2.9720  1.1502  1.4522
 2991TIP3   OH230387   4.997   2.015  11.439 -0.2108  0.1427 -0.2732
 2991TIP3    H130388   4.958   2.099  11.415 -0.3637  0.5650  1.3099
 2991TIP3    H230389   5.006   2.019  11.535  2.1778 -0.6082 -0.3929
 2992TIP3   OH230390   1.662   0.251   4.881  0.6362 -0.2705  0.7263
 2992TIP3    H130391   1.607   0.259   4.803  0.9378  1.0697  0.6154
 2992TIP3    H230392   1.681   0.342   4.906  0.8062 -0.6800  2.1779
 2993TIP3   OH230393   1.206   3.406  11.516 -0.4412 -0.2210  0.1566
 2993TIP3    H130394   1.182   3.493  11.548 -1.0317 -0.4659  0.3994
 2993TIP3    H230395   1.213   3.353  11.595 -0.4359 -0.4768 -0.0161
 2994TIP3   OH230396   6.300   4.621  15.718  0.2991 -0.3397  0.1931
 2994TIP3    H130397   6.305   4.714  15.740 -3.9930 -0.1292  1.2007
 2994TIP3    H230398   6.306   4.576  15.802  0.7436 -0.8642 -0.1137
 2995TIP3   OH230399   0.743   1.196  12.362 -0.3405  0.5399 -0.1422
 2995TIP3    H130400   0.820   1.232  12.405 -0.9939  2.1679 -0.2992
 2995TIP3    H230401   0.775   1.170  12.275  0.9895 -2.7974  1.1649
 2996TIP3   OH230402   6.053   0.429   2.104 -0.0585 -0.0034 -0.1865
 2996TIP3    H130403   5.963   0.414   2.076 -0.9203  0.9963  1.8370
 2996TIP3    H230404   6.083   0.344   2.136 -1.0867  0.1176  1.1727
 2997TIP3   OH230405   1.172   0.748   5.809  0.2667  0.3762  0.4916
 2997TIP3    H130406   1.171   0.804   5.886 -1.4660  0.8029  0.2131
 2997TIP3    H230407   1.114   0.675   5.832  0.6805 -0.1026  0.0325
 2998TIP3   OH230408   3.248   3.513   5.242  0.2737 -0.1762 -0.1655
 2998TIP3    H130409   3.193   3.506   5.164  0.8155  1.8954 -0.8091
 2998TIP3    H230410   3.248   3.425   5.279  1.7389 -1.8402 -3.6583
 2999TIP3   OH230411   1.040   1.432  11.839 -0.2972  0.9402 -0.4708
 2999TIP3    H130412   1.080   1.491  11.902 -0.6523  0.5282  0.1529
 2999TIP3    H230413   0.947   1.432  11.862 -0.0714 -1.3255  0.8254
 3000TIP3   OH230414   5.911   0.103  11.712 -0.1270  0.1299 -0.1685
 3000TIP3    H130415   5.843   0.162  11.746 -1.1281 -1.4298  0.6412
 3000TIP3    H230416   5.903   0.024  11.764  0.7677 -0.9734 -1.6242
 3001TIP3   OH230417   1.967   0.339   4.921  0.1015 -0.2853 -0.2742
 3001TIP3    H130418   1.891   0.392   4.945 -0.3493 -1.3572  0.7554
 3001TIP3    H230419   2.042   0.399   4.929 -0.4938  0.4381 -0.0544
 3002TIP3   OH230420   2.155   3.225   1.604 -0.4061  0.3356 -0.0197
 3002TIP3    H130421   2.237   3.183   1.630 -0.8837  0.1126  1.2375
 3002TIP3    H230422   2.108   3.156   1.556  0.5692  0.8085 -1.7114
 3003TIP3   OH230423   2.048   2.866  11.391  0.5635 -0.3657 -0.1807
 3003TIP3    H130424   2.120   2.918  11.354  0.3674  1.6281  1.9389
 3003TIP3    H230425   2.083   2.835  11.475 -0.7728  0.0901  0.5806
 3004TIP3   OH230426   6.056   4.142   4.529 -0.1937 -0.3146  0.1586
 3004TIP3    H130427   5.973   4.113   4.567 -0.3577 -1.3400 -0.9550
 3004TIP3    H230428   6.050   4.238   4.531 -0.8501 -0.3512  1.2421
 3005TIP3   OH230429   0.007   3.136   6.208  0.4844 -0.0667  0.1719
 3005TIP3    H130430  -0.027   3.086   6.134 -0.2779 -1.1562  1.2136
 3005TIP3    H230431   0.028   3.222   6.172 -0.5060 -0.3563 -1.1702
 3006TIP3   OH230432   4.983   1.382  15.925 -0.4185 -0.0907 -0.5847
 3006TIP3    H130433   4.954   1.308  15.871 -0.2507 -0.4457 -0.1950
 3006TIP3    H230434   5.050   1.345  15.982 -0.6992  0.2418 -0.0283
 3007TIP3   OH230435   4.476   2.579   4.406  0.0660  0.3157  0.9491
 3007TIP3    H130436   4.505   2.650   4.349 -1.0516  1.2388  1.4769
 3007TIP3    H230437   4.395   2.548   4.366  1.3826 -1.8193 -0.1896
 3008TIP3   OH230438   4.137   0.131  11.737  0.0202  0.2317 -0.2738
 3008TIP3    H130439   4.114   0.130  11.644 -0.4658 -1.8272 -0.1836
 3008TIP3    H230440   4.232   0.122  11.739 -0.0629 -0.8357 -0.5900
 3009TIP3   OH230441   2.244   6.492   0.916 -0.0348 -0.3538  0.3014
 3009TIP3    H130442   2.256   6.552   0.989 -1.9865  0.8805 -0.2871
 3009TIP3    H230443   2.321   6.505   0.861  1.9951 -2.0926  2.5836
 3010TIP3   OH230444   2.973   6.106  11.143 -0.4036 -0.3303  0.2733
 3010TIP3    H130445   2.948   6.171  11.077  0.1168  1.5703  1.8659
 3010TIP3    H230446   2.935   6.024  11.110 -4.7480  1.4483  0.1801
 3011TIP3   OH230447   3.654   6.259  16.791 -0.1117  0.3536  0.2076
 3011TIP3    H130448   3.618   6.283  16.876  0.1333  2.1859 -0.1610
 3011TIP3    H230449   3.749   6.269  16.801 -0.1634  2.4769 -0.7393
 3012TIP3   OH230450   2.395   3.959  16.397  0.0931 -0.2559  0.2053
 3012TIP3    H130451   2.341   4.038  16.386 -0.6355 -0.9051 -1.0605
 3012TIP3    H230452   2.452   3.980  16.471  0.4322  1.7606 -0.5483
 3013TIP3   OH230453   2.064   2.969   3.742 -0.3067 -0.2565  0.3467
 3013TIP3    H130454   2.130   2.904   3.765 -1.4797 -1.7637 -0.3188
 3013TIP3    H230455   2.090   3.048   3.790  0.2043 -1.7130  2.6611
 3014TIP3   OH230456   6.432   3.833   0.083  0.3238 -0.3211  0.2151
 3014TIP3    H130457   6.462   3.757   0.133  1.9037 -0.3576 -0.7406
 3014TIP3    H230458   6.512   3.877   0.055 -0.4951 -0.0371 -1.8554
 3015TIP3   OH230459   0.386   4.796  16.366  0.1882 -0.1192 -0.2685
 3015TIP3    H130460   0.445   4.818  16.294  1.0755 -0.9192  0.1871
 3015TIP3    H230461   0.360   4.705  16.349  0.3549 -0.2975  0.3698
 3016TIP3   OH230462   2.933   3.393  14.703  0.1963 -0.2673 -0.0695
 3016TIP3    H130463   2.996   3.358  14.640  0.9235 -0.9918  1.0277
 3016TIP3    H230464   2.979   3.389  14.787 -0.4303  1.4777  0.3996
 3017TIP3   OH230465   2.636   1.049   5.056  0.0259  0.4287 -0.3366
 3017TIP3    H130466   2.586   0.984   5.009  0.6306  0.1795 -0.6435
 3017TIP3    H230467   2.572   1.117   5.078 -0.3491  0.3395 -1.1205
 3018TIP3   OH230468   3.113   0.776   5.401  0.1992  0.7433  0.5206
 3018TIP3    H130469   3.063   0.747   5.325  1.3646 -1.1344  0.4006
 3018TIP3    H230470   3.204   0.775   5.371  0.4718  2.9370  1.0768
 3019TIP3   OH230471   1.028   0.042  15.178  0.5724 -0.3992  0.3739
 3019TIP3    H130472   0.952  -0.016  15.176  1.4786 -1.6265  0.6112
 3019TIP3    H230473   0.994   0.124  15.215 -0.5639 -1.0206  0.7578
 3020TIP3   OH230474   6.135   4.984  13.970 -0.4319  0.0530 -0.2484
 3020TIP3    H130475   6.062   4.983  14.032  0.4310  1.2186  0.8350
 3020TIP3    H230476   6.141   5.075  13.941  1.5803  0.3669  0.9503
 3021TIP3   OH230477   0.865   4.761   6.144  0.3771  0.1219  0.6779
 3021TIP3    H130478   0.840   4.772   6.236  0.5990  1.5650  0.6013
 3021TIP3    H230479   0.946   4.811   6.136  0.1374  0.3562 -0.3931
 3022TIP3   OH230480   4.564   5.725   5.442 -0.3520 -0.3806  0.0901
 3022TIP3    H130481   4.482   5.763   5.474  0.4365  0.5461  1.0683
 3022TIP3    H230482   4.537   5.648   5.393 -1.8850  0.4714 -0.4713
 3023TIP3   OH230483   1.514   0.278  16.305  0.3454 -0.3614  0.3095
 3023TIP3    H130484   1.590   0.283  16.363 -0.2655 -0.1905  1.1182
 3023TIP3    H230485   1.453   0.344  16.340  0.1518  0.0798 -0.8141
 3024TIP3   OH230486   5.301   5.117   0.589  0.1212  0.0968  0.5448
 3024TIP3    H130487   5.334   5.040   0.542  1.3345  0.7943  0.2008
 3024TIP3    H230488   5.336   5.106   0.678 -1.2055 -0.6340  1.0016
 3025TIP3   OH230489   4.738   4.510  14.768 -0.0579 -0.0238 -0.3719
 3025TIP3    H130490   4.721   4.539  14.857 -0.8215 -1.2076 -0.1127
 3025TIP3    H230491   4.833   4.520  14.757 -0.0470  0.7190  0.3408
 3026TIP3   OH230492   5.126   2.929  12.146 -0.5632 -0.3702 -0.0600
 3026TIP3    H130493   5.192   2.865  12.174  0.9615  0.8455 -0.7091
 3026TIP3    H230494   5.153   2.955  12.058 -0.8143  1.5224  0.3686
 3027TIP3   OH230495   1.744   6.368   4.426 -0.2460  0.4185  0.5378
 3027TIP3    H130496   1.665   6.314   4.435  1.0479 -2.4426 -2.6761
 3027TIP3    H230497   1.797   6.346   4.503 -0.8306 -1.0211  0.5663
 3028TIP3   OH230498   6.311   0.571   4.122  0.3436  0.3403  0.3499
 3028TIP3    H130499   6.348   0.584   4.034  0.8788  2.0420  0.7840
 3028TIP3    H230500   6.248   0.643   4.132  0.3438  0.2101  1.3846
 3029TIP3   OH230501   4.222   0.240  14.826 -0.1104 -0.8302 -0.3290
 3029TIP3    H130502   4.132   0.262  14.805 -0.4411 -0.0344  1.6936
 3029TIP3    H230503   4.221   0.219  14.920  1.7931 -0.7843 -0.2448
 3030TIP3   OH230504   0.765   0.579  17.203  0.1922 -0.1876  0.1401
 3030TIP3    H130505   0.729   0.519  17.268 -1.6036  0.5809 -0.0881
 3030TIP3    H230506   0.851   0.603  17.237  0.9482 -2.8187  0.2437
 3031TIP3   OH230507   3.520   1.712  14.826  0.5091 -0.3261 -0.0054
 3031TIP3    H130508   3.519   1.638  14.766  1.6982  0.1429 -0.6347
 3031TIP3    H230509   3.582   1.688  14.895  0.0786 -0.3553  0.3801
 3032TIP3   OH230510   4.008   0.057   1.966  0.0699 -0.3617  0.8520
 3032TIP3    H130511   4.004   0.031   1.874 -0.4251  0.5717  0.5953
 3032TIP3    H230512   3.970  -0.016   2.013 -0.8077 -0.3497  0.1977
 3033TIP3   OH230513   6.305   3.352   3.803 -0.5631  0.6902  0.0828
 3033TIP3    H130514   6.295   3.295   3.727 -0.0798 -0.6953  1.0161
 3033TIP3    H230515   6.369   3.417   3.775  1.8573 -1.4756  0.1365
 3034TIP3   OH230516   0.346   3.472   5.412  0.1325 -0.3720  0.5483
 3034TIP3    H130517   0.418   3.466   5.349  0.6568 -0.0367  1.1033
 3034TIP3    H230518   0.338   3.565   5.432  0.6570 -0.5584  1.7399
 3035TIP3   OH230519   1.836   2.720  15.497  0.8549  0.0978 -0.5741
 3035TIP3    H130520   1.847   2.742  15.404  1.8275  0.7365 -0.3243
 3035TIP3    H230521   1.802   2.800  15.537 -1.1130 -0.6605 -0.6321
 3036TIP3   OH230522   6.370   4.529   1.499 -0.1328  0.0551  0.3308
 3036TIP3    H130523   6.312   4.492   1.433 -1.4914  0.1104  1.4525
 3036TIP3    H230524   6.343   4.620   1.508  2.0546  0.9369 -1.1721
 3037TIP3   OH230525   6.614   4.538  13.157  0.2940 -0.1150 -0.5152
 3037TIP3    H130526   6.691   4.516  13.210  0.1389 -1.6062 -0.8600
 3037TIP3    H230527   6.647   4.593  13.087  1.5442 -2.5871 -2.0118
 3038TIP3   OH230528   4.011   0.635  15.846 -0.0938 -0.2342  0.2494
 3038TIP3    H130529   3.978   0.723  15.832  1.8597  0.7680  1.4820
 3038TIP3    H230530   4.072   0.643  15.920  1.5954 -2.2209 -0.8056
 3039TIP3   OH230531   1.425   5.756  16.070 -0.1376 -0.2336  0.1684
 3039TIP3    H130532   1.406   5.825  16.007  0.7677  0.0365  0.1716
 3039TIP3    H230533   1.382   5.678  16.034  2.2886 -0.6949 -2.1029
 3040TIP3   OH230534   6.626   6.249  13.769  0.0694  0.4743  0.5922
 3040TIP3    H130535   6.562   6.179  13.778  0.9303 -0.1527  2.4586
 3040TIP3    H230536   6.706   6.205  13.738 -0.0337  1.0459 -0.5351
 3041TIP3   OH230537   5.978   1.266   2.554  0.1893  0.6205  0.4508
 3041TIP3    H130538   5.986   1.186   2.606  0.4746  0.0242 -0.4958
 3041TIP3    H230539   5.884   1.281   2.547  0.1024 -0.1413 -0.1191
 3042TIP3   OH230540   5.322   2.931   1.013 -0.4962  0.1768 -0.3791
 3042TIP3    H130541   5.368   2.980   1.081  1.1305  0.1204 -1.3851
 3042TIP3    H230542   5.229   2.945   1.032 -0.0828  0.4467  1.6202
 3043TIP3   OH230543   2.253   4.284  11.858 -0.0712 -0.6596 -0.1924
 3043TIP3    H130544   2.291   4.371  11.872 -2.3268  0.3284  0.2429
 3043TIP3    H230545   2.323   4.223  11.879  0.1967  0.9236  4.6705
 3044TIP3   OH230546   3.609   2.347  15.889 -0.1217  0.5262  0.6267
 3044TIP3    H130547   3.594   2.254  15.906  1.2548  0.2498  0.4351
 3044TIP3    H230548   3.590   2.390  15.973  2.1349 -0.2927  1.6351
 3045TIP3   OH230549   3.655   1.055   0.010  0.0620  0.1765 -0.1814
 3045TIP3    H130550   3.575   1.036  -0.037 -0.6395  0.0195  1.0366
 3045TIP3    H230551   3.671   1.148  -0.007  0.4152 -0.1252 -1.5730
 3046TIP3   OH230552   1.608   5.296  17.167 -0.2104 -0.2923  0.6047
 3046TIP3    H130553   1.602   5.391  17.177  0.3053 -0.2960  1.0270
 3046TIP3    H230554   1.671   5.284  17.096  1.5989 -0.3106  2.1057
 3047TIP3   OH230555   0.309   2.453  16.131 -0.3862 -0.3087 -0.2143
 3047TIP3    H130556   0.385   2.506  16.105 -0.3088 -0.2656  0.0887
 3047TIP3    H230557   0.346   2.366  16.146 -0.3968 -0.2885 -0.0711
 3048TIP3   OH230558   2.696   4.063  14.491  0.0195 -0.5131 -0.0883
 3048TIP3    H130559   2.702   4.092  14.582 -0.2377 -1.3580  0.2098
 3048TIP3    H230560   2.725   3.971  14.493  2.2314  0.0964 -1.2424
 3049TIP3   OH230561   4.826   0.392  15.821  0.2068 -0.1794 -0.3431
 3049TIP3    H130562   4.898   0.420  15.764  0.1144  0.7995  0.0021
 3049TIP3    H230563   4.859   0.405  15.910 -1.5542  3.7932 -0.0625
 3050TIP3   OH230564   5.606   0.498   5.104 -0.1487  0.2868 -1.0055
 3050TIP3    H130565   5.622   0.571   5.044 -0.3729  0.2558 -1.1050
 3050TIP3    H230566   5.559   0.538   5.177 -0.4395  0.2071 -1.1485
 3051TIP3   OH230567   5.394   3.053  11.628 -0.7385 -0.2403  0.5099
 3051TIP3    H130568   5.319   3.044  11.569 -0.4374  0.4537  0.0035
 3051TIP3    H230569   5.459   3.101  11.576  0.5533 -1.9053  0.4917
 3052TIP3   OH230570   1.394   3.497   4.487  0.2206 -0.2816  0.0329
 3052TIP3    H130571   1.429   3.415   4.453 -0.0898  0.4985 -2.3986
 3052TIP3    H230572   1.305   3.501   4.453 -0.3983  0.2507  1.6394
 3053TIP3   OH230573   4.006   4.170  14.930  0.0989  0.4981 -0.2915
 3053TIP3    H130574   3.978   4.146  15.019  0.6536 -0.7749 -0.4467
 3053TIP3    H230575   3.950   4.118  14.872  1.3909 -0.5691 -0.6300
 3054TIP3   OH230576   2.471   5.527  15.391  0.0934  0.2733  0.0872
 3054TIP3    H130577   2.531   5.585  15.438  1.7871 -2.4027  1.4478
 3054TIP3    H230578   2.494   5.539  15.299  2.7304 -0.5763  0.5610
 3055TIP3   OH230579   0.528   2.549  16.440  0.3915  0.0426  0.0784
 3055TIP3    H130580   0.459   2.612  16.418  0.6096  0.5454  0.7727
 3055TIP3    H230581   0.603   2.578  16.388  0.1401 -0.3960 -0.5391
 3056TIP3   OH230582   3.932   3.744  14.255 -0.0815 -0.2472  0.8115
 3056TIP3    H130583   3.937   3.698  14.171 -0.2634 -3.0308  2.2242
 3056TIP3    H230584   4.024   3.759  14.280  0.0153 -0.9873  0.9112
 3057TIP3   OH230585   6.338   2.382  15.685  0.0325 -0.3778 -1.1106
 3057TIP3    H130586   6.337   2.352  15.594  2.2199  0.7432 -1.5744
 3057TIP3    H230587   6.431   2.396  15.704 -0.5769  2.7370  0.1570
 3058TIP3   OH230588   3.566   4.661  10.777  0.0143  0.2204  0.5894
 3058TIP3    H130589   3.567   4.569  10.803  0.6800 -0.2944 -1.1038
 3058TIP3    H230590   3.474   4.682  10.762  0.0330 -1.1521 -2.0518
 3059TIP3   OH230591   0.940   5.415  14.500 -0.7105  0.2373 -0.7802
 3059TIP3    H130592   0.996   5.442  14.427 -2.7829 -0.2389 -2.6556
 3059TIP3    H230593   0.894   5.338  14.468 -1.3902 -0.2673  1.2292
 3060TIP3   OH230594   6.023   4.852   6.773 -0.0227  0.1492 -0.4307
 3060TIP3    H130595   6.030   4.948   6.780 -0.5055  0.0820  1.5111
 3060TIP3    H230596   5.941   4.838   6.726  0.8200  0.6643 -2.1533
 3061TIP3   OH230597   3.198   1.604   6.255  0.4369 -0.6623  0.2477
 3061TIP3    H130598   3.226   1.514   6.271  0.3486 -0.8103 -0.4007
 3061TIP3    H230599   3.108   1.596   6.224 -0.2210 -0.2150  1.9489
 3062TIP3   OH230600   5.470   0.145  16.113 -0.0050  0.1123  0.1259
 3062TIP3    H130601   5.497   0.159  16.204  0.4818 -0.6975  0.1125
 3062TIP3    H230602   5.446   0.053  16.108  1.1156 -0.1481 -0.8538
 3063TIP3   OH230603   0.447   3.601   5.831  0.0882  0.1507 -0.3033
 3063TIP3    H130604   0.481   3.525   5.784 -0.2420 -1.4424  1.8878
 3063TIP3    H230605   0.506   3.612   5.905 -1.1151  0.6596  0.6207
 3064TIP3   OH230606   4.402   3.264   3.457  0.5749  0.7232  0.0412
 3064TIP3    H130607   4.308   3.257   3.475  0.4921  1.6230  0.0187
 3064TIP3    H230608   4.439   3.183   3.491 -0.4379 -0.4647 -1.4839
 3065TIP3   OH230609   5.979   2.710   6.585  0.1221  0.5415 -0.2850
 3065TIP3    H130610   5.920   2.638   6.560 -0.3617  0.2267  1.5720
 3065TIP3    H230611   5.923   2.787   6.588 -0.0626  0.3949  0.6634
 3066TIP3   OH230612   5.290   2.125   0.797 -0.5570  0.1734 -0.1867
 3066TIP3    H130613   5.360   2.185   0.822 -1.3315  1.1265 -0.2408
 3066TIP3    H230614   5.237   2.174   0.734 -0.6694 -0.9145 -0.9753
 3067TIP3   OH230615   1.084   3.146  15.481  0.7789 -0.1237 -0.0996
 3067TIP3    H130616   1.156   3.208  15.495 -0.4546  1.1817  0.6224
 3067TIP3    H230617   1.123   3.061  15.502  1.7371  0.7019  1.7138
 3068TIP3   OH230618   4.696   5.575   4.603 -0.0887 -0.1137 -0.3474
 3068TIP3    H130619   4.721   5.549   4.514  0.6970  0.0883 -0.1938
 3068TIP3    H230620   4.755   5.647   4.624  0.7775 -1.1397  0.9061
 3069TIP3   OH230621   3.062   4.456   0.102 -0.0671 -0.1592 -0.5492
 3069TIP3    H130622   3.069   4.361   0.112  1.8080  0.0017 -0.0145
 3069TIP3    H230623   3.017   4.468   0.018  0.8219 -1.5306 -1.2632
 3070TIP3   OH230624   2.320   4.874   0.824  0.1023  1.0138 -0.1703
 3070TIP3    H130625   2.358   4.962   0.825 -0.8718  1.4659 -0.8303
 3070TIP3    H230626   2.358   4.832   0.748  0.7260  0.7900  0.2636
 3071TIP3   OH230627   3.630   0.073   1.493 -0.4409  0.3653 -0.1313
 3071TIP3    H130628   3.660   0.144   1.436  2.3792  0.1765  0.9723
 3071TIP3    H230629   3.646  -0.007   1.443  2.3938  0.1719  0.8952
 3072TIP3   OH230630   6.345   0.466   2.848 -0.1928  0.1668  0.3534
 3072TIP3    H130631   6.314   0.555   2.837 -0.9770 -0.2422 -1.0126
 3072TIP3    H230632   6.432   0.475   2.887 -0.3691  1.5027  0.4712
 3073TIP3   OH230633   0.842   2.987  16.791  0.1289  0.3492 -0.1775
 3073TIP3    H130634   0.752   2.957  16.794  0.2632 -0.1097 -0.5540
 3073TIP3    H230635   0.839   3.070  16.742  0.0480 -0.2081 -1.1358
 3074TIP3   OH230636   6.116   0.419  14.078  0.0948 -0.2091 -0.0899
 3074TIP3    H130637   6.069   0.502  14.078 -0.7172 -0.6447  0.8087
 3074TIP3    H230638   6.195   0.436  14.129 -2.0700 -0.9756  3.9530
 3075TIP3   OH230639   2.403   4.811  13.974  0.2427 -0.4909 -0.1973
 3075TIP3    H130640   2.493   4.828  13.948  0.1032 -2.3476 -2.1626
 3075TIP3    H230641   2.408   4.737  14.034  0.0573 -0.0767  0.3454
 3076TIP3   OH230642   5.094   1.283   0.525  0.4686 -0.3574 -0.3790
 3076TIP3    H130643   5.163   1.217   0.531 -0.4480 -1.1951  3.2202
 3076TIP3    H230644   5.016   1.233   0.500  0.5374  0.0984 -1.5661
 3077TIP3   OH230645   6.720   4.246  14.574  0.4837 -0.1718 -0.0279
 3077TIP3    H130646   6.774   4.207  14.642 -0.4890 -0.3802  0.6412
 3077TIP3    H230647   6.641   4.275  14.619 -0.6270 -1.2406 -1.2100
 3078TIP3   OH230648   5.405   3.359  15.414 -0.3591  0.1765  0.0189
 3078TIP3    H130649   5.451   3.329  15.492 -1.6549  0.7164  1.0192
 3078TIP3    H230650   5.410   3.455  15.418 -3.4996  0.3954  1.4483
 3079TIP3   OH230651   4.047   1.346   5.649 -0.1798 -0.0124 -0.6384
 3079TIP3    H130652   4.123   1.356   5.707 -1.1754 -0.8220  0.8617
 3079TIP3    H230653   4.082   1.302   5.572  1.2110  1.2333 -0.7847
 3080TIP3   OH230654   5.766   0.913   3.884  0.1938  0.2328  0.1975
 3080TIP3    H130655   5.851   0.939   3.919 -0.2205  0.1099  1.3404
 3080TIP3    H230656   5.777   0.821   3.860  0.4451  0.2828  0.1135
 3081TIP3   OH230657   4.541   1.803  14.095 -0.2865 -0.1238  0.1827
 3081TIP3    H130658   4.488   1.810  14.016 -0.0258 -0.1724  0.0030
 3081TIP3    H230659   4.518   1.718  14.132 -0.2566 -0.1893  0.0498
 3082TIP3   OH230660   5.325   3.602  12.132  0.4849  0.2825  0.1288
 3082TIP3    H130661   5.230   3.585  12.135  0.5407  0.0201  2.5424
 3082TIP3    H230662   5.343   3.623  12.040 -2.0080  0.9131 -0.2883
 3083TIP3   OH230663   4.126   5.017   3.381 -0.1117 -0.6055  0.1337
 3083TIP3    H130664   4.066   4.972   3.441 -0.3797  0.2808  0.5412
 3083TIP3    H230665   4.209   5.022   3.429 -0.1810 -0.3511  0.2264
 3084TIP3   OH230666   5.290   0.202   4.316 -0.6529 -0.0565  0.0101
 3084TIP3    H130667   5.291   0.227   4.409 -0.3405  1.3929 -0.3588
 3084TIP3    H230668   5.210   0.241   4.281 -0.2256  0.3319 -0.5560
 3085TIP3   OH230669   3.917   5.279  12.326 -0.6379  0.3039  0.3449
 3085TIP3    H130670   3.903   5.192  12.288 -0.4698  0.2787  0.3389
 3085TIP3    H230671   3.877   5.339  12.263 -0.8708  0.2230  0.4131
 3086TIP3   OH230672   6.560   3.665   1.497  0.1461 -0.1795 -0.0908
 3086TIP3    H130673   6.466   3.662   1.511  0.3420 -0.9363  1.2214
 3086TIP3    H230674   6.570   3.697   1.407 -1.3485 -0.1565 -0.2711
 3087TIP3   OH230675   4.361   3.689  10.691 -0.3605  0.6086  0.1846
 3087TIP3    H130676   4.308   3.767  10.677  1.7642  1.8701 -1.4847
 3087TIP3    H230677   4.325   3.624  10.630 -0.4069  1.2295 -0.4655
 3088TIP3   OH230678   0.665   3.524   5.595  0.6697 -0.2641  0.3693
 3088TIP3    H130679   0.679   3.492   5.505  1.1938 -0.0510  0.3719
 3088TIP3    H230680   0.674   3.619   5.588 -1.5316 -0.0190  0.2409
 3089TIP3   OH230681   4.174   2.105   2.145 -0.0034 -0.4526 -0.1254
 3089TIP3    H130682   4.198   2.188   2.105  0.3416 -1.1970 -1.5612
 3089TIP3    H230683   4.148   2.127   2.234  1.5389  0.9851  0.0078
 3090TIP3   OH230684   6.167   5.380  15.343 -0.0568 -0.2346 -0.6229
 3090TIP3    H130685   6.191   5.363  15.435  0.9016 -1.0623 -1.0087
 3090TIP3    H230686   6.203   5.467  15.325  0.6292 -0.4892 -0.5015
 3091TIP3   OH230687   0.013   5.683   5.270  0.9277  0.1899  0.4273
 3091TIP3    H130688   0.015   5.733   5.188 -0.2222  0.8535  0.7851
 3091TIP3    H230689  -0.002   5.593   5.242  1.1950  0.3075 -0.1228
 3092TIP3   OH230690   1.562   1.562  13.083  0.1790  0.1310 -0.3090
 3092TIP3    H130691   1.546   1.578  13.176  1.1661  0.3909 -0.1749
 3092TIP3    H230692   1.523   1.475  13.067 -0.7385  0.4460  0.1354
 3093TIP3   OH230693   3.206   5.922   1.887  0.0183  0.2286 -0.0117
 3093TIP3    H130694   3.166   5.939   1.802 -1.1888 -2.6194 -0.0945
 3093TIP3    H230695   3.288   5.877   1.867  0.6842  1.2422  0.3314
 3094TIP3   OH230696   4.911   4.496   1.787  0.0934 -0.5566  0.0366
 3094TIP3    H130697   4.866   4.498   1.703  0.5193  0.7399 -0.1752
 3094TIP3    H230698   4.897   4.583   1.824  1.1598 -0.6330  0.6480
 3095TIP3   OH230699   3.891   1.636  12.609  0.3691 -0.1356 -0.2164
 3095TIP3    H130700   3.859   1.550  12.581 -2.4747  0.7352  0.0603
 3095TIP3    H230701   3.911   1.682  12.527 -0.2313 -0.3168 -0.4709
 3096TIP3   OH230702   5.036   1.967  16.696  0.0143  0.2832 -0.0611
 3096TIP3    H130703   5.065   1.990  16.784 -0.0483  0.5978 -0.1194
 3096TIP3    H230704   4.940   1.965  16.702  0.0333 -2.2998  0.5228
 3097TIP3   OH230705   6.733   6.659  16.544  0.3405 -0.5049  0.3252
 3097TIP3    H130706   6.721   6.569  16.512 -0.2484 -0.0058 -0.9179
 3097TIP3    H230707   6.666   6.669  16.612  1.0630 -1.3086  1.1968
 3098TIP3   OH230708   0.219   2.366  17.024 -0.3352  0.1322  0.2967
 3098TIP3    H130709   0.222   2.375  16.929 -1.2744 -0.7108  0.1656
 3098TIP3    H230710   0.186   2.277  17.038 -2.4621  1.0261  1.3972
 3099TIP3   OH230711   3.703   3.938   1.441 -0.0693  0.4023  0.0566
 3099TIP3    H130712   3.749   3.980   1.513  3.3328 -0.3475 -1.4415
 3099TIP3    H230713   3.716   3.844   1.456 -1.9876  0.1107  0.0411
 3100TIP3   OH230714   6.770   0.330  12.724 -0.1063  0.0187  0.1029
 3100TIP3    H130715   6.847   0.292  12.767 -0.0806 -1.2048 -0.9398
 3100TIP3    H230716   6.806   0.386  12.655 -0.1445  0.0953  0.1454
 3101TIP3   OH230717   6.343   4.883   5.788 -1.0794  0.4634  0.6091
 3101TIP3    H130718   6.403   4.898   5.861  0.1155  0.3913 -0.3421
 3101TIP3    H230719   6.343   4.966   5.739 -0.6489  0.0140 -0.1767
 3102TIP3   OH230720   2.722   5.452  15.639  0.1413 -0.0277 -0.1088
 3102TIP3    H130721   2.651   5.510  15.667  1.4225  0.8850  1.4901
 3102TIP3    H230722   2.801   5.493  15.674  1.2969 -1.8405 -0.4463
 3103TIP3   OH230723   0.483   5.564  17.114  0.3949  0.1898  0.3831
 3103TIP3    H130724   0.415   5.623  17.081  0.7205  0.2736 -0.1509
 3103TIP3    H230725   0.444   5.477  17.109 -0.2985  0.4114  1.7233
 3104TIP3   OH230726   4.507   1.411   5.577  0.1096  0.2690  0.2281
 3104TIP3    H130727   4.454   1.362   5.514  0.5884  1.0037 -0.7704
 3104TIP3    H230728   4.514   1.352   5.653  1.9723 -1.9090 -1.4982
 3105TIP3   OH230729   4.180   5.055  11.929  0.5306  0.1305 -0.3141
 3105TIP3    H130730   4.236   5.004  11.872  1.1554  1.8136 -1.2658
 3105TIP3    H230731   4.240   5.108  11.982  0.0229 -1.9834  2.6022
 3106TIP3   OH230732   2.295   4.676  11.050  0.5194  0.2445  0.6087
 3106TIP3    H130733   2.220   4.721  11.089  0.1423 -0.0736  0.2606
 3106TIP3    H230734   2.258   4.599  11.007  1.0104  0.2173  0.2127
 3107TIP3   OH230735   1.215   5.929  15.677  1.1066  0.0270  0.2311
 3107TIP3    H130736   1.290   5.938  15.736  0.7650 -2.7351  1.2615
 3107TIP3    H230737   1.188   5.838  15.688 -1.5808  0.5763 -1.1065
 3108TIP3   OH230738   1.664   0.329   2.343  0.0781 -0.3408  0.8432
 3108TIP3    H130739   1.708   0.244   2.348 -1.0095 -0.9687  0.1489
 3108TIP3    H230740   1.671   0.354   2.250  0.6185  0.4636  1.0907
 3109TIP3   OH230741   3.154   1.880  12.908 -0.0540 -0.2221 -0.0524
 3109TIP3    H130742   3.160   1.903  13.001  1.3305 -0.1901 -0.1347
 3109TIP3    H230743   3.132   1.786  12.909 -0.7436 -0.0679  0.2884
 3110TIP3   OH230744   4.685   2.496   4.038 -0.0483 -0.3771 -0.2817
 3110TIP3    H130745   4.699   2.407   4.070 -4.2907 -0.0251  3.5733
 3110TIP3    H230746   4.727   2.552   4.104 -1.7569  0.4023  0.1961
 3111TIP3   OH230747   3.639   6.710  16.801  0.5486  0.0835  0.5292
 3111TIP3    H130748   3.667   6.801  16.789 -0.1124  0.3018  0.5923
 3111TIP3    H230749   3.557   6.717  16.850  0.7921 -0.5774  1.0350
 3112TIP3   OH230750   1.366   2.901   0.583 -0.5774 -0.1588  0.2629
 3112TIP3    H130751   1.347   2.944   0.500 -0.0601 -0.1512  0.1440
 3112TIP3    H230752   1.280   2.881   0.620 -0.8127 -0.1850 -0.2848
 3113TIP3   OH230753   4.443   0.622   1.708 -0.1196  0.4490 -0.2086
 3113TIP3    H130754   4.450   0.600   1.615 -0.9119  0.4336 -0.2768
 3113TIP3    H230755   4.437   0.718   1.709 -0.8057  0.4164 -0.2404
 3114TIP3   OH230756   5.826   1.779  13.765 -0.7276  0.3359  0.2123
 3114TIP3    H130757   5.803   1.761  13.674 -1.1276  1.5114  0.0560
 3114TIP3    H230758   5.875   1.862  13.761 -0.7417  0.3958  1.0610
 3115TIP3   OH230759   0.307   5.252   5.797  0.1243  0.2038 -0.0030
 3115TIP3    H130760   0.332   5.164   5.767  0.1049  0.1670  0.0849
 3115TIP3    H230761   0.320   5.249   5.892 -0.3335  0.1457  0.0603
 3116TIP3   OH230762   2.138   0.309  13.769  0.0022  0.0179  0.1754
 3116TIP3    H130763   2.176   0.249  13.833 -0.4511 -1.2759 -0.7235
 3116TIP3    H230764   2.205   0.376  13.756  1.4502 -1.4685 -0.3810
 3117TIP3   OH230765   2.410   6.758   2.024 -0.4164 -0.7127  0.0991
 3117TIP3    H130766   2.415   6.678   2.077  0.0745 -0.0235  1.1269
 3117TIP3    H230767   2.482   6.750   1.961  1.4928  0.1839  2.0563
 3118TIP3   OH230768   4.249   0.316  15.982  0.2269 -0.5189 -0.4648
 3118TIP3    H130769   4.161   0.279  15.990 -0.8344  1.6781 -1.2396
 3118TIP3    H230770   4.291   0.296  16.065 -1.7375  0.1490  0.7738
 3119TIP3   OH230771   4.492   3.161  14.470  0.3874 -0.3736  0.3811
 3119TIP3    H130772   4.541   3.169  14.552  1.6273 -0.3918 -0.3411
 3119TIP3    H230773   4.468   3.068  14.465 -0.9529 -0.1104  1.4068
 3120TIP3   OH230774   3.152   1.054   1.884 -0.2010 -0.2175  0.5152
 3120TIP3    H130775   3.243   1.025   1.879  0.0832  0.4919  1.2678
 3120TIP3    H230776   3.157   1.149   1.882 -0.9525 -0.1768  0.3011
 3121TIP3   OH230777   3.935   5.176  11.038 -0.5010  0.3014 -0.6543
 3121TIP3    H130778   4.010   5.149  10.985 -0.5906 -0.0392 -0.6113
 3121TIP3    H230779   3.892   5.243  10.986 -0.2148  0.4392 -0.7186
 3122TIP3   OH230780   5.496   4.731  11.774  0.0653  0.5456  0.2743
 3122TIP3    H130781   5.468   4.645  11.807  1.7036 -0.0954  0.0995
 3122TIP3    H230782   5.446   4.742  11.693  0.8652 -0.9467 -0.4759
 3123TIP3   OH230783   4.771   5.517  16.053  0.1144 -0.2882  0.0420
 3123TIP3    H130784   4.792   5.430  16.021 -2.2564 -1.1745  0.6435
 3123TIP3    H230785   4.714   5.554  15.986 -0.5915 -0.0772  0.7302
 3124TIP3   OH230786   2.237   3.747  11.670 -0.1296 -1.3532 -0.0039
 3124TIP3    H130787   2.177   3.752  11.596 -0.5736  0.4605  0.4262
 3124TIP3    H230788   2.314   3.797  11.643 -0.1204 -1.0344  0.5871
 3125TIP3   OH230789   0.316   2.732  16.612 -0.2175 -0.3480 -0.1408
 3125TIP3    H130790   0.395   2.785  16.614 -0.0868 -0.5538  0.5611
 3125TIP3    H230791   0.311   2.697  16.523  0.0035  0.3742 -0.4377
 3126TIP3   OH230792   6.140   0.988  15.538 -0.3387  0.4898  0.2077
 3126TIP3    H130793   6.155   0.913  15.596 -0.3860  1.7319  1.9120
 3126TIP3    H230794   6.203   1.054  15.567  1.0414  0.4902 -2.5396
 3127TIP3   OH230795   2.379   0.256  15.627 -0.1421 -0.0664 -0.3618
 3127TIP3    H130796   2.404   0.306  15.549 -1.2021 -1.2688 -1.5303
 3127TIP3    H230797   2.327   0.184  15.593 -1.4060 -0.1277  1.5741
 3128TIP3   OH230798   5.262   6.472  16.594 -0.0823 -0.3338 -0.5771
 3128TIP3    H130799   5.235   6.548  16.646 -1.4462 -0.5469 -0.9479
 3128TIP3    H230800   5.335   6.504  16.541 -0.2648  0.5634 -0.3026
 3129TIP3   OH230801   0.169   1.922  14.290  0.1738  0.1793  0.0354
 3129TIP3    H130802   0.083   1.920  14.333 -0.1808  4.5105 -0.0533
 3129TIP3    H230803   0.160   1.861  14.217 -3.2296  1.1235 -0.5295
 3130TIP3   OH230804   0.226   2.659   3.378 -0.1465  0.8472 -0.0683
 3130TIP3    H130805   0.302   2.657   3.319  0.3879  0.0724  0.6334
 3130TIP3    H230806   0.252   2.606   3.453 -2.5714 -2.4216 -1.2799
 3131TIP3   OH230807   6.206   3.389  15.922 -0.4081  0.6371 -0.2567
 3131TIP3    H130808   6.187   3.479  15.896 -0.8754  0.3257 -1.0338
 3131TIP3    H230809   6.210   3.391  16.017  0.0898  1.5770 -0.2903
 3132TIP3   OH230810   2.399   3.968   4.293 -0.5029 -0.0248  0.7421
 3132TIP3    H130811   2.436   3.914   4.223 -1.4865  3.0568 -2.4939
 3132TIP3    H230812   2.315   3.926   4.313 -0.2284 -0.9728  0.0067
 3133TIP3   OH230813   2.384   2.231   3.522 -0.1732  0.5468  0.7953
 3133TIP3    H130814   2.469   2.256   3.559 -0.0574  0.9217  0.2786
 3133TIP3    H230815   2.326   2.225   3.598  0.5032 -0.5024  1.2430
 3134TIP3   OH230816   3.022   3.535  14.031  0.5662  0.4720 -0.1543
 3134TIP3    H130817   3.091   3.562  13.971 -0.6696  0.4386 -1.6268
 3134TIP3    H230818   2.981   3.460  13.989 -1.1703  1.2518  0.0657
 3135TIP3   OH230819   5.210   1.709  13.574 -0.1775  0.5942 -0.4104
 3135TIP3    H130820   5.206   1.721  13.479 -1.2801  1.7262 -0.2539
 3135TIP3    H230821   5.220   1.615  13.586  3.3597  0.6508 -1.6796
 3136TIP3   OH230822   2.258   3.641   0.667 -0.5493  0.0566  0.6673
 3136TIP3    H130823   2.281   3.603   0.751  1.8186 -0.0633  0.0235
 3136TIP3    H230824   2.243   3.734   0.686  1.7832  0.4274  1.0084
 3137TIP3   OH230825   6.018   0.113  15.564 -0.2357  0.1055 -0.2034
 3137TIP3    H130826   5.930   0.108  15.600 -0.5593  0.8907 -0.8608
 3137TIP3    H230827   6.057   0.191  15.605  0.1597 -0.2445  0.0961
 3138TIP3   OH230828   5.500   1.903  14.351  0.1185  0.8301 -0.1476
 3138TIP3    H130829   5.507   1.998  14.349  1.9865  0.7764  1.0952
 3138TIP3    H230830   5.479   1.878  14.261  3.1187  2.2201 -1.3350
 3139TIP3   OH230831   3.419   0.902   6.048  0.1988 -0.4368 -0.0646
 3139TIP3    H130832   3.420   0.877   5.956 -0.1768  1.3021 -0.5740
 3139TIP3    H230833   3.346   0.852   6.085 -1.5664  1.0357 -1.4036
 3140TIP3   OH230834   5.509   4.259   2.844 -0.1325 -0.8409  0.1934
 3140TIP3    H130835   5.435   4.309   2.810 -0.5452 -1.3623  0.3093
 3140TIP3    H230836   5.490   4.249   2.937  0.3672 -0.4929  0.3362
 3141TIP3   OH230837   5.339   2.537   3.921  0.5944  0.0166 -0.2696
 3141TIP3    H130838   5.426   2.514   3.889  0.8244  0.1339  0.2521
 3141TIP3    H230839   5.279   2.487   3.866  1.0518 -1.0624  0.1782
 3142TIP3   OH230840   2.417   4.475   4.645  0.0034 -0.2313 -0.2125
 3142TIP3    H130841   2.408   4.455   4.738 -1.4354  3.5575  0.6349
 3142TIP3    H230842   2.329   4.466   4.609  0.0940  0.5050 -0.6542
 3143TIP3   OH230843   3.067   2.543  12.203 -0.2578  0.4154  0.0157
 3143TIP3    H130844   2.981   2.516  12.171  1.3280 -2.1241 -2.6288
 3143TIP3    H230845   3.076   2.497  12.287 -1.3452  0.4482  0.1646
 3144TIP3   OH230846   6.306   1.931   1.461  0.4140  0.1041  0.4642
 3144TIP3    H130847   6.362   1.855   1.474 -1.2774 -1.2775  0.0726
 3144TIP3    H230848   6.267   1.947   1.547 -2.0215 -1.8712 -0.1251
 3145TIP3   OH230849   1.851   2.099  14.165 -0.1608  0.3571  0.4966
 3145TIP3    H130850   1.806   2.045  14.101 -0.3705  1.1023  0.0105
 3145TIP3    H230851   1.928   2.047  14.190 -1.0216 -0.7138  0.9901
 3146TIP3   OH230852   1.295   3.365  12.629  0.1625  0.0457  0.4890
 3146TIP3    H130853   1.361   3.296  12.638  0.5374  0.4147  0.6177
 3146TIP3    H230854   1.346   3.446  12.626 -0.2890  0.3374  0.6233
 3147TIP3   OH230855   2.242   3.409  11.595  0.0993  0.0598 -0.2943
 3147TIP3    H130856   2.162   3.424  11.647 -1.0726 -0.3246 -1.9241
 3147TIP3    H230857   2.231   3.322  11.559  0.9139  0.3013 -1.1538
 3148TIP3   OH230858   1.337   2.404  12.114 -0.1801 -0.2280  0.6655
 3148TIP3    H130859   1.274   2.393  12.044  0.6667  0.5730 -0.2493
 3148TIP3    H230860   1.288   2.448  12.184 -0.5776  0.6711 -0.1512
 3149TIP3   OH230861   4.374   6.204  10.321 -0.0030  0.0066  0.2285
 3149TIP3    H130862   4.284   6.199  10.288 -0.3063  0.3206  0.9769
 3149TIP3    H230863   4.365   6.247  10.407  1.1392  2.5791 -0.8387
 3150TIP3   OH230864   1.318   5.207  15.895 -0.3814 -0.5916  0.8319
 3150TIP3    H130865   1.260   5.222  15.820 -1.3353  0.9959  1.8498
 3150TIP3    H230866   1.405   5.232  15.862 -0.9788  1.3040  0.5860
 3151TIP3   OH230867   5.994   4.412   1.055 -0.1374 -0.1914 -0.2073
 3151TIP3    H130868   5.903   4.391   1.079 -0.9651  0.0374 -2.8050
 3151TIP3    H230869   6.038   4.328   1.051 -0.5189 -0.4037  0.0178
 3152TIP3   OH230870   4.916   6.494  13.772  0.4390 -0.3398  0.4457
 3152TIP3    H130871   4.824   6.495  13.746  0.9351  1.8594 -1.5970
 3152TIP3    H230872   4.924   6.563  13.837  0.4240 -1.5351  1.7674
 3153TIP3   OH230873   5.825   1.250  11.574 -0.1246  0.1853  0.1061
 3153TIP3    H130874   5.748   1.301  11.549  0.3195 -0.7052 -3.7706
 3153TIP3    H230875   5.815   1.236  11.668 -2.6937  3.2610  0.4822
 3154TIP3   OH230876   0.560   6.359  10.888 -0.2655 -0.2201  0.7196
 3154TIP3    H130877   0.616   6.348  10.965  1.7167  0.9882 -0.4645
 3154TIP3    H230878   0.528   6.271  10.870  1.6706 -1.0888  1.1891
 3155TIP3   OH230879   0.086   1.389  13.317 -0.3801  0.1737  0.3195
 3155TIP3    H130880   0.167   1.427  13.352  1.1231 -0.8337 -1.8835
 3155TIP3    H230881   0.048   1.458  13.262 -1.1025  0.6674  1.3996
 3156TIP3   OH230882   1.918   0.274   5.597 -0.0776 -0.0166  0.1118
 3156TIP3    H130883   1.975   0.289   5.673 -1.0408 -0.1066  0.8751
 3156TIP3    H230884   1.840   0.232   5.634 -0.1633 -0.9331 -1.0719
 3157TIP3   OH230885   0.762   0.967   1.176 -0.1597  0.3296  0.0825
 3157TIP3    H130886   0.846   0.976   1.221 -0.9776  0.0197  1.7439
 3157TIP3    H230887   0.779   0.998   1.087  1.3684  1.6193  0.7752
 3158TIP3   OH230888   5.397   0.159  12.878 -0.2890  0.1856  0.4306
 3158TIP3    H130889   5.370   0.129  12.791 -0.6981 -0.7106  0.8547
 3158TIP3    H230890   5.357   0.246  12.886  0.3663  0.5902 -0.5622
 3159TIP3   OH230891   0.590   5.695  13.895 -0.1720  0.3368 -0.1291
 3159TIP3    H130892   0.627   5.608  13.913 -0.0515  0.4994  0.4351
 3159TIP3    H230893   0.656   5.756  13.928  0.2660  0.6691 -1.5371
 3160TIP3   OH230894   4.559   1.786   2.273 -0.6247 -0.6084 -0.5407
 3160TIP3    H130895   4.619   1.766   2.345  0.4306 -1.0046 -1.5075
 3160TIP3    H230896   4.479   1.818   2.316  0.2368 -0.1647  0.7708
 3161TIP3   OH230897   4.067   4.030   5.349 -0.0485 -0.5517 -0.5570
 3161TIP3    H130898   4.017   4.098   5.304  1.5394 -0.5981 -2.5184
 3161TIP3    H230899   4.001   3.966   5.375 -1.3298  0.7192 -0.5236
 3162TIP3   OH230900   3.729   5.810  14.424 -0.2175 -0.1336  0.0495
 3162TIP3    H130901   3.711   5.844  14.511 -1.6244 -1.4237  0.3274
 3162TIP3    H230902   3.648   5.826  14.375  0.1911 -0.3324 -0.7158
 3163TIP3   OH230903   1.023   4.794   2.316  0.1791  0.3290 -0.2284
 3163TIP3    H130904   1.103   4.817   2.362  0.0512  0.8964 -0.2762
 3163TIP3    H230905   0.963   4.867   2.335 -0.3969 -0.1912 -0.0173
 3164TIP3   OH230906   6.664   0.861  11.900  0.3761 -0.5563  0.0665
 3164TIP3    H130907   6.644   0.772  11.930 -0.9865  0.9354  4.3282
 3164TIP3    H230908   6.729   0.893  11.963  2.5992  0.8473 -2.7052
 3165TIP3   OH230909   6.589   4.036   4.816  0.3087 -0.6269  0.1509
 3165TIP3    H130910   6.608   4.111   4.872 -0.3710 -0.8005  0.6328
 3165TIP3    H230911   6.494   4.023   4.825 -0.3638  0.9899 -3.0910
 3166TIP3   OH230912   4.093   3.072  10.678 -0.4419  0.4708  0.1312
 3166TIP3    H130913   4.052   3.021  10.607 -1.3356 -0.2367  1.1185
 3166TIP3    H230914   4.157   3.127  10.634  0.0332 -0.9750 -1.0797
 3167TIP3   OH230915   4.666   4.086   6.207  0.2035  0.1712  0.0137
 3167TIP3    H130916   4.626   4.147   6.270  1.2430 -0.4851  1.3743
 3167TIP3    H230917   4.596   4.025   6.185 -0.2422  0.5545  0.3400
 3168TIP3   OH230918   3.098   1.158   0.217 -0.5103  0.2989  0.1558
 3168TIP3    H130919   3.098   1.103   0.139 -1.6153 -0.1177  0.4270
 3168TIP3    H230920   3.161   1.228   0.198  1.0437 -1.1061 -0.1470
 3169TIP3   OH230921   0.657   3.440  11.347 -0.5299 -0.2499  0.2353
 3169TIP3    H130922   0.601   3.470  11.276  1.3233 -0.1780 -1.2779
 3169TIP3    H230923   0.712   3.515  11.368  0.4697 -0.9359  0.1627
 3170TIP3   OH230924   2.744   0.808   6.618  0.5992  0.3162 -0.2224
 3170TIP3    H130925   2.830   0.843   6.641  1.0858 -1.0176  0.0824
 3170TIP3    H230926   2.682   0.863   6.666  1.4127 -0.0605  1.3189
 3171TIP3   OH230927   6.209   0.809  10.654 -0.2591  0.2583  0.6751
 3171TIP3    H130928   6.191   0.874  10.586  1.1843  2.0238  1.8832
 3171TIP3    H230929   6.243   0.734  10.605  2.3354  2.0688 -0.5583
 3172TIP3   OH230930   5.143   4.466  17.164 -0.0758 -0.1841  0.0291
 3172TIP3    H130931   5.116   4.374  17.158  0.8845 -0.5840  1.3384
 3172TIP3    H230932   5.073   4.508  17.214 -0.7131 -0.1120 -0.9206
 3173TIP3   OH230933   1.051   2.752  15.970  0.2380  0.0603  0.3740
 3173TIP3    H130934   1.134   2.725  16.009  1.5884  3.5674  0.2866
 3173TIP3    H230935   1.004   2.795  16.041  0.3652  1.7140 -0.4950
 3174TIP3   OH230936   0.150   5.269  14.013  0.7089 -0.1329  1.0202
 3174TIP3    H130937   0.215   5.338  13.997  1.4735 -0.5935  2.0233
 3174TIP3    H230938   0.077   5.314  14.056  0.9126  0.1738  1.0460
 3175TIP3   OH230939   2.502   4.764  11.956  0.1703  0.3848  0.5847
 3175TIP3    H130940   2.506   4.859  11.946  0.9853  0.3675  0.6539
 3175TIP3    H230941   2.570   4.744  12.021  2.2829 -0.5419 -1.7163
 3176TIP3   OH230942   1.096   4.195  16.226 -0.5552 -0.5039 -0.0513
 3176TIP3    H130943   1.066   4.234  16.309  0.5262 -0.3924  0.2966
 3176TIP3    H230944   1.041   4.117  16.216  0.1124 -1.1951  1.4012
 3177TIP3   OH230945   3.318   2.252  11.100 -0.0950  0.3219 -0.4864
 3177TIP3    H130946   3.414   2.252  11.101 -0.0224  0.1569  2.7856
 3177TIP3    H230947   3.294   2.161  11.084  0.3286  0.1825 -0.3326
 3178TIP3   OH230948   3.798   5.838   6.215  0.6418 -0.1792  0.6737
 3178TIP3    H130949   3.741   5.834   6.291  1.0511  0.1105  1.0004
 3178TIP3    H230950   3.861   5.908   6.235  0.8675 -0.2266  0.1549
 3179TIP3   OH230951   1.548   1.118  12.151  0.0072 -0.3982  0.4008
 3179TIP3    H130952   1.625   1.167  12.180  1.6575 -2.7556  0.2748
 3179TIP3    H230953   1.512   1.171  12.079  1.1115  1.0729  0.8642
 3180TIP3   OH230954   0.089   1.472  17.160  0.4403 -0.0539  0.0601
 3180TIP3    H130955   0.052   1.557  17.185  0.5249 -0.1611  0.5674
 3180TIP3    H230956   0.130   1.488  17.075 -2.8966 -0.4875 -1.8211
 3181TIP3   OH230957   5.573   0.392  15.151 -0.0104 -0.1492 -0.3606
 3181TIP3    H130958   5.491   0.434  15.124  0.1460  0.7430  0.5328
 3181TIP3    H230959   5.588   0.422  15.240  1.2299 -0.4083 -0.4617
 3182TIP3   OH230960   5.083   4.026  15.404 -0.0119 -0.1508  0.0994
 3182TIP3    H130961   5.103   3.969  15.479 -1.9412 -1.1637 -0.0783
 3182TIP3    H230962   4.991   4.008  15.386 -0.2922  2.0492 -0.8594
 3183TIP3   OH230963   5.834   0.987   0.758  0.8024 -0.1837  0.1133
 3183TIP3    H130964   5.838   0.976   0.663  1.2047  0.6740  0.0261
 3183TIP3    H230965   5.742   1.004   0.776  1.0279  1.7289 -0.3736
 3184TIP3   OH230966   6.444   1.372  10.812 -0.1212 -0.1668 -0.3576
 3184TIP3    H130967   6.501   1.325  10.751  1.5626  1.8359 -0.4398
 3184TIP3    H230968   6.361   1.383  10.764  0.2075 -1.0744 -1.1584
 3185TIP3   OH230969   6.705   2.375  14.252  0.4738 -0.4078 -0.3044
 3185TIP3    H130970   6.694   2.390  14.158 -1.2380 -1.3591 -0.2960
 3185TIP3    H230971   6.616   2.363  14.285  0.9990  0.4077  1.5447
 3186TIP3   OH230972   5.865   0.653   0.754  0.4134 -0.1839 -0.4328
 3186TIP3    H130973   5.942   0.603   0.780  0.8648  1.0111  0.6348
 3186TIP3    H230974   5.895   0.744   0.750 -0.8091  0.2334 -0.5232
 3187TIP3   OH230975   2.577   1.194  11.789  0.0861  0.2021 -0.1760
 3187TIP3    H130976   2.522   1.271  11.802  0.3039  0.0731  1.7535
 3187TIP3    H230977   2.665   1.229  11.776 -0.1966  0.3500 -1.9733
 3188TIP3   OH230978   4.480   6.301   0.577  0.1549  0.7719  0.3841
 3188TIP3    H130979   4.525   6.246   0.641 -0.8937 -1.0201 -0.3467
 3188TIP3    H230980   4.414   6.243   0.538 -2.2605  3.0159  0.8367
 3189TIP3   OH230981   0.894   1.052   2.820 -0.0432 -0.0082  0.3318
 3189TIP3    H130982   0.938   0.967   2.824 -0.4739 -0.2386  0.1788
 3189TIP3    H230983   0.862   1.067   2.909  1.0663  0.5582  0.6700
 3190TIP3   OH230984   6.689   2.056   1.859 -0.4444 -0.1759  0.0583
 3190TIP3    H130985   6.780   2.071   1.835 -0.4174  0.8417  0.7175
 3190TIP3    H230986   6.685   2.077   1.953 -0.5644 -3.8916  1.0286
 3191TIP3   OH230987   6.707   5.042   1.015  0.4074  0.2620  0.1691
 3191TIP3    H130988   6.705   4.972   0.950  0.8608 -0.9513  1.4141
 3191TIP3    H230989   6.694   4.997   1.098  0.1741  1.7362  0.9567
 3192TIP3   OH230990   4.105   4.063   0.466  0.1460  0.3457 -0.3708
 3192TIP3    H130991   4.053   4.103   0.535 -0.6177  0.3964 -0.9658
 3192TIP3    H230992   4.070   3.974   0.457  0.9462 -0.0226  0.0241
 3193TIP3   OH230993   6.131   4.058  12.372 -0.0556  0.3792 -0.5083
 3193TIP3    H130994   6.124   4.140  12.421  2.1931 -0.3358  1.1970
 3193TIP3    H230995   6.212   4.067  12.322  0.2221 -0.7968 -0.2972
 3194TIP3   OH230996   1.854   3.667   2.968  0.0978 -0.3157 -1.3088
 3194TIP3    H130997   1.875   3.588   2.917 -0.4949  1.1011 -3.9123
 3194TIP3    H230998   1.920   3.731   2.942  1.9089 -0.4253  2.3784
 3195TIP3   OH230999   1.380   2.778  14.025  0.5517  0.1128 -0.2018
 3195TIP3    H131000   1.450   2.729  14.068  0.8030 -0.3289 -1.0950
 3195TIP3    H231001   1.378   2.862  14.071  1.6125  0.1008 -0.1063
 3196TIP3   OH231002   2.341   3.209   5.722 -0.1238 -0.7231 -0.2573
 3196TIP3    H131003   2.394   3.138   5.686 -0.0128  0.0915 -1.7559
 3196TIP3    H231004   2.251   3.186   5.699 -0.2176 -1.0163  0.3879
 3197TIP3   OH231005   4.032   3.704   6.484  0.0295  0.2770  0.1596
 3197TIP3    H131006   4.106   3.713   6.544  0.1878 -0.4093  0.0774
 3197TIP3    H231007   4.066   3.650   6.412 -0.7642 -0.7202  0.5128
 3198TIP3   OH231008   1.214   1.704   4.697 -0.4172  0.4333  0.1461
 3198TIP3    H131009   1.243   1.754   4.773  0.4692 -2.6264  2.0191
 3198TIP3    H231010   1.178   1.623   4.734 -1.0182 -0.7037 -2.6587
 3199TIP3   OH231011   3.861   0.536  11.784  0.2740  0.4768 -0.0270
 3199TIP3    H131012   3.923   0.574  11.847  0.8941 -0.6863  0.0893
 3199TIP3    H231013   3.856   0.601  11.714 -0.9828  2.1323  1.5215
 3200TIP3   OH231014   4.814   4.167  16.435  0.1705  0.5961 -0.8727
 3200TIP3    H131015   4.892   4.215  16.462 -0.0557  0.9154 -0.7790
 3200TIP3    H231016   4.762   4.159  16.515  0.4508 -0.2758 -0.7752
 3201TIP3   OH231017   0.785   1.318  11.132 -0.2624 -0.0353 -0.4766
 3201TIP3    H131018   0.773   1.381  11.203 -0.1983 -0.7233  0.1568
 3201TIP3    H231019   0.761   1.366  11.053 -0.4960  0.6922  0.0267
 3202TIP3   OH231020   1.623   6.566  10.669 -0.3453  0.6226  0.6782
 3202TIP3    H131021   1.633   6.649  10.715 -1.1580  0.7981  0.5437
 3202TIP3    H231022   1.713   6.539  10.649 -0.1053  2.0554 -0.3423
 3203TIP3   OH231023   6.646   0.645   0.701  0.2999  0.1207 -0.0654
 3203TIP3    H131024   6.701   0.689   0.637 -0.1553  0.1202 -0.4629
 3203TIP3    H231025   6.706   0.590   0.751  0.9344  1.4863  0.7062
 3204TIP3   OH231026   2.317   5.532   4.692 -0.1643  0.3919 -0.1010
 3204TIP3    H131027   2.249   5.486   4.643 -1.2782  1.3602  0.4877
 3204TIP3    H231028   2.336   5.475   4.767 -1.2042  0.6487  0.3778
 3205TIP3   OH231029   4.543   1.917   1.609  0.1676 -0.0391  0.1284
 3205TIP3    H131030   4.479   1.863   1.563 -0.1389  0.8904 -0.5686
 3205TIP3    H231031   4.628   1.882   1.581  0.0353  1.2402 -2.1799
 3206TIP3   OH231032   3.085   1.920  11.742  0.2803 -0.1317  0.0598
 3206TIP3    H131033   3.137   1.846  11.774 -1.3987 -1.7266 -0.7273
 3206TIP3    H231034   3.055   1.964  11.821  1.3934 -0.2080  0.5449
 3207TIP3   OH231035   1.541   1.825  11.323 -0.0128  0.5634  0.3344
 3207TIP3    H131036   1.520   1.812  11.231 -1.8552 -1.1749  0.9333
 3207TIP3    H231037   1.634   1.851  11.323  0.4794 -0.9059 -1.9143
 3208TIP3   OH231038   3.303   1.300   3.272  0.6625  0.1208  0.2957
 3208TIP3    H131039   3.231   1.314   3.333 -0.3490 -2.2320 -0.2481
 3208TIP3    H231040   3.320   1.206   3.276  1.4355  0.0923 -2.0773
 3209TIP3   OH231041   2.739   2.523   3.251  0.0050 -0.2187 -0.0745
 3209TIP3    H131042   2.759   2.617   3.254 -0.7743 -0.0481  1.9923
 3209TIP3    H231043   2.682   2.513   3.175 -1.1844  1.3134  0.5503
 3210TIP3   OH231044   2.094   6.349   4.427 -0.3850  0.0887 -0.1351
 3210TIP3    H131045   2.025   6.285   4.443  0.4719 -0.6292  0.8433
 3210TIP3    H231046   2.070   6.424   4.481 -1.9461  1.0700 -2.0825
 3211TIP3   OH231047   1.378   0.513  14.571 -0.6476  0.2648 -0.3759
 3211TIP3    H131048   1.352   0.499  14.480 -2.8351  2.8437 -0.2602
 3211TIP3    H231049   1.335   0.442  14.619  0.1047 -0.8092 -1.2389
 3212TIP3   OH231050   5.903   3.425   3.809  0.2488  0.1628 -0.0352
 3212TIP3    H131051   5.860   3.373   3.877  0.0667 -0.0954 -0.3418
 3212TIP3    H231052   5.832   3.451   3.750  0.3684  0.5955  0.0102
 3213TIP3   OH231053   5.088   4.929  14.805 -0.3526 -0.3229 -0.0289
 3213TIP3    H131054   5.057   5.005  14.757  0.0710 -0.2706 -0.2133
 3213TIP3    H231055   5.026   4.859  14.782 -0.0302 -0.3529 -0.8066
 3214TIP3   OH231056   3.440   1.665   6.155 -0.0059  0.0650  0.6566
 3214TIP3    H131057   3.358   1.651   6.204  0.0888 -0.6065  0.6331
 3214TIP3    H231058   3.507   1.624   6.209  0.0568 -0.9726 -0.1782
 3215TIP3   OH231059   5.725   5.842   5.544  0.0112  0.1814  0.0981
 3215TIP3    H131060   5.793   5.781   5.574  0.3757  1.4789  2.1202
 3215TIP3    H231061   5.762   5.928   5.559 -1.6647  0.9268  0.1898
 3216TIP3   OH231062   1.142   1.897  13.709 -0.1348 -0.3649 -0.2765
 3216TIP3    H131063   1.065   1.949  13.733  0.5798  0.1195  1.0781
 3216TIP3    H231064   1.169   1.932  13.624 -2.0187 -1.2801 -1.3223
 3217TIP3   OH231065   1.955   6.406  11.771  0.5706 -0.2611  0.2009
 3217TIP3    H131066   2.029   6.429  11.828 -0.2392  0.8577  0.8491
 3217TIP3    H231067   1.962   6.467  11.697  0.8074 -0.7644 -0.1984
 3218TIP3   OH231068   5.020   5.453   1.774 -0.3240  0.5701  0.3818
 3218TIP3    H131069   5.104   5.413   1.750 -1.1094 -0.2678 -1.1125
 3218TIP3    H231070   5.013   5.530   1.718 -1.0880 -0.0497 -0.4012
 3219TIP3   OH231071   4.335   3.344   6.099  0.5769  0.0235 -0.5223
 3219TIP3    H131072   4.286   3.381   6.026  2.2781 -0.2960 -1.8802
 3219TIP3    H231073   4.426   3.367   6.082  1.0138  0.0965  1.6218
 3220TIP3   OH231074   4.652   1.345  11.791 -0.0825 -0.5916  0.7654
 3220TIP3    H131075   4.617   1.358  11.879 -2.4776 -1.0315 -0.0530
 3220TIP3    H231076   4.575   1.350  11.734  0.9996 -3.0965 -1.0540
 3221TIP3   OH231077   4.286   6.125  12.340  0.1243  0.8603 -0.4076
 3221TIP3    H131078   4.365   6.128  12.285  0.9880 -0.8408  0.6732
 3221TIP3    H231079   4.231   6.058  12.300  1.1335 -1.0215  1.1756
 3222TIP3   OH231080   4.251   2.861   0.395  0.0839 -0.1446  0.2758
 3222TIP3    H131081   4.156   2.847   0.390  0.1164 -0.5203  0.6609
 3222TIP3    H231082   4.260   2.953   0.420 -0.1931 -0.2157  0.6582
 3223TIP3   OH231083   4.352   5.492   3.333 -0.8207  0.5263  0.8192
 3223TIP3    H131084   4.271   5.492   3.383 -2.0358 -0.3631 -1.0570
 3223TIP3    H231085   4.387   5.403   3.343 -0.3737  0.7335  1.1416
 3224TIP3   OH231086   4.478   1.546  15.549 -0.4301  0.2580  0.2561
 3224TIP3    H131087   4.565   1.578  15.526 -0.0173 -0.4735  0.7200
 3224TIP3    H231088   4.489   1.512  15.638 -1.2147  0.2344  0.3489
 3225TIP3   OH231089   5.109   3.904  16.097  0.8093 -0.4115  0.2910
 3225TIP3    H131090   5.050   3.918  16.171  1.1818 -0.6890  0.6452
 3225TIP3    H231091   5.054   3.865  16.029 -0.1243  2.1122 -0.5052
 3226TIP3   OH231092   1.237   6.539  15.849 -0.0156 -0.2998  0.2152
 3226TIP3    H131093   1.191   6.620  15.873  0.2897 -0.2136  0.5181
 3226TIP3    H231094   1.199   6.514  15.765 -0.7694 -0.3483  0.5642
 3227TIP3   OH231095   0.773   2.332   0.786 -0.4202  0.0464 -0.1478
 3227TIP3    H131096   0.837   2.357   0.854  0.7203  1.6191 -1.6893
 3227TIP3    H231097   0.783   2.238   0.777  1.4980  0.2055 -0.1071
 3228TIP3   OH231098   4.568   4.251   5.741  0.1478  0.8306 -0.1017
 3228TIP3    H131099   4.513   4.199   5.800  0.5744 -0.3731 -0.7374
 3228TIP3    H231100   4.524   4.336   5.736 -1.8104 -0.1626 -0.7653
 3229TIP3   OH231101   1.512   3.618  16.079  0.4787  0.2555  0.5647
 3229TIP3    H131102   1.515   3.701  16.032 -1.0020  0.3258  0.5357
 3229TIP3    H231103   1.500   3.642  16.171  0.0552  0.0869  0.5573
 3230TIP3   OH231104   1.790   6.008  13.440 -0.6078  0.4139 -0.2624
 3230TIP3    H131105   1.831   5.963  13.514 -0.3012 -0.7742 -1.1302
 3230TIP3    H231106   1.825   6.097  13.444 -1.0185  0.5320  1.3279
 3231TIP3   OH231107   3.964   5.959  14.259  0.2667 -0.5919 -0.0088
 3231TIP3    H131108   4.027   5.983  14.191  1.2559 -0.8176  0.8002
 3231TIP3    H231109   3.939   5.869  14.239 -0.4551 -0.2169 -0.8171
 3232TIP3   OH231110   3.064   6.209   4.886 -0.6365  0.5782  0.1355
 3232TIP3    H131111   3.095   6.297   4.868 -1.6074  0.7964 -0.5664
 3232TIP3    H231112   2.978   6.221   4.926 -0.0530 -0.0173  1.6644
 3233TIP3   OH231113   4.093   6.377   4.552 -0.1778  0.7523  0.6782
 3233TIP3    H131114   4.108   6.467   4.579 -0.8011  1.0508  0.0626
 3233TIP3    H231115   4.001   6.360   4.573 -0.8548  1.1787 -1.6661
 3234TIP3   OH231116   3.429   4.213  12.454 -0.1967  0.5266  0.0485
 3234TIP3    H131117   3.379   4.132  12.440  0.8513 -0.4452  1.6131
 3234TIP3    H231118   3.397   4.273  12.386  0.8407 -2.0195 -2.8931
 3235TIP3   OH231119   5.486   0.134   5.218 -0.0852 -0.4660 -0.4498
 3235TIP3    H131120   5.456   0.141   5.127 -1.6366 -0.9940 -0.0205
 3235TIP3    H231121   5.557   0.070   5.216 -1.9106 -2.5952 -0.9500
 3236TIP3   OH231122   1.297   0.409  12.378 -0.2474  0.6153 -0.1932
 3236TIP3    H131123   1.339   0.481  12.332 -0.5959 -0.0771 -1.6670
 3236TIP3    H231124   1.213   0.444  12.406 -0.2156  0.9346 -0.4893
 3237TIP3   OH231125   0.787   5.676   5.396 -0.7457  0.0098  0.5828
 3237TIP3    H131126   0.822   5.757   5.358  0.0626 -0.1443  0.9652
 3237TIP3    H231127   0.835   5.667   5.479 -0.1877 -1.3115  0.1301
 3238TIP3   OH231128   0.534   3.660   4.115  0.2194 -0.0464  0.5602
 3238TIP3    H131129   0.616   3.636   4.160  0.9769  0.1997 -0.6307
 3238TIP3    H231130   0.546   3.628   4.025  0.3577  2.7719 -0.5237
 3239TIP3   OH231131   6.185   3.443  12.680  0.4529 -0.3817 -0.0281
 3239TIP3    H131132   6.188   3.360  12.633  1.4261 -1.0106  1.0872
 3239TIP3    H231133   6.275   3.456  12.711  0.2938  1.0543 -0.1238
 3240TIP3   OH231134   2.407   4.040  11.751 -0.2376 -0.0021  0.0646
 3240TIP3    H131135   2.477   4.106  11.755 -0.8168  0.5610  1.4084
 3240TIP3    H231136   2.403   4.016  11.659  0.6841  1.0942 -0.2923
 3241TIP3   OH231137   1.737   2.470   1.446 -0.0738 -0.0486  0.3325
 3241TIP3    H131138   1.744   2.419   1.526  1.1774 -0.3291  0.0758
 3241TIP3    H231139   1.647   2.502   1.444 -0.4241 -0.9619  1.2751
 3242TIP3   OH231140   0.345   5.530   3.820 -0.1534 -0.5902 -0.3094
 3242TIP3    H131141   0.415   5.475   3.856 -1.5591 -2.3521 -0.1056
 3242TIP3    H231142   0.363   5.617   3.855  1.1936 -1.2657  0.8013
 3243TIP3   OH231143   2.909   4.654  14.356 -0.1524 -0.2134  0.0012
 3243TIP3    H131144   2.946   4.584  14.409 -0.5328 -0.0701  0.4630
 3243TIP3    H231145   2.972   4.726  14.363 -0.1479 -0.2336  0.1708
 3244TIP3   OH231146   0.961   1.488   0.422 -0.0080  0.7802  0.2283
 3244TIP3    H131147   0.868   1.466   0.409  0.4536 -1.8390  0.8684
 3244TIP3    H231148   0.974   1.481   0.516  1.1450 -0.3060  0.0094
 3245TIP3   OH231149   2.087   1.838   1.249  0.2366 -0.3291  0.4134
 3245TIP3    H131150   1.997   1.868   1.261  0.3342  0.8507 -1.4761
 3245TIP3    H231151   2.078   1.745   1.228 -0.6446  0.0263 -0.8689
 3246TIP3   OH231152   1.291   1.226  15.926 -0.3293  1.0054  0.2108
 3246TIP3    H131153   1.271   1.220  15.832 -2.5169  0.7470  0.6525
 3246TIP3    H231154   1.387   1.232  15.929 -0.0317 -0.9912 -1.9493
 3247TIP3   OH231155   4.209   4.880   0.418 -0.0663 -0.5938 -0.4736
 3247TIP3    H131156   4.261   4.902   0.495 -0.9491  0.9733 -0.2809
 3247TIP3    H231157   4.270   4.835   0.360  1.1105 -0.1172  0.3479
 3248TIP3   OH231158   5.997   6.252   3.231 -0.2329  0.0838 -0.2782
 3248TIP3    H131159   6.000   6.340   3.193  0.0740  0.6527  1.0031
 3248TIP3    H231160   6.069   6.205   3.189  2.0715  1.6160  1.6584
 3249TIP3   OH231161   4.921   2.320  15.051  0.7448  0.2717  0.0753
 3249TIP3    H131162   4.870   2.369  15.115 -0.3613 -1.5959  0.7110
 3249TIP3    H231163   4.971   2.257  15.104  1.2134 -0.0788 -0.7743
 3250TIP3   OH231164   5.286   4.493  12.490  0.3526 -0.1391  0.2563
 3250TIP3    H131165   5.278   4.403  12.521  0.8463 -0.6390 -0.9952
 3250TIP3    H231166   5.352   4.489  12.421 -1.7706  0.5952 -1.9636
 3251TIP3   OH231167   6.693   1.572   1.383  0.3505  0.4309  0.2270
 3251TIP3    H131168   6.681   1.534   1.296  1.4616 -2.6227  1.2729
 3251TIP3    H231169   6.750   1.648   1.369 -0.3848  0.6611 -1.7893
 3252TIP3   OH231170   3.516   2.331  10.742 -0.1965 -0.0295  0.0014
 3252TIP3    H131171   3.539   2.424  10.748 -0.5941  0.1254 -0.8045
 3252TIP3    H231172   3.441   2.321  10.800  1.2627 -0.3472  1.9317
 3253TIP3   OH231173   1.036   4.114  16.556  0.2382  0.1608 -0.5507
 3253TIP3    H131174   0.987   4.086  16.634  1.3482  0.9843  0.4665
 3253TIP3    H231175   1.002   4.201  16.537  1.3890  0.8118  0.2674
 3254TIP3   OH231176   5.295   5.247   4.536  0.2269  0.2475  0.2044
 3254TIP3    H131177   5.334   5.333   4.552 -0.7636  0.5948  0.8771
 3254TIP3    H231178   5.344   5.187   4.591 -0.7927  0.8374  1.8236
 3255TIP3   OH231179   2.962   6.028  14.934 -0.0139  0.5714 -0.2617
 3255TIP3    H131180   2.944   6.121  14.924 -0.4155  0.5161 -0.0841
 3255TIP3    H231181   2.881   5.985  14.906 -0.6277  0.3598  1.6802
 3256TIP3   OH231182   5.412   4.261  15.324 -0.3051  0.2217 -0.1025
 3256TIP3    H131183   5.431   4.168  15.340  1.0016  0.6725  1.2741
 3256TIP3    H231184   5.337   4.280  15.380 -0.3950  0.0566 -0.1672
 3257TIP3   OH231185   5.970   2.675   2.105 -0.2018  0.6107  0.0982
 3257TIP3    H131186   6.015   2.627   2.035  0.7324 -0.3280  1.2884
 3257TIP3    H231187   5.978   2.767   2.080 -1.5610  0.2357 -1.9704
 3258TIP3   OH231188   1.486   0.277   3.864 -0.2408  0.4172  0.3988
 3258TIP3    H131189   1.544   0.344   3.898 -0.0665  0.7978 -0.6273
 3258TIP3    H231190   1.399   0.316   3.867 -0.1635  0.6265 -0.0255
 3259TIP3   OH231191   3.368   3.577  16.626 -0.1205  0.0221  0.0193
 3259TIP3    H131192   3.416   3.658  16.609  0.0196 -0.4879 -2.3073
 3259TIP3    H231193   3.308   3.600  16.697  1.0395  1.6961  0.5183
 3260TIP3   OH231194   1.882   2.318  12.533 -0.2234  0.5522  0.8774
 3260TIP3    H131195   1.815   2.259  12.567 -1.5781  0.3044 -1.9107
 3260TIP3    H231196   1.943   2.260  12.486  0.0179  1.0981  0.5092
 3261TIP3   OH231197   2.356   3.326  12.650 -0.6923  0.3306 -0.5222
 3261TIP3    H131198   2.447   3.306  12.672 -0.6365  1.0501 -0.0922
 3261TIP3    H231199   2.343   3.286  12.564 -0.0637 -0.0400 -0.4497
 3262TIP3   OH231200   2.612   2.809  15.209 -0.0467 -0.3692  0.7928
 3262TIP3    H131201   2.597   2.736  15.270 -0.4274 -1.0729 -0.1257
 3262TIP3    H231202   2.548   2.875  15.235 -1.9876 -1.6716 -0.3997
 3263TIP3   OH231203   2.100   6.518   5.609  0.0101  0.0796  0.8459
 3263TIP3    H131204   2.097   6.613   5.617  0.4357 -0.0447  3.7333
 3263TIP3    H231205   2.189   6.499   5.580 -0.7407  0.5527 -2.1283
 3264TIP3   OH231206   3.309   4.987  14.610  0.0350  0.2934 -0.1669
 3264TIP3    H131207   3.328   4.896  14.586 -1.3570 -0.2532  0.6471
 3264TIP3    H231208   3.241   4.980  14.677  1.4753  1.8389  1.5938
 3265TIP3   OH231209   4.349   0.400  13.243  0.0781 -0.1050 -0.1832
 3265TIP3    H131210   4.300   0.450  13.177  1.4117 -0.1877 -1.2923
 3265TIP3    H231211   4.283   0.351  13.291 -0.9503  0.1371 -1.3158
 3266TIP3   OH231212   4.678   0.545   0.614  0.6557  0.3794 -0.6026
 3266TIP3    H131213   4.658   0.494   0.692  0.2314  0.3495 -0.7275
 3266TIP3    H231214   4.595   0.586   0.590  0.8021  0.4576 -0.9857
 3267TIP3   OH231215   0.817   5.548  16.615 -0.2433  0.2380 -0.5710
 3267TIP3    H131216   0.755   5.586  16.677 -2.0979  0.0274 -2.1701
 3267TIP3    H231217   0.836   5.461  16.650 -0.1457  0.6374  0.3962
 3268TIP3   OH231218   1.262   0.902   4.598  0.1498  0.2129  0.2282
 3268TIP3    H131219   1.245   0.970   4.663  2.7836 -0.3919  1.7286
 3268TIP3    H231220   1.348   0.866   4.623 -0.2195 -2.3023 -1.6713
 3269TIP3   OH231221   3.726   0.397  11.424  0.3452 -0.1402  0.1616
 3269TIP3    H131222   3.755   0.346  11.499 -1.2283 -0.6127  0.4940
 3269TIP3    H231223   3.685   0.333  11.366  1.3034  0.2566 -1.0038
 3270TIP3   OH231224   4.888   0.333   3.141 -0.3816 -1.2160  0.5828
 3270TIP3    H131225   4.840   0.414   3.160 -1.6913 -1.1981 -2.2089
 3270TIP3    H231226   4.954   0.327   3.210 -0.1996  2.2406  0.8946
 3271TIP3   OH231227   3.964   1.613  15.255  0.7461  0.1781  0.0612
 3271TIP3    H131228   3.896   1.626  15.189  0.4086  0.3431  0.4430
 3271TIP3    H231229   3.923   1.637  15.338  0.1907 -2.8006  0.7890
 3272TIP3   OH231230   6.139   3.866  11.094 -0.3384  0.2303 -0.3857
 3272TIP3    H131231   6.058   3.877  11.044 -0.7796  0.1374  0.2964
 3272TIP3    H231232   6.131   3.778  11.133  0.1344  0.1811 -0.3912
 3273TIP3   OH231233   2.870   0.320   2.281 -0.1776  0.0317  0.4807
 3273TIP3    H131234   2.954   0.349   2.317 -0.4065  0.3241  0.7804
 3273TIP3    H231235   2.813   0.312   2.357 -0.3480 -0.4236  0.3064
 3274TIP3   OH231236   4.441   4.500  13.422 -0.7180 -0.2634 -0.4909
 3274TIP3    H131237   4.412   4.439  13.490 -2.0770 -0.0712 -0.8659
 3274TIP3    H231238   4.367   4.561  13.412 -0.1535  0.2805 -1.4640
 3275TIP3   OH231239   5.616   4.920  14.136  0.2687  0.2197 -0.3419
 3275TIP3    H131240   5.651   4.893  14.221 -0.0450  1.9008  0.3461
 3275TIP3    H231241   5.685   4.897  14.074  0.5692 -0.8790  0.3644
 3276TIP3   OH231242   2.905   4.959  12.785 -0.3961 -0.2677 -0.4954
 3276TIP3    H131243   2.815   4.930  12.798 -0.3780 -0.0768  0.1099
 3276TIP3    H231244   2.922   4.945  12.692 -1.6533  1.3897 -1.0119
 3277TIP3   OH231245   5.859   0.485  10.391 -0.2123 -0.4635  0.2007
 3277TIP3    H131246   5.884   0.507  10.481  0.7010  1.0389 -0.3781
 3277TIP3    H231247   5.790   0.548  10.370 -0.3669 -0.7621 -0.1842
 3278TIP3   OH231248   2.016   5.207  14.080 -0.1109  0.6093 -0.0671
 3278TIP3    H131249   2.069   5.250  14.014 -0.1396 -1.2873 -1.4051
 3278TIP3    H231250   2.080   5.167  14.139 -0.0770  0.8553  0.0645
 3279TIP3   OH231251   2.726   3.909   4.959  0.5357  0.0026  0.1440
 3279TIP3    H131252   2.762   3.889   4.873 -2.0491 -0.2820 -0.9781
 3279TIP3    H231253   2.670   3.833   4.980  2.4284 -0.7899  2.9433
 3280TIP3   OH231254   5.306   2.410  16.074  0.2675  0.0034 -0.1721
 3280TIP3    H131255   5.272   2.322  16.058 -1.5847  0.5292  0.6661
 3280TIP3    H231256   5.261   2.440  16.153  1.9280  1.1750  0.3926
 3281TIP3   OH231257   1.245   5.831   4.196 -0.3029  0.3375 -0.4762
 3281TIP3    H131258   1.332   5.867   4.176  0.0166 -1.1940 -2.1331
 3281TIP3    H231259   1.184   5.898   4.167  0.3208  1.0121 -0.2414
 3282TIP3   OH231260   6.073   2.152   5.089  0.6004  0.4656 -0.4349
 3282TIP3    H131261   5.987   2.130   5.052  1.5524 -1.8356 -1.4419
 3282TIP3    H231262   6.128   2.171   5.013  1.8254 -1.4601 -0.0955
 3283TIP3   OH231263   3.687   0.721   4.120 -0.4676  0.1115  0.4727
 3283TIP3    H131264   3.645   0.645   4.160  0.4943 -0.5076  0.3286
 3283TIP3    H231265   3.737   0.686   4.046 -3.8096  1.4305 -2.7256
 3284TIP3   OH231266   0.203   0.994  12.714 -0.4791 -0.8134 -0.3328
 3284TIP3    H131267   0.295   0.986  12.689  0.8820  0.3632  3.5507
 3284TIP3    H231268   0.178   0.906  12.744 -0.4673 -1.0176 -0.9196
 3285TIP3   OH231269   0.744   2.902   1.744 -0.2200  0.2736 -0.0072
 3285TIP3    H131270   0.801   2.825   1.741  0.4091  0.7270  0.2014
 3285TIP3    H231271   0.765   2.943   1.828  0.2394  1.2732 -0.5944
 3286TIP3   OH231272   3.012   0.233   0.951  0.4319  0.3066  0.2218
 3286TIP3    H131273   2.970   0.234   0.865  1.2927  0.0303 -0.2230
 3286TIP3    H231274   3.081   0.300   0.944  0.9224 -0.1644  0.4682
 3287TIP3   OH231275   1.298   2.080  12.746  0.0029  0.4032 -0.2617
 3287TIP3    H131276   1.354   2.051  12.818 -1.2630  0.7018  0.8710
 3287TIP3    H231277   1.344   2.051  12.667  1.9585  0.9932  0.6013
 3288TIP3   OH231278   6.405   5.610   5.224 -0.3499 -0.1558  0.3170
 3288TIP3    H131279   6.391   5.585   5.132  0.5539 -1.1407  0.4209
 3288TIP3    H231280   6.395   5.705   5.224 -0.4687 -0.1446 -0.7886
 3289TIP3   OH231281   0.652   5.137   1.333  0.1629  0.1600  0.0632
 3289TIP3    H131282   0.558   5.132   1.353  0.1220 -1.5474 -0.3933
 3289TIP3    H231283   0.680   5.046   1.328  1.5189  0.6143 -1.3448
 3290TIP3   OH231284   1.989   1.880  11.842 -0.0502  0.7372 -0.0068
 3290TIP3    H131285   2.022   1.964  11.809 -1.2491  0.7283 -1.3209
 3290TIP3    H231286   1.918   1.905  11.902 -1.3611  0.6773 -1.4782
 3291TIP3   OH231287   3.438   1.734   2.467  0.1585  0.5300  0.6026
 3291TIP3    H131288   3.503   1.731   2.537 -1.0771  2.0455  1.8845
 3291TIP3    H231289   3.380   1.661   2.484  1.6984 -1.1343 -0.8276
 3292TIP3   OH231290   3.375   4.142  15.424  0.3468 -0.0981  0.0245
 3292TIP3    H131291   3.368   4.149  15.519 -2.0289  2.6752 -0.2034
 3292TIP3    H231292   3.457   4.186  15.403  1.0276 -0.9735  0.7737
 3293TIP3   OH231293   0.983   0.429   4.907 -0.3155 -0.0197  0.1565
 3293TIP3    H131294   0.902   0.465   4.944 -0.5733 -0.9534  0.5227
 3293TIP3    H231295   0.978   0.451   4.814  0.3279  2.3293  0.6267
 3294TIP3   OH231296   3.512   5.021  15.732 -0.0549  0.0028 -0.0730
 3294TIP3    H131297   3.528   5.108  15.695 -0.2678  0.6185  1.2450
 3294TIP3    H231298   3.598   4.979  15.734 -0.0600 -0.1120 -1.3814
 3295TIP3   OH231299   3.906   1.413  14.405 -0.4590 -0.0224 -0.2617
 3295TIP3    H131300   3.960   1.461  14.468 -0.9383  0.1808  0.0010
 3295TIP3    H231301   3.837   1.475  14.381 -0.1345 -0.0036 -1.1911
 3296TIP3   OH231302   4.868   1.589  13.511 -0.3406 -0.4815  0.0425
 3296TIP3    H131303   4.845   1.593  13.418  0.2266  0.1816 -0.0759
 3296TIP3    H231304   4.893   1.678  13.534  2.3580 -1.1439  0.0781
 3297TIP3   OH231305   1.417   0.607  11.126  0.2270  0.0646  0.0954
 3297TIP3    H131306   1.396   0.675  11.062 -1.3244 -0.9702 -0.5465
 3297TIP3    H231307   1.433   0.528  11.073  2.1632 -0.0886  0.8085
 3298TIP3   OH231308   3.541   0.228  11.287  0.4381 -0.0791 -0.1450
 3298TIP3    H131309   3.521   0.137  11.310 -0.0461 -0.4824 -1.9523
 3298TIP3    H231310   3.456   0.273  11.292  0.2693 -0.2319 -1.2208
 3299TIP3   OH231311   4.640   5.182   2.436 -0.2295 -0.1470 -0.0773
 3299TIP3    H131312   4.693   5.237   2.493 -0.3979  0.6784 -0.7061
 3299TIP3    H231313   4.665   5.208   2.347  1.5242 -2.8008 -0.4959
 3300TIP3   OH231314   6.304   3.783   5.360  0.1070 -0.9117 -0.0155
 3300TIP3    H131315   6.276   3.707   5.412 -0.8543 -0.4572  0.1657
 3300TIP3    H231316   6.287   3.858   5.417  3.3377 -0.6537  0.7897
 3301TIP3   OH231317   4.240   2.444  16.860  0.7701 -0.0301 -0.2584
 3301TIP3    H131318   4.200   2.477  16.941 -0.2051 -1.3779 -0.1609
 3301TIP3    H231319   4.214   2.507  16.793  0.0381  0.1161  0.1464
 3302TIP3   OH231320   1.488   1.918   4.231  0.2687  0.3375 -0.2093
 3302TIP3    H131321   1.410   1.950   4.276  0.2933 -0.4876  0.4460
 3302TIP3    H231322   1.553   1.987   4.242  0.4717 -0.0870  1.5666
 3303TIP3   OH231323   4.514   6.428  12.708  0.1384  0.8577 -0.2301
 3303TIP3    H131324   4.440   6.372  12.687 -0.9933  2.3324 -0.2974
 3303TIP3    H231325   4.560   6.439  12.625  1.7135 -1.7123  0.1641
 3304TIP3   OH231326   4.613   4.094  11.581  0.4671  0.0750  0.3829
 3304TIP3    H131327   4.594   4.186  11.565 -3.0575 -0.6113 -0.3929
 3304TIP3    H231328   4.634   4.089  11.674 -1.4550  1.4585  0.9600
 3305TIP3   OH231329   3.071   2.902   4.286  0.0760 -0.3059 -0.3810
 3305TIP3    H131330   3.010   2.971   4.312  0.4970 -0.3774  0.8636
 3305TIP3    H231331   3.078   2.846   4.363 -0.8185 -2.1835 -1.5770
 3306TIP3   OH231332   0.857   2.138   4.192 -0.6670 -0.1355  0.4117
 3306TIP3    H131333   0.799   2.200   4.147 -1.5823 -2.0869 -1.2909
 3306TIP3    H231334   0.895   2.188   4.264 -2.8110  1.8459  0.2848
 3307TIP3   OH231335   1.491   4.857  15.624  0.5878 -0.2593  0.0755
 3307TIP3    H131336   1.465   4.808  15.546 -0.4183  0.8879 -0.3528
 3307TIP3    H231337   1.580   4.886  15.606  0.4000 -0.0929 -0.6154
 3308TIP3   OH231338   0.304   5.451   4.667 -0.2147  0.1804 -0.3326
 3308TIP3    H131339   0.307   5.362   4.633 -0.8327  0.6830 -1.7815
 3308TIP3    H231340   0.239   5.495   4.613 -0.7547  1.2232  1.0932
 3309TIP3   OH231341   0.234   6.370  14.282 -0.0058 -0.1737  0.2573
 3309TIP3    H131342   0.213   6.277  14.294  1.2622 -0.2538  2.2722
 3309TIP3    H231343   0.310   6.370  14.224  0.5164 -0.4718  0.9265
 3310TIP3   OH231344   2.275   5.685  16.399 -0.3372  0.2944  0.6238
 3310TIP3    H131345   2.334   5.674  16.474  0.7851  2.1782  0.0878
 3310TIP3    H231346   2.188   5.690  16.438  0.0014 -0.9255  1.5920
 3311TIP3   OH231347   0.629   4.767   2.311  0.1750  0.3206 -0.2436
 3311TIP3    H131348   0.663   4.723   2.233  0.9210  2.3117 -1.1042
 3311TIP3    H231349   0.707   4.803   2.354 -0.3125 -0.0268  0.9815
 3312TIP3   OH231350   6.437   0.958  13.283  0.5228  0.6348  0.1590
 3312TIP3    H131351   6.376   0.968  13.356  0.2524  0.7586 -0.0813
 3312TIP3    H231352   6.389   0.991  13.207  0.7850  0.4611 -0.0837
 3313TIP3   OH231353   6.434   3.860  11.213  0.3820  0.3549 -0.4517
 3313TIP3    H131354   6.394   3.862  11.126 -0.3001 -1.7819 -0.2509
 3313TIP3    H231355   6.386   3.926  11.263 -0.7601  0.0490 -1.1036
 3314TIP3   OH231356   4.800   2.734  14.180 -0.1772  0.2285 -0.6989
 3314TIP3    H131357   4.746   2.666  14.138 -0.8066 -0.2437  0.7788
 3314TIP3    H231358   4.740   2.808  14.192 -0.3171 -0.0146  0.2407
 3315TIP3   OH231359   5.933   2.661   3.563 -0.3188  0.5723 -0.3763
 3315TIP3    H131360   5.945   2.746   3.520 -0.6055  0.0020 -1.6593
 3315TIP3    H231361   6.013   2.613   3.542 -0.7824  0.0258 -0.9384
 3316TIP3   OH231362   4.408   2.377  13.461 -0.4510  0.2188  0.0422
 3316TIP3    H131363   4.369   2.452  13.505 -0.9566 -0.4890  0.8484
 3316TIP3    H231364   4.410   2.308  13.528  1.9039  0.1071 -0.0587
 3317TIP3   OH231365   3.112   5.720  16.292 -0.0330 -0.6446  0.7148
 3317TIP3    H131366   3.060   5.728  16.213  0.2321 -1.8433  0.4069
 3317TIP3    H231367   3.133   5.811  16.316 -0.0043 -0.2727 -0.6487
 3318TIP3   OH231368   1.313   3.283   2.460 -0.1612 -0.3572  0.0474
 3318TIP3    H131369   1.325   3.311   2.369 -0.5680  3.4604  0.9965
 3318TIP3    H231370   1.402   3.274   2.494  0.0013 -0.2172 -0.3306
 3319TIP3   OH231371   5.958   5.726  13.025  0.4317 -0.1712 -0.4664
 3319TIP3    H131372   5.890   5.791  13.041 -1.4418 -1.7266 -1.6878
 3319TIP3    H231373   5.944   5.699  12.934  1.6054 -1.7849 -0.2035
 3320TIP3   OH231374   3.757   2.146  16.385 -0.2933 -0.1441  0.0156
 3320TIP3    H131375   3.794   2.087  16.319 -0.5599  1.2368 -1.4525
 3320TIP3    H231376   3.676   2.103  16.413  0.1190 -1.0286 -0.1305
 3321TIP3   OH231377   0.727   5.551   1.096 -0.1834 -0.6461  0.0374
 3321TIP3    H131378   0.795   5.511   1.151  1.0880 -1.2101 -1.8373
 3321TIP3    H231379   0.750   5.643   1.093 -0.6343 -0.4918  0.9273
 3322TIP3   OH231380   4.424   1.186   6.045  0.2466 -0.2233 -0.6790
 3322TIP3    H131381   4.338   1.168   6.083  0.4508  0.9766  0.4282
 3322TIP3    H231382   4.486   1.157   6.111  0.6451  0.5810 -0.6873
 3323TIP3   OH231383   5.789   5.467  15.952  0.1531  0.3233  0.0565
 3323TIP3    H131384   5.737   5.391  15.979  0.9370  0.1442  1.1612
 3323TIP3    H231385   5.791   5.524  16.029 -1.3309  2.0284 -1.0861
 3324TIP3   OH231386   1.794   4.387   6.268  0.7773  0.3250  0.1031
 3324TIP3    H131387   1.760   4.477   6.267  1.3038  0.5265  0.1008
 3324TIP3    H231388   1.882   4.395   6.304  1.0848 -0.1007 -0.5357
 3325TIP3   OH231389   3.247   1.592  14.946 -0.0882  0.1326  0.0517
 3325TIP3    H131390   3.304   1.613  14.872 -0.7397 -1.8374 -1.0774
 3325TIP3    H231391   3.161   1.625  14.920 -0.4033 -0.9081 -0.2859
 3326TIP3   OH231392   1.986   1.508   2.512  0.1200 -0.0764  0.4615
 3326TIP3    H131393   1.902   1.471   2.485  0.5231  0.0059 -0.9985
 3326TIP3    H231394   1.975   1.529   2.604 -1.5086  0.0349  0.2654
 3327TIP3   OH231395   1.112   2.674  16.657 -0.2357  1.0969 -0.2588
 3327TIP3    H131396   1.112   2.623  16.576  0.8843 -0.1467  0.4641
 3327TIP3    H231397   1.027   2.657  16.697 -0.1580  0.3569 -0.3893
 3328TIP3   OH231398   3.453   3.007  14.979  0.0501  0.4391  0.2870
 3328TIP3    H131399   3.432   3.062  15.054  0.0318  1.2594 -0.3039
 3328TIP3    H231400   3.396   3.038  14.909 -1.9703 -2.1202  0.6296
 3329TIP3   OH231401   1.591   0.517   3.241  0.2864  0.0714 -0.0534
 3329TIP3    H131402   1.613   0.585   3.177  0.3991  0.8144  0.7571
 3329TIP3    H231403   1.673   0.470   3.256  0.1378 -0.4710 -0.8544
 3330TIP3   OH231404   4.293   3.065  12.429 -0.4182 -0.2432  0.3219
 3330TIP3    H131405   4.246   3.127  12.486  0.5145  1.8415 -1.0242
 3330TIP3    H231406   4.238   3.059  12.351 -0.1965 -0.6310  0.1948
 3331TIP3   OH231407   4.749   2.397   1.821  0.0836  0.1454  0.3772
 3331TIP3    H131408   4.701   2.388   1.903 -0.1431  0.2264  0.2541
 3331TIP3    H231409   4.780   2.488   1.821  1.7527 -0.3820  1.2811
 3332TIP3   OH231410   1.719   1.018   4.840 -0.1944 -0.1811  0.4929
 3332TIP3    H131411   1.774   1.095   4.830 -0.8457  0.3723  1.0892
 3332TIP3    H231412   1.778   0.951   4.875  0.5999 -0.2620 -0.9330
 3333TIP3   OH231413   0.424   0.443   0.009  0.1434  0.1088  0.2451
 3333TIP3    H131414   0.497   0.454   0.070 -0.1965  0.2534  0.6342
 3333TIP3    H231415   0.459   0.386  -0.059  0.4100 -0.3986  0.7913
 3334TIP3   OH231416   1.523   3.852  15.955  0.2391  0.2303 -0.3147
 3334TIP3    H131417   1.512   3.871  15.862 -1.6525 -0.9802 -0.4044
 3334TIP3    H231418   1.471   3.919  16.000  2.2948  1.6996  0.0195
 3335TIP3   OH231419   1.984   4.669   5.236  0.1246 -0.5747 -0.0406
 3335TIP3    H131420   1.971   4.764   5.237 -0.1067 -0.6045  0.0555
 3335TIP3    H231421   2.072   4.656   5.271 -0.8562 -0.5358  2.6942
 3336TIP3   OH231422   4.833   1.729   4.632  0.0356  0.2594 -0.0912
 3336TIP3    H131423   4.803   1.670   4.563  0.0495  0.6205 -0.4153
 3336TIP3    H231424   4.859   1.809   4.585 -0.6772  0.7934  0.3959
 3337TIP3   OH231425   4.009   3.333   6.668 -0.6472  0.1705  0.0688
 3337TIP3    H131426   4.104   3.340   6.659 -0.2985 -0.6945  2.3765
 3337TIP3    H231427   3.991   3.357   6.759 -2.5776 -0.2291 -0.1560
 3338TIP3   OH231428   1.827   4.530   0.584  0.1279 -0.1188  0.4183
 3338TIP3    H131429   1.834   4.624   0.599  2.5471 -0.2576  0.5697
 3338TIP3    H231430   1.773   4.499   0.657  1.0254  0.9118  1.5875
 3339TIP3   OH231431   3.623   1.995   0.671  0.4241  0.0692 -0.4917
 3339TIP3    H131432   3.567   2.071   0.686  3.0350  2.3284 -1.3933
 3339TIP3    H231433   3.664   2.011   0.586  3.3476 -0.7891  0.6305
 3340TIP3   OH231434   4.127   4.202  12.156  0.7781 -0.1947 -0.4269
 3340TIP3    H131435   4.042   4.245  12.162 -0.2888 -2.1725 -0.6987
 3340TIP3    H231436   4.181   4.248  12.221 -1.6900 -1.4816  2.8200
 3341TIP3   OH231437   0.287   3.702   2.234  1.1009  0.7973  0.3957
 3341TIP3    H131438   0.222   3.768   2.209  0.0844  0.4851  2.0369
 3341TIP3    H231439   0.286   3.703   2.330  1.6208 -1.0638  0.4561
 3342TIP3   OH231440   0.339   1.583   6.394 -0.0368 -0.1181  0.4339
 3342TIP3    H131441   0.406   1.643   6.428  0.2411  0.5884 -1.2581
 3342TIP3    H231442   0.266   1.641   6.369  0.1033 -0.4952 -0.9177
 3343TIP3   OH231443   2.886   4.393   3.630 -0.1917 -0.1612  0.6188
 3343TIP3    H131444   2.850   4.427   3.548  1.7633  1.5240  0.3786
 3343TIP3    H231445   2.973   4.361   3.606  0.8646  1.3549  2.1890
 3344TIP3   OH231446   4.600   5.962  13.918 -0.1421  0.0607  0.0208
 3344TIP3    H131447   4.514   5.994  13.943 -0.5401 -1.0246  0.1229
 3344TIP3    H231448   4.646   5.947  14.000  0.2194  0.8195 -0.0394
 3345TIP3   OH231449   4.227   1.894   5.642  0.1228 -0.3459  0.2780
 3345TIP3    H131450   4.288   1.963   5.618 -0.3640 -0.8631 -2.8582
 3345TIP3    H231451   4.282   1.826   5.682  1.4776 -0.3285 -1.4513
 3346TIP3   OH231452   2.151   2.921   2.617  0.1978 -0.0155 -0.2157
 3346TIP3    H131453   2.167   2.872   2.537 -0.1313  0.3007 -0.4801
 3346TIP3    H231454   2.124   3.008   2.587  0.7887  0.3399  0.2444
 3347TIP3   OH231455   6.699   2.324   3.810 -0.0940  0.3283  0.4314
 3347TIP3    H131456   6.611   2.306   3.842 -1.2634 -1.7625 -3.3700
 3347TIP3    H231457   6.689   2.401   3.754  0.7438  0.6429  0.6913
 3348TIP3   OH231458   4.437   6.020   6.317 -0.9018 -0.6181  0.2501
 3348TIP3    H131459   4.410   6.111   6.304 -0.0402 -0.6453 -2.3381
 3348TIP3    H231460   4.519   6.026   6.366 -0.6273  0.0421 -0.2718
 3349TIP3   OH231461   4.467   6.180   1.831 -0.2225  0.3369 -0.2262
 3349TIP3    H131462   4.497   6.269   1.809 -0.4882  0.6607  0.6416
 3349TIP3    H231463   4.398   6.194   1.895 -1.1440 -0.4642 -1.0226
 3350TIP3   OH231464   1.719   2.914  15.169  0.1816  0.5723 -0.2750
 3350TIP3    H131465   1.790   2.954  15.220  0.5825  0.8792 -1.0605
 3350TIP3    H231466   1.686   2.844  15.225 -0.3856  1.8429  1.0445
 3351TIP3   OH231467   1.595   3.684   6.198 -0.0535  0.2020  0.0020
 3351TIP3    H131468   1.633   3.656   6.114  0.7788  1.2194  0.0167
 3351TIP3    H231469   1.659   3.656   6.263 -0.7509 -0.6779  0.3208
 3352TIP3   OH231470   2.553   2.119  13.566 -0.0580  0.0495 -0.0243
 3352TIP3    H131471   2.585   2.208  13.552  2.2187 -0.6851  0.1758
 3352TIP3    H231472   2.508   2.122  13.650 -0.2072  1.0409 -0.1286
 3353TIP3   OH231473   2.097   2.830   1.752  0.1163 -0.5894 -0.3072
 3353TIP3    H131474   2.189   2.835   1.778 -0.6064  2.1176  2.2742
 3353TIP3    H231475   2.094   2.870   1.666  1.3857 -1.1251 -0.6181
 3354TIP3   OH231476   5.311   2.479   0.947  0.4680  0.1025 -0.1605
 3354TIP3    H131477   5.222   2.459   0.974  1.1995 -1.6305  1.1524
 3354TIP3    H231478   5.340   2.548   1.007  0.1066  0.5041 -0.4419
 3355TIP3   OH231479   2.717   0.314  16.675 -0.3004 -0.4658  0.6603
 3355TIP3    H131480   2.812   0.330  16.668 -0.0091 -2.3164 -0.1371
 3355TIP3    H231481   2.685   0.387  16.728  1.7464 -0.3462  1.8684
 3356TIP3   OH231482   3.547   5.852  10.605 -0.1990 -0.2336 -0.5841
 3356TIP3    H131483   3.494   5.774  10.593  0.3204 -0.8141  0.7171
 3356TIP3    H231484   3.631   5.820  10.638  0.6895  0.7327 -1.7749
 3357TIP3   OH231485   1.813   1.728   4.640 -0.7722  0.2234 -0.1691
 3357TIP3    H131486   1.794   1.783   4.565  1.0364  1.3360  0.1287
 3357TIP3    H231487   1.828   1.789   4.712  1.9982 -0.5342  0.0087
 3358TIP3   OH231488   4.121   4.203  11.879 -0.0358  0.0329 -0.2991
 3358TIP3    H131489   4.116   4.299  11.883 -2.8832  0.0230 -1.3513
 3358TIP3    H231490   4.131   4.177  11.971 -0.8405  1.3035  0.1852
 3359TIP3   OH231491   4.148   1.964   0.896  0.3213 -1.0626  0.1943
 3359TIP3    H131492   4.238   1.947   0.923  0.5268 -0.9024 -0.3854
 3359TIP3    H231493   4.095   1.922   0.964  0.8265 -1.0062  0.6372
 3360TIP3   OH231494   1.966   4.365   3.006  0.3943  0.5283  0.1359
 3360TIP3    H131495   1.984   4.271   3.003  0.4436  0.5537 -0.5245
 3360TIP3    H231496   2.051   4.406   2.992  0.3918  0.6731  0.5446
 3361TIP3   OH231497   3.086   4.914  12.477 -0.0895 -0.3432  0.2185
 3361TIP3    H131498   3.088   5.000  12.436  0.2590 -1.3855 -2.1020
 3361TIP3    H231499   3.178   4.891  12.489 -0.1528 -0.7924 -0.1157
 3362TIP3   OH231500   1.684   5.991   2.700 -0.2381 -0.2342  0.3631
 3362TIP3    H131501   1.622   6.056   2.735  1.8990  1.8284  0.5086
 3362TIP3    H231502   1.644   5.962   2.618 -1.0074  1.7255 -0.0101
 3363TIP3   OH231503   5.158   4.762   5.614 -0.2343 -0.2914  0.4528
 3363TIP3    H131504   5.167   4.856   5.601 -1.4672 -0.2727 -0.3874
 3363TIP3    H231505   5.240   4.736   5.655  0.2681  1.0881  0.3755
 3364TIP3   OH231506   1.662   4.299  14.491 -0.7534  0.0730 -0.1632
 3364TIP3    H131507   1.699   4.383  14.519 -0.6803 -0.3550  1.0755
 3364TIP3    H231508   1.646   4.310  14.397 -0.2456  1.2839 -0.1251
 3365TIP3   OH231509   2.459   3.987  12.993  0.6097  0.4016  0.3773
 3365TIP3    H131510   2.493   3.899  13.006 -0.2835  0.0261  0.2688
 3365TIP3    H231511   2.376   3.974  12.947 -0.8714  1.0988  2.6951
 3366TIP3   OH231512   2.176   3.296   2.285  0.3099  0.3979  0.4197
 3366TIP3    H131513   2.161   3.212   2.241  1.6949  0.4336 -0.1861
 3366TIP3    H231514   2.088   3.328   2.305 -0.2426 -2.0215  2.3400
 3367TIP3   OH231515   1.133   6.342  13.689 -0.2816 -0.0912 -0.2209
 3367TIP3    H131516   1.096   6.400  13.622  0.6036 -0.7864 -1.3462
 3367TIP3    H231517   1.076   6.265  13.688 -0.4131  0.0019  0.0103
 3368TIP3   OH231518   2.762   5.573  11.188 -0.2008 -0.0240 -0.3759
 3368TIP3    H131519   2.841   5.580  11.135  0.3759 -0.6196  0.3811
 3368TIP3    H231520   2.724   5.661  11.186  1.6499  0.8901  1.0094
 3369TIP3   OH231521   3.886   2.357  16.094 -0.0165 -0.8452 -0.1198
 3369TIP3    H131522   3.920   2.372  16.006  0.8707  1.7864  0.5610
 3369TIP3    H231523   3.933   2.279  16.125 -1.1803 -2.5028 -2.2966
 3370TIP3   OH231524   0.938   0.576   6.215 -0.0466  0.0727  0.0754
 3370TIP3    H131525   1.033   0.589   6.213 -0.0497  0.0962 -1.6351
 3370TIP3    H231526   0.903   0.665   6.218 -0.0209  0.0522  1.1405
 3371TIP3   OH231527   4.123   0.980  13.544  0.3571  0.7670 -0.3683
 3371TIP3    H131528   4.131   1.074  13.560 -3.0972  1.0858  0.2634
 3371TIP3    H231529   4.078   0.946  13.622  0.0420 -1.0866 -1.2934
 3372TIP3   OH231530   4.364   2.157   5.132  0.5239  0.3930 -0.4897
 3372TIP3    H131531   4.346   2.116   5.216  0.2050  1.0555 -0.2282
 3372TIP3    H231532   4.426   2.098   5.089  1.3180  0.4587  0.5408
 3373TIP3   OH231533   6.763   5.392   5.277 -0.4004 -0.4922 -0.1787
 3373TIP3    H131534   6.816   5.343   5.339 -1.2638 -1.0370  0.1397
 3373TIP3    H231535   6.745   5.330   5.206 -0.1583 -0.1425 -0.5560
 3374TIP3   OH231536   0.647   4.350  13.787 -0.2319  0.0443 -0.6399
 3374TIP3    H131537   0.629   4.395  13.705 -0.2395  0.2288 -0.5362
 3374TIP3    H231538   0.673   4.419  13.848 -2.4283  0.2318  0.1805
 3375TIP3   OH231539   2.010   1.024  15.094 -0.0981  0.0138  0.1391
 3375TIP3    H131540   2.060   1.100  15.066  1.4261 -1.4734 -1.4845
 3375TIP3    H231541   1.931   1.025  15.041 -0.7680  1.1742  1.1190
 3376TIP3   OH231542   3.040   1.995  13.867  0.4450  0.1670  0.3052
 3376TIP3    H131543   3.071   1.920  13.817 -2.1070 -1.4450  0.9338
 3376TIP3    H231544   2.994   2.049  13.803  1.4766  0.7300  0.0255
 3377TIP3   OH231545   4.725   2.330  16.997  0.2625 -0.0266  0.2146
 3377TIP3    H131546   4.796   2.394  17.009 -0.6305  0.9656  0.3173
 3377TIP3    H231547   4.719   2.286  17.081 -0.4432  1.1637  0.8167
 3378TIP3   OH231548   3.423   1.107  11.778  0.1903 -0.2005 -0.2349
 3378TIP3    H131549   3.422   1.089  11.872  0.5958 -0.6459 -0.3073
 3378TIP3    H231550   3.510   1.077  11.749  1.4585  2.9787 -0.1671
 3379TIP3   OH231551   2.107   3.632  10.915  0.0991  0.4633 -0.3560
 3379TIP3    H131552   2.074   3.707  10.865 -0.7135  1.1626  1.1432
 3379TIP3    H231553   2.071   3.556  10.870 -1.3349  1.1044 -0.3669
 3380TIP3   OH231554   3.879   5.505   5.411  0.0646 -0.7310  0.3315
 3380TIP3    H131555   3.953   5.471   5.360  0.0970 -1.8159  1.0620
 3380TIP3    H231556   3.911   5.588   5.447  2.2753 -2.6487  3.3392
 3381TIP3   OH231557   2.500   0.684   1.772 -0.1597  0.1479 -0.1748
 3381TIP3    H131558   2.572   0.646   1.723  0.4337  1.2015 -0.1387
 3381TIP3    H231559   2.468   0.613   1.827 -0.2520 -0.7977 -1.4176
 3382TIP3   OH231560   2.178   2.202   3.686  0.0226 -0.2862 -0.9169
 3382TIP3    H131561   2.120   2.263   3.639  1.1991  1.5153 -0.1158
 3382TIP3    H231562   2.141   2.197   3.774  1.3741  1.3951 -0.2010
 3383TIP3   OH231563   1.395   6.266   0.313 -0.1623 -0.4851  0.5155
 3383TIP3    H131564   1.445   6.226   0.384 -1.0864 -1.2665  0.7379
 3383TIP3    H231565   1.369   6.352   0.348 -0.2212 -0.6762  0.9423
 3384TIP3   OH231566   2.721   3.713  16.245 -0.1997  0.5816 -0.0642
 3384TIP3    H131567   2.787   3.656  16.206 -1.9670 -0.7704 -1.2559
 3384TIP3    H231568   2.721   3.689  16.338 -0.1003 -0.5573 -0.3366
 3385TIP3   OH231569   3.950   1.727   5.153  0.0444 -0.3359 -0.2018
 3385TIP3    H131570   4.018   1.788   5.181 -0.0544 -0.0581 -0.5722
 3385TIP3    H231571   3.992   1.641   5.156  0.2942 -0.2079 -0.0508
 3386TIP3   OH231572   1.665   5.055   3.703  0.0307  0.0270  0.4493
 3386TIP3    H131573   1.675   5.027   3.794 -0.5593 -1.0273  0.2131
 3386TIP3    H231574   1.578   5.094   3.700 -0.0245 -0.1050  0.3054
 3387TIP3   OH231575   2.428   2.736  12.655  0.1766 -0.2152  0.3260
 3387TIP3    H131576   2.454   2.758  12.744  1.2212 -0.5703  0.1208
 3387TIP3    H231577   2.346   2.687  12.665 -0.4807  0.9558  0.9800
 3388TIP3   OH231578   1.512   6.175  15.013 -0.0825  0.3996 -0.1386
 3388TIP3    H131579   1.603   6.170  15.044  0.8891  0.9784 -2.6775
 3388TIP3    H231580   1.478   6.086  15.023  1.6791 -0.5036 -1.6326
 3389TIP3   OH231581   6.746   5.693  12.824  0.2063 -0.0330  0.4009
 3389TIP3    H131582   6.793   5.679  12.907  1.5860 -2.2428 -0.6510
 3389TIP3    H231583   6.808   5.741  12.769  0.0555 -0.2779  0.0138
 3390TIP3   OH231584   5.203   1.221   4.545  0.1828 -0.3183  0.1108
 3390TIP3    H131585   5.130   1.283   4.541 -0.2029 -0.7325  0.5351
 3390TIP3    H231586   5.231   1.211   4.454 -0.4217 -0.2950 -0.0862
 3391TIP3   OH231587   5.745   2.160   0.490  0.2942  0.1309  0.2460
 3391TIP3    H131588   5.832   2.121   0.500  0.0253 -0.3382  0.7852
 3391TIP3    H231589   5.694   2.126   0.563  0.0558  1.5280  0.7584
 3392TIP3   OH231590   1.160   2.477   4.935 -0.1872 -0.1392  0.6730
 3392TIP3    H131591   1.228   2.544   4.941 -0.4088  0.5980 -2.9139
 3392TIP3    H231592   1.088   2.519   4.888 -1.1557 -2.2783  0.0855
 3393TIP3   OH231593   0.566   1.397   1.529  0.1644 -0.9621  0.5639
 3393TIP3    H131594   0.511   1.331   1.488 -0.8960  0.2376 -0.0290
 3393TIP3    H231595   0.513   1.430   1.602  0.6565 -0.7245  0.8194
 3394TIP3   OH231596   2.473   3.070   2.451 -0.1137  0.5653  0.3684
 3394TIP3    H131597   2.428   3.069   2.367 -0.9542  1.1800  0.7949
 3394TIP3    H231598   2.519   3.154   2.453  2.4146 -0.6842 -0.7212
 3395TIP3   OH231599   6.033   2.280  16.062 -0.6389 -0.2915  0.0389
 3395TIP3    H131600   6.046   2.365  16.105  0.0712  0.1011 -0.9065
 3395TIP3    H231601   6.042   2.300  15.968 -0.9215 -1.3365 -0.2148
 3396TIP3   OH231602   0.704   1.213  17.218 -0.2167  0.6683 -0.3114
 3396TIP3    H131603   0.659   1.172  17.144 -2.8445  0.2552  1.3980
 3396TIP3    H231604   0.694   1.307  17.203  1.0843  0.6626 -1.4645
 3397TIP3   OH231605   4.933   1.095   1.451  0.0010 -0.1105  0.0173
 3397TIP3    H131606   4.847   1.127   1.481  0.4056  0.1307  0.9673
 3397TIP3    H231607   4.996   1.156   1.490  0.8254 -2.1939  2.1619
 3398TIP3   OH231608   3.353   3.766  12.512  0.2048 -0.4908 -0.8576
 3398TIP3    H131609   3.371   3.816  12.433 -1.6667  1.3877 -0.1809
 3398TIP3    H231610   3.263   3.735  12.501  0.0329 -0.4733  0.3787
 3399TIP3   OH231611   0.333   5.034   2.688  0.2748 -0.1497  0.3505
 3399TIP3    H131612   0.296   4.983   2.616 -0.9842  1.5101 -0.2460
 3399TIP3    H231613   0.272   5.021   2.761  1.4068 -1.6144  1.0985
 3400TIP3   OH231614   2.295   4.135   2.970  0.1724  0.0813  0.4337
 3400TIP3    H131615   2.302   4.160   2.878  0.6053 -0.5799  0.2812
 3400TIP3    H231616   2.203   4.110   2.981  0.1648 -0.0423  0.1198
 3401TIP3   OH231617   3.831   0.424  15.911 -0.2131 -0.4017 -0.5269
 3401TIP3    H131618   3.749   0.458  15.945 -0.2172 -2.5135  1.8481
 3401TIP3    H231619   3.888   0.501  15.904 -1.9743  0.9044 -1.0572
 3402TIP3   OH231620   2.066   2.185   1.100 -0.2488  0.1716 -0.3962
 3402TIP3    H131621   2.159   2.200   1.116 -0.2685  2.3585 -1.9175
 3402TIP3    H231622   2.022   2.228   1.173 -0.1241 -1.7292  0.8805
 3403TIP3   OH231623   5.059   6.666  12.046  0.1876 -0.0631  0.0275
 3403TIP3    H131624   5.105   6.750  12.039  1.7142 -0.8975 -0.1714
 3403TIP3    H231625   5.124   6.600  12.025 -0.5380 -1.4308  1.7885
 3404TIP3   OH231626   0.317   0.420   5.734  0.4104  0.0798 -0.1924
 3404TIP3    H131627   0.292   0.357   5.801  0.9983 -0.2069 -0.2295
 3404TIP3    H231628   0.412   0.412   5.729  0.3226 -0.3652 -1.5018
 3405TIP3   OH231629   6.242   4.267   2.044 -0.3074  0.0184  0.2433
 3405TIP3    H131630   6.274   4.304   2.127 -1.4269  2.9446 -0.5114
 3405TIP3    H231631   6.320   4.262   1.988  0.1857 -0.5675  0.9556
 3406TIP3   OH231632   4.811   0.931  16.996 -0.7540  0.2953 -0.2320
 3406TIP3    H131633   4.717   0.922  17.012 -0.7038 -0.9435 -0.5648
 3406TIP3    H231634   4.840   0.843  16.973  0.4483  0.7150 -0.3767
 3407TIP3   OH231635   0.482   0.798  14.552 -0.3167 -0.2326 -0.1988
 3407TIP3    H131636   0.414   0.738  14.522 -0.0604  0.4362 -2.2958
 3407TIP3    H231637   0.560   0.772  14.503  0.4814  0.1246  0.8611
 3408TIP3   OH231638   4.453   4.519  15.951  0.0013  0.0210 -0.2638
 3408TIP3    H131639   4.476   4.610  15.929 -0.6012  0.6958  1.7286
 3408TIP3    H231640   4.375   4.526  16.005  0.2764 -1.6472  0.4143
 3409TIP3   OH231641   5.336   6.286   2.135  0.1989  0.8157  0.4760
 3409TIP3    H131642   5.402   6.276   2.203  0.3896 -1.1736  0.0591
 3409TIP3    H231643   5.273   6.216   2.152  0.4141  0.0462 -1.5369
 3410TIP3   OH231644   6.669   6.393   1.250 -0.5546 -0.0117  0.4852
 3410TIP3    H131645   6.717   6.406   1.168 -1.8345 -0.7584 -0.4125
 3410TIP3    H231646   6.643   6.301   1.248 -0.8321  0.0311  1.6143
 3411TIP3   OH231647   0.844   2.117   3.044 -0.5312 -0.1211  0.0406
 3411TIP3    H131648   0.936   2.091   3.037  0.1500  2.1092 -0.1722
 3411TIP3    H231649   0.799   2.038   3.074  1.7788 -0.7057  2.3076
 3412TIP3   OH231650   3.614   5.972  15.187  0.2895 -0.4901  0.5426
 3412TIP3    H131651   3.613   5.891  15.237 -0.4510 -1.5585 -1.1040
 3412TIP3    H231652   3.606   5.944  15.096  0.9650  1.3962 -0.1500
 3413TIP3   OH231653   4.749   6.448  17.085 -0.5452 -0.3218 -0.2702
 3413TIP3    H131654   4.664   6.458  17.129  1.0939  1.6064  2.8294
 3413TIP3    H231655   4.761   6.530  17.037  0.5681  0.5937  1.4544
 3414TIP3   OH231656   0.302   2.246   4.071  0.3073  0.0074  0.2207
 3414TIP3    H131657   0.305   2.341   4.058  0.4715 -0.0435 -0.1242
 3414TIP3    H231658   0.226   2.217   4.022  0.1273 -0.0146  0.5081
 3415TIP3   OH231659   6.362   0.316   1.108 -0.5683  0.5053  0.3932
 3415TIP3    H131660   6.394   0.355   1.026 -0.5298 -1.3399 -0.5259
 3415TIP3    H231661   6.289   0.373   1.134 -0.9698  0.8198 -1.2480
 3416TIP3   OH231662   6.166   5.234  16.228 -0.4261 -0.0282 -0.0900
 3416TIP3    H131663   6.083   5.190  16.208 -2.0184  0.1529  4.8780
 3416TIP3    H231664   6.230   5.163  16.231 -1.4292 -0.9307  0.6724
 3417TIP3   OH231665   2.440   1.801   0.434  0.3560 -0.5515  0.2644
 3417TIP3    H131666   2.520   1.834   0.395  1.0645 -1.3321  1.0200
 3417TIP3    H231667   2.431   1.712   0.399  1.5016 -1.6167  2.5107
 3418TIP3   OH231668   5.580   4.740   1.382  0.1751 -0.1533  0.5390
 3418TIP3    H131669   5.505   4.697   1.341  0.3053  2.8819 -3.4655
 3418TIP3    H231670   5.547   4.772   1.466 -2.7079  0.1719 -0.6187
 3419TIP3   OH231671   0.119   5.846  14.257  0.3553  0.6370  0.0325
 3419TIP3    H131672   0.075   5.835  14.173  1.1603  0.6294 -0.3995
 3419TIP3    H231673   0.063   5.800  14.320 -0.3756  0.8541 -0.4562
 3420TIP3   OH231674   5.989   4.195   2.116  0.3166  0.3426  0.5483
 3420TIP3    H131675   5.957   4.281   2.141 -0.1132  0.4368 -0.2800
 3420TIP3    H231676   6.079   4.210   2.087 -0.2651  0.8119 -1.1328
 3421TIP3   OH231677   0.478   0.675  13.124  0.0114  0.0438 -0.3525
 3421TIP3    H131678   0.573   0.666  13.132 -0.2160 -0.8354  2.5900
 3421TIP3    H231679   0.454   0.737  13.194 -1.5814  0.3054 -1.0940
 3422TIP3   OH231680   4.113   1.444   6.067 -0.0002  0.2122 -0.0783
 3422TIP3    H131681   4.032   1.394   6.065 -0.0905  0.3117  0.7332
 3422TIP3    H231682   4.087   1.531   6.099  0.3218  0.4528 -0.4543
 3423TIP3   OH231683   0.899   4.265   3.627 -0.1066  0.1471  0.7275
 3423TIP3    H131684   0.989   4.287   3.605 -0.0109 -0.7979  0.0937
 3423TIP3    H231685   0.890   4.288   3.719 -0.0089  2.6625  0.1796
 3424TIP3   OH231686   1.097   4.752  12.432 -0.1967  0.5827 -0.2701
 3424TIP3    H131687   1.190   4.772  12.435 -0.3946  1.4286  0.6228
 3424TIP3    H231688   1.069   4.754  12.524 -0.9400 -0.4284 -0.4579
 3425TIP3   OH231689   2.817   2.763   2.782 -0.0459  0.1696 -0.0771
 3425TIP3    H131690   2.847   2.835   2.726 -1.1261  1.3078  0.7597
 3425TIP3    H231691   2.731   2.740   2.747 -0.7771  0.9645  1.1495
 3426TIP3   OH231692   4.613   4.778  14.735  0.1691  0.2585  0.1616
 3426TIP3    H131693   4.575   4.771  14.823 -0.3472 -1.0238 -0.1493
 3426TIP3    H231694   4.560   4.846  14.693 -2.5553 -2.1285 -0.5810
 3427TIP3   OH231695   1.769   4.138  16.082 -0.2388  0.0926  0.3833
 3427TIP3    H131696   1.807   4.102  16.002  1.9922 -2.2953  2.3428
 3427TIP3    H231697   1.814   4.222  16.093 -1.5401  1.1234 -1.4230
 3428TIP3   OH231698   5.719   5.645  11.160  0.0891 -0.0068 -0.0570
 3428TIP3    H131699   5.798   5.680  11.118  0.8593 -1.3539  0.2227
 3428TIP3    H231700   5.677   5.594  11.091  0.5193 -0.9025  0.3160
 3429TIP3   OH231701   0.640   3.492  13.324 -0.1973 -0.0334  0.6649
 3429TIP3    H131702   0.558   3.517  13.367  0.4939  0.9714  1.4375
 3429TIP3    H231703   0.707   3.543  13.369  0.5491  1.2055 -1.7266
 3430TIP3   OH231704   3.147   1.449   1.316  0.7814  0.5673 -0.0233
 3430TIP3    H131705   3.198   1.415   1.390  2.8672  0.6051 -1.3574
 3430TIP3    H231706   3.113   1.533   1.346  1.0741  0.3036  1.0854
 3431TIP3   OH231707   5.609   2.575  15.832 -0.2282 -0.6316 -0.0344
 3431TIP3    H131708   5.618   2.480  15.844  1.1435 -0.2804  2.6768
 3431TIP3    H231709   5.680   2.598  15.771  0.5123 -1.1818  0.5943
 3432TIP3   OH231710   4.290   2.355  11.695  0.0890  0.3764  0.1346
 3432TIP3    H131711   4.195   2.355  11.683 -0.0046 -0.9983  0.7000
 3432TIP3    H231712   4.322   2.292  11.631  0.5382  0.2524  0.4766
 3433TIP3   OH231713   1.838   4.940   1.479 -0.5618  0.1667 -0.1966
 3433TIP3    H131714   1.790   5.023   1.466 -0.9231  0.0743  0.4948
 3433TIP3    H231715   1.927   4.967   1.499 -0.6497  0.3880 -0.0968
 3434TIP3   OH231716   1.102   5.358   3.040 -0.1492 -0.0626 -0.2931
 3434TIP3    H131717   1.110   5.434   2.983 -1.1853  0.4451  0.2036
 3434TIP3    H231718   1.075   5.394   3.124 -0.8910 -0.9911 -0.1114
 3435TIP3   OH231719   5.286   4.832   5.118 -0.0918 -0.3204 -0.6202
 3435TIP3    H131720   5.253   4.920   5.136  0.7280  0.2908 -1.9397
 3435TIP3    H231721   5.293   4.828   5.023 -3.1244 -2.9614 -0.8935
 3436TIP3   OH231722   2.768   3.692  15.230 -0.0053  0.8373 -0.3409
 3436TIP3    H131723   2.761   3.776  15.185 -1.6500  1.3141  0.7114
 3436TIP3    H231724   2.767   3.627  15.159  3.4057  1.6446 -1.3499
 3437TIP3   OH231725   5.091   1.104  15.002  0.3700 -0.5690  0.0065
 3437TIP3    H131726   5.020   1.056  14.960  2.0050 -1.1638 -2.2481
 3437TIP3    H231727   5.069   1.196  14.989  0.3970 -0.7473 -1.3925
 3438TIP3   OH231728   6.135   2.638  16.917 -0.1159 -0.2822  0.4366
 3438TIP3    H131729   6.130   2.662  16.824  3.5564  1.4351  0.5012
 3438TIP3    H231730   6.159   2.546  16.917 -0.0839 -0.2790 -0.3280
 3439TIP3   OH231731   5.569   3.679   5.904 -0.0656 -0.4024  0.1338
 3439TIP3    H131732   5.601   3.756   5.858 -1.6504  0.1004 -0.1779
 3439TIP3    H231733   5.516   3.713   5.975  1.3350 -1.2000  1.6467
 3440TIP3   OH231734   3.787   4.402   6.093  0.0899  0.6583  0.0992
 3440TIP3    H131735   3.819   4.409   6.183  0.6355  1.1132 -0.1314
 3440TIP3    H231736   3.692   4.395   6.102  0.2322 -0.7577  0.7909
 3441TIP3   OH231737   5.342   5.898  16.545 -0.3355  0.3736 -0.3795
 3441TIP3    H131738   5.375   5.963  16.483 -0.8404  1.4618  0.4614
 3441TIP3    H231739   5.263   5.938  16.582 -0.6818 -0.7425  0.1251
 3442TIP3   OH231740   0.494   4.204  17.203  0.8578  0.1301 -0.0464
 3442TIP3    H131741   0.550   4.222  17.127 -0.4697  1.5091 -0.7611
 3442TIP3    H231742   0.516   4.273  17.265 -0.8188  1.4388 -0.8188
 3443TIP3   OH231743   1.165   0.623  16.273  0.2680 -0.0634 -0.0662
 3443TIP3    H131744   1.159   0.690  16.205  0.4660  1.2168  1.1460
 3443TIP3    H231745   1.106   0.553  16.243 -2.7036  2.1053  0.2860
 3444TIP3   OH231746   1.187   5.869   5.675  0.1695 -0.2081  0.0037
 3444TIP3    H131747   1.262   5.815   5.648 -0.2478 -0.6825 -0.2337
 3444TIP3    H231748   1.173   5.929   5.602  0.5856  0.1722  0.2340
 3445TIP3   OH231749   5.782   3.610   1.396 -0.1518 -0.0726  0.0350
 3445TIP3    H131750   5.768   3.540   1.459 -1.8437 -0.1046 -0.3468
 3445TIP3    H231751   5.728   3.587   1.320  2.2714 -0.3479 -1.7386
 3446TIP3   OH231752   3.420   5.432  11.477 -0.1769 -0.3267  0.1656
 3446TIP3    H131753   3.428   5.475  11.392 -0.6269 -0.6818 -0.0602
 3446TIP3    H231754   3.503   5.450  11.521  0.2326 -0.5143 -0.5210
 3447TIP3   OH231755   3.366   0.513  13.510  0.0171 -0.4525  0.2831
 3447TIP3    H131756   3.438   0.557  13.465  0.9245 -2.7966 -0.7316
 3447TIP3    H231757   3.295   0.513  13.446  0.0043 -0.4467  0.2973
 3448TIP3   OH231758   3.072   2.735  15.946 -0.5330 -0.4502 -0.4983
 3448TIP3    H131759   3.022   2.775  16.017  1.1433  0.0552  0.4725
 3448TIP3    H231760   3.134   2.803  15.919 -0.1192 -1.1583 -1.3869
 3449TIP3   OH231761   5.690   3.399   2.497  0.6737 -0.0964  0.1806
 3449TIP3    H131762   5.669   3.377   2.407  0.2190  2.1938 -0.3307
 3449TIP3    H231763   5.773   3.446   2.491  0.6128  0.1228  0.9488
 3450TIP3   OH231764   1.884   5.163   3.471  0.1276 -0.3732  0.5508
 3450TIP3    H131765   1.789   5.171   3.467  0.2724  1.4190  0.0817
 3450TIP3    H231766   1.917   5.237   3.420  1.7936  0.4120  2.6227
 3451TIP3   OH231767   0.958   5.842  15.439  0.0245 -0.3094 -0.2921
 3451TIP3    H131768   0.866   5.843  15.412 -0.2284 -1.0406  0.4947
 3451TIP3    H231769   0.962   5.901  15.514  0.4472  0.6527 -1.0575
 3452TIP3   OH231770   1.876   1.777  11.027 -0.2030 -0.0305 -0.0645
 3452TIP3    H131771   1.821   1.705  10.998  1.7515 -0.6198 -2.7309
 3452TIP3    H231772   1.858   1.848  10.965 -2.2078  2.0055  2.5832
 3453TIP3   OH231773   1.437   5.952   2.244 -0.1418 -0.0435 -0.8873
 3453TIP3    H131774   1.476   5.970   2.159 -0.9113 -0.5757 -1.3624
 3453TIP3    H231775   1.367   5.889   2.226  0.0448 -0.5950  0.2126
 3454TIP3   OH231776   4.509   2.926   4.043  0.1501  0.1826  0.3756
 3454TIP3    H131777   4.507   2.854   4.106  1.7465 -0.3778 -0.1689
 3454TIP3    H231778   4.590   2.974   4.063 -0.1693  0.9763 -0.1869
 3455TIP3   OH231779   2.365   3.664  15.940  0.1497 -0.1672  0.4544
 3455TIP3    H131780   2.377   3.724  16.014 -3.1967  0.6681  0.4613
 3455TIP3    H231781   2.390   3.578  15.975  1.4330  0.6296  1.6021
 3456TIP3   OH231782   4.946   3.278  14.791  0.2322  0.1117  0.1138
 3456TIP3    H131783   4.995   3.244  14.716  0.0939  1.2687 -0.5104
 3456TIP3    H231784   4.954   3.209  14.857  0.7532 -0.7195 -0.7883
 3457TIP3   OH231785   4.926   6.372   2.908 -0.1474 -0.0545 -0.7366
 3457TIP3    H131786   4.948   6.454   2.951 -0.4031 -0.1929 -0.3307
 3457TIP3    H231787   4.882   6.321   2.976 -0.6328 -0.2468 -1.1908
 3458TIP3   OH231788   3.393   3.750  16.903  0.2957 -0.2727 -0.2670
 3458TIP3    H131789   3.438   3.666  16.896 -0.6694 -0.7981 -0.4095
 3458TIP3    H231790   3.333   3.738  16.977 -0.4192  0.0059 -0.7930
 3459TIP3   OH231791   4.228   2.397   0.221  0.2791 -0.4863 -0.0610
 3459TIP3    H131792   4.209   2.365   0.132  0.2695 -0.5208 -0.0466
 3459TIP3    H231793   4.322   2.414   0.220 -0.1999  2.7962 -1.1461
 3460TIP3   OH231794   5.364   6.020  15.056 -0.0075 -0.4578 -0.4697
 3460TIP3    H131795   5.336   6.030  14.965 -2.6443  0.3079  0.3462
 3460TIP3    H231796   5.284   5.998  15.103  0.9190  1.0150  1.9573
 3461TIP3   OH231797   6.010   4.042  15.716  0.5527 -0.0101  0.1652
 3461TIP3    H131798   5.922   4.069  15.690  0.6023  0.7960  0.7952
 3461TIP3    H231799   6.053   4.123  15.745  1.2432 -0.5102  0.5869
 3462TIP3   OH231800   4.602   0.938  13.376  0.8286  0.2467 -0.2904
 3462TIP3    H131801   4.619   0.845  13.387 -2.2862 -0.3932  0.1401
 3462TIP3    H231802   4.688   0.978  13.369  2.2606 -2.6668 -0.6486
 3463TIP3   OH231803   3.487   1.118   1.641 -0.4699  0.0721  0.2585
 3463TIP3    H131804   3.550   1.099   1.710  0.0759  1.3420  0.1294
 3463TIP3    H231805   3.526   1.079   1.562 -0.3955 -0.1291  0.3944
 3464TIP3   OH231806   0.387   2.863  11.192  0.0702  0.1793  0.2252
 3464TIP3    H131807   0.432   2.947  11.187 -0.4197  0.5024  1.0618
 3464TIP3    H231808   0.298   2.882  11.160  0.4427 -0.4086 -1.2342
 3465TIP3   OH231809   6.054   4.997   2.668 -0.0781 -0.1459  0.0065
 3465TIP3    H131810   6.110   5.013   2.592  0.2701 -1.3760 -0.0105
 3465TIP3    H231811   6.116   4.974   2.738 -0.4719 -0.0950  0.3757
 3466TIP3   OH231812   6.166   0.637  16.174  0.4721  0.4284 -0.2976
 3466TIP3    H131813   6.207   0.636  16.261  0.4210  1.6978 -0.2463
 3466TIP3    H231814   6.100   0.706  16.180  0.2025  0.2558 -1.2338
 3467TIP3   OH231815   1.239   2.633  10.350 -0.3139 -0.1888 -0.2817
 3467TIP3    H131816   1.243   2.667  10.439 -2.8440  1.3184 -0.6289
 3467TIP3    H231817   1.184   2.555  10.356 -1.5339  0.6109 -0.6376
 3468TIP3   OH231818   2.537   5.833   3.640  0.4571 -0.0317 -0.4673
 3468TIP3    H131819   2.532   5.905   3.703 -0.6619 -0.2958 -0.2364
 3468TIP3    H231820   2.575   5.872   3.561  2.0575  0.2614  0.3960
 3469TIP3   OH231821   0.164   0.843   1.648  0.8315  0.1041 -0.7192
 3469TIP3    H131822   0.128   0.802   1.570 -0.7668  0.7007 -0.3292
 3469TIP3    H231823   0.166   0.773   1.714 -0.3577  0.2266 -0.5304
 3470TIP3   OH231824   3.008   5.453   1.562 -0.0290  0.1900  0.3037
 3470TIP3    H131825   2.987   5.458   1.469  0.6878 -3.0816 -0.1314
 3470TIP3    H231826   3.103   5.445   1.565 -0.0742 -0.1235  1.2859
 3471TIP3   OH231827   5.841   5.892   4.988  0.0347  0.5450 -0.1163
 3471TIP3    H131828   5.832   5.943   5.069 -2.3003 -0.4867  0.3432
 3471TIP3    H231829   5.792   5.943   4.923  0.9873  0.8140 -0.6426
 3472TIP3   OH231830   5.504   1.033  10.223 -0.3443  0.0496  0.5171
 3472TIP3    H131831   5.517   1.064  10.313 -1.0894 -0.0371  0.6652
 3472TIP3    H231832   5.580   0.978  10.205  0.2909  0.8390  0.7457
 3473TIP3   OH231833   4.263   6.584   4.916 -0.2661 -0.4369 -0.4306
 3473TIP3    H131834   4.286   6.567   4.825 -0.6856 -0.4008 -0.5408
 3473TIP3    H231835   4.312   6.518   4.965 -0.0310 -0.4505 -0.6765
 3474TIP3   OH231836   4.023   0.268   1.121 -1.0480 -0.6813 -0.1275
 3474TIP3    H131837   4.030   0.359   1.149 -3.7098  0.5374 -2.8795
 3474TIP3    H231838   4.017   0.218   1.202  2.4412  1.2335  1.5350
 3475TIP3   OH231839   2.745   4.348  15.238 -0.3929 -0.2454  0.4149
 3475TIP3    H131840   2.724   4.441  15.249 -0.0632 -0.2665  1.2750
 3475TIP3    H231841   2.840   4.347  15.221 -0.1521 -0.5066  1.7087
 3476TIP3   OH231842   1.215   6.464   2.196 -0.2611 -0.3084 -0.1806
 3476TIP3    H131843   1.280   6.397   2.179 -1.1036 -0.7092 -2.0198
 3476TIP3    H231844   1.266   6.544   2.211  0.6655 -0.7000 -1.1484
 3477TIP3   OH231845   5.458   5.535  14.102  0.2123 -0.3257  0.3870
 3477TIP3    H131846   5.469   5.462  14.041 -1.4938 -0.5252  0.2721
 3477TIP3    H231847   5.480   5.613  14.051 -0.0756 -0.5878 -0.1401
 3478TIP3   OH231848   3.836   2.702   3.069 -0.5689  0.5347 -0.5719
 3478TIP3    H131849   3.841   2.712   3.164 -1.6080  0.5312 -0.5030
 3478TIP3    H231850   3.748   2.668   3.053 -0.5750  0.9724 -1.5746
 3479TIP3   OH231851   6.109   1.582  16.631  0.1731  0.6352  1.2378
 3479TIP3    H131852   6.170   1.635  16.580 -0.4289  0.0902 -0.1062
 3479TIP3    H231853   6.063   1.644  16.687 -0.0172  1.4287  0.2201
 3480TIP3   OH231854   0.530   2.441  17.035  0.7481  0.8348  0.2983
 3480TIP3    H131855   0.597   2.374  17.021  0.6551  0.5600  1.1092
 3480TIP3    H231856   0.447   2.393  17.032  0.7424  0.6468  2.2312
 3481TIP3   OH231857   5.712   2.613   3.306  0.0453  0.4243 -0.3576
 3481TIP3    H131858   5.749   2.576   3.386 -2.1017  0.5956  0.7790
 3481TIP3    H231859   5.760   2.571   3.235  1.8296  0.0777  0.9989
 3482TIP3   OH231860   5.357   1.670   1.421  0.1277  0.0566 -0.0017
 3482TIP3    H131861   5.271   1.708   1.404  0.8181  1.3936 -0.6284
 3482TIP3    H231862   5.344   1.615   1.498 -0.8070  2.0088  1.3163
 3483TIP3   OH231863   6.211   5.935   2.813  0.0331 -0.0187 -0.3953
 3483TIP3    H131864   6.264   5.894   2.881  2.4724 -0.9811 -2.7183
 3483TIP3    H231865   6.241   6.026   2.810  0.2764 -0.1027 -0.5156
 3484TIP3   OH231866   6.163   4.430  11.832  0.3628 -0.1265 -0.5643
 3484TIP3    H131867   6.098   4.431  11.902  3.3275 -0.2027  2.4451
 3484TIP3    H231868   6.186   4.338  11.821  0.1208 -0.0897 -1.5325
 3485TIP3   OH231869   5.978   2.329  12.753  0.3914  0.3512  0.2378
 3485TIP3    H131870   5.932   2.354  12.673  0.7883  1.1516  0.2533
 3485TIP3    H231871   5.911   2.327  12.821 -0.1660 -1.3937 -0.2928
 3486TIP3   OH231872   4.037   1.592  13.651 -0.3273  0.2710 -0.4326
 3486TIP3    H131873   4.026   1.687  13.660 -3.3977  0.4092 -3.4427
 3486TIP3    H231874   4.005   1.556  13.733  0.0150  1.8051  0.3992
 3487TIP3   OH231875   1.430   4.035   3.858  0.1817 -0.3235 -0.4780
 3487TIP3    H131876   1.504   4.090   3.883  0.4716 -0.8599 -0.1296
 3487TIP3    H231877   1.411   3.984   3.937 -1.6911  1.0432  0.0017
 3488TIP3   OH231878   0.328   6.684  14.167 -0.2585 -0.0324 -0.0131
 3488TIP3    H131879   0.278   6.674  14.248  1.7426  1.9500  1.6003
 3488TIP3    H231880   0.383   6.606  14.162 -1.3835 -0.8286 -0.2457
 3489TIP3   OH231881   1.021   2.997   4.462 -0.3708 -0.1626  0.3860
 3489TIP3    H131882   1.004   2.931   4.528  1.6677  0.0688  1.2041
 3489TIP3    H231883   0.994   3.080   4.503 -0.7778 -0.2152  0.2309
 3490TIP3   OH231884   4.380   3.836  14.668 -0.0141  0.3830  0.2691
 3490TIP3    H131885   4.398   3.789  14.587  1.2937  0.7393  0.3345
 3490TIP3    H231886   4.285   3.827  14.681  0.0557 -1.3123 -0.2589
 3491TIP3   OH231887   4.996   6.330  17.060 -0.6034 -0.0833  0.1037
 3491TIP3    H131888   4.905   6.343  17.086 -0.5972 -0.5710  0.3745
 3491TIP3    H231889   5.041   6.411  17.087 -0.7200 -0.3218  1.0468
 3492TIP3   OH231890   0.221   3.024  11.005 -0.4193 -0.0828  0.5411
 3492TIP3    H131891   0.150   3.050  10.947 -1.0839 -0.7465  1.0402
 3492TIP3    H231892   0.279   3.100  11.008 -0.0611 -0.2243 -1.4280
 3493TIP3   OH231893   2.104   1.236   3.791 -1.0528  0.0825 -0.2746
 3493TIP3    H131894   2.180   1.227   3.733 -0.9886 -1.3657  0.0157
 3493TIP3    H231895   2.107   1.159   3.847 -2.4339  0.2871  0.1116
 3494TIP3   OH231896   1.293   1.531   1.144  0.3406 -0.5614 -0.1334
 3494TIP3    H131897   1.268   1.445   1.112  0.1082 -1.0761  1.3761
 3494TIP3    H231898   1.270   1.591   1.073 -0.3573 -1.6304 -0.8271
 3495TIP3   OH231899   3.346   5.151   5.330 -0.2157 -0.0976 -0.6141
 3495TIP3    H131900   3.428   5.151   5.378 -0.7977 -0.8138  0.4186
 3495TIP3    H231901   3.368   5.188   5.244  1.0707  0.1570 -0.1931
 3496TIP3   OH231902   5.329   0.031   4.564  0.5456 -0.0866  0.3997
 3496TIP3    H131903   5.267   0.063   4.629 -0.6740  1.5841 -1.4525
 3496TIP3    H231904   5.405   0.087   4.572  0.1582  0.5033  0.0330
 3497TIP3   OH231905   3.817   1.785   0.739 -0.2980  0.2209  0.2369
 3497TIP3    H131906   3.771   1.729   0.801 -0.1543 -0.2544 -0.0796
 3497TIP3    H231907   3.750   1.845   0.706  0.0464  1.9582  2.4681
 3498TIP3   OH231908   3.268   0.087   4.278 -0.6435 -0.0921  0.1797
 3498TIP3    H131909   3.307   0.059   4.195 -0.8738  1.0816 -0.3380
 3498TIP3    H231910   3.207   0.156   4.254  2.0090  3.0413  1.6308
 3499TIP3   OH231911   4.176   1.662   1.900  0.0510 -0.2897  0.5311
 3499TIP3    H131912   4.169   1.699   1.988 -2.2891 -1.3085  0.8210
 3499TIP3    H231913   4.094   1.616   1.886  0.0669  0.3954 -2.4706
 3500TIP3   OH231914   2.149   0.487   2.790  0.7646 -0.2042 -0.4381
 3500TIP3    H131915   2.099   0.513   2.868 -1.8002  0.2468 -2.1079
 3500TIP3    H231916   2.086   0.493   2.718  2.6079 -2.0754 -2.3521
 3501TIP3   OH231917   0.385   2.109   0.722 -0.4295 -0.1508 -0.3647
 3501TIP3    H131918   0.319   2.059   0.771 -0.4979 -0.1071 -0.4116
 3501TIP3    H231919   0.446   2.140   0.789 -0.4558 -0.1932 -0.3210
 3502TIP3   OH231920   1.819   6.586  16.257 -0.4310  0.0328  0.0423
 3502TIP3    H131921   1.779   6.611  16.340  1.4055 -0.6916  1.2032
 3502TIP3    H231922   1.861   6.666  16.225 -0.5594  0.1427  0.1506
 3503TIP3   OH231923   2.215   6.275   3.872 -0.0362 -0.3203 -0.1598
 3503TIP3    H131924   2.155   6.257   3.945  2.3763 -0.3292  1.9862
 3503TIP3    H231925   2.288   6.215   3.886  1.7391  1.5000 -1.0089
 3504TIP3   OH231926   3.488   1.390  14.210 -0.4148  0.1134  0.2409
 3504TIP3    H131927   3.542   1.420  14.137 -0.9091  1.3671  0.3570
 3504TIP3    H231928   3.405   1.366  14.169  0.1786 -1.8105  0.0617
 3505TIP3   OH231929   2.582   0.918   5.544 -0.5985  0.2318 -0.3714
 3505TIP3    H131930   2.625   0.860   5.608  0.8785  3.1004  1.4131
 3505TIP3    H231931   2.635   0.910   5.465  0.9537  0.8273  0.5806
 3506TIP3   OH231932   1.708   3.263   1.065 -0.4347 -0.0438  0.5282
 3506TIP3    H131933   1.638   3.315   1.026  2.3809  3.5025 -0.3063
 3506TIP3    H231934   1.737   3.313   1.141  2.1225 -0.5717  0.0054
 3507TIP3   OH231935   5.582   6.733  11.145  0.6113  0.4696 -0.5052
 3507TIP3    H131936   5.639   6.663  11.179 -2.1724 -1.1683  1.2025
 3507TIP3    H231937   5.522   6.688  11.086 -1.2243  1.3658  0.5949
 3508TIP3   OH231938   4.054   2.619   6.240  0.7613 -0.1184  0.3155
 3508TIP3    H131939   4.050   2.530   6.276  1.5796 -0.7602 -1.1015
 3508TIP3    H231940   3.963   2.643   6.224  0.5963 -1.3510 -0.7558
 3509TIP3   OH231941   2.618   5.440  16.189  0.1003  0.4407  0.4815
 3509TIP3    H131942   2.547   5.381  16.164  1.3676 -1.0430  0.2196
 3509TIP3    H231943   2.574   5.513  16.233 -1.7797  0.8185 -1.8656
 3510TIP3   OH231944   1.851   0.648  11.926 -0.2652  0.1110 -0.4853
 3510TIP3    H131945   1.802   0.709  11.871  0.7132  1.0911 -0.2887
 3510TIP3    H231946   1.942   0.673  11.916 -0.0499  0.4087  1.6416
 3511TIP3   OH231947   1.458   4.519   3.859  0.4815  0.0334 -0.9322
 3511TIP3    H131948   1.451   4.426   3.842  0.6549 -0.1067 -0.2754
 3511TIP3    H231949   1.387   4.558   3.808 -1.7943 -0.8111  1.3194
 3512TIP3   OH231950   0.498   0.921   1.248  0.4775  0.5238 -0.0207
 3512TIP3    H131951   0.594   0.922   1.239  0.5574 -1.8167 -0.0254
 3512TIP3    H231952   0.482   0.867   1.326 -0.8453 -0.7194 -1.0915
 3513TIP3   OH231953   5.722   4.560  16.975  0.1936 -0.3235  0.1639
 3513TIP3    H131954   5.733   4.466  16.958 -0.0895 -0.4381  0.5858
 3513TIP3    H231955   5.806   4.598  16.951  0.3801 -0.7173  0.1750
 3514TIP3   OH231956   3.655   2.003   2.192 -0.3882 -0.5143 -0.4646
 3514TIP3    H131957   3.740   2.004   2.148 -0.4670  1.7202 -0.6545
 3514TIP3    H231958   3.669   1.947   2.269  2.2801  2.2721  1.2866
 3515TIP3   OH231959   3.266   1.393  14.047 -0.5606 -0.1871 -0.1110
 3515TIP3    H131960   3.217   1.395  14.129 -0.6040 -0.9731 -0.1137
 3515TIP3    H231961   3.200   1.407  13.979 -0.3385  1.9790  0.0296
 3516TIP3   OH231962   2.397   5.370  14.475 -0.4693  0.2458  0.0976
 3516TIP3    H131963   2.465   5.427  14.510  1.4252 -1.6799 -0.3029
 3516TIP3    H231964   2.339   5.354  14.550  0.5704  0.3776  0.9498
 3517TIP3   OH231965   3.503   0.649  15.412 -0.2620  0.1809  0.6817
 3517TIP3    H131966   3.552   0.604  15.481  2.3065  2.2534  0.3864
 3517TIP3    H231967   3.459   0.721  15.457  0.8110  1.0858  0.3391
 3518TIP3   OH231968   6.504   1.218   5.160  0.0399 -0.3547 -0.2693
 3518TIP3    H131969   6.543   1.220   5.072 -0.1489 -1.6595 -0.3905
 3518TIP3    H231970   6.412   1.195   5.145 -0.5936  1.6682  0.1069
 3519TIP3   OH231971   5.800   1.586  11.027 -0.0398  0.2453 -0.5527
 3519TIP3    H131972   5.837   1.670  10.999  0.4517  0.8498  1.7311
 3519TIP3    H231973   5.837   1.571  11.114 -0.0616 -2.4006 -0.9209
 3520TIP3   OH231974   3.502   5.564   1.093 -0.6988  0.0928  0.1181
 3520TIP3    H131975   3.536   5.496   1.034 -0.4969  1.9046 -1.9713
 3520TIP3    H231976   3.571   5.631   1.094 -1.8330  1.3016  0.2785
 3521TIP3   OH231977   0.508   6.194  15.697  0.1667  0.0538  0.3717
 3521TIP3    H131978   0.563   6.272  15.692  0.0941  0.0480 -0.7931
 3521TIP3    H231979   0.448   6.212  15.769  0.8057  0.6401  0.7720
 3522TIP3   OH231980   3.606   5.598   1.375 -0.1901 -0.4327 -0.1014
 3522TIP3    H131981   3.649   5.513   1.361 -0.1840 -0.4177 -0.1740
 3522TIP3    H231982   3.626   5.648   1.296 -0.0909 -0.3195 -0.0049
 3523TIP3   OH231983   3.250   1.008  15.988 -0.2482  0.2531  0.1574
 3523TIP3    H131984   3.158   0.990  15.970 -0.0258 -0.5514 -0.2014
 3523TIP3    H231985   3.258   1.103  15.980 -0.9942  0.3001 -0.0596
 3524TIP3   OH231986   5.301   3.507   5.837  1.1024  0.2137 -0.0244
 3524TIP3    H131987   5.231   3.539   5.893 -0.0364 -0.9360 -0.7334
 3524TIP3    H231988   5.361   3.461   5.896  0.2009 -0.5138  0.3535
 3525TIP3   OH231989   3.500   0.654   1.373  0.5308 -0.0665  0.5298
 3525TIP3    H131990   3.509   0.595   1.448 -0.8774 -1.4808 -0.3381
 3525TIP3    H231991   3.425   0.709   1.395 -0.5627 -1.1941 -0.2274
 3526TIP3   OH231992   5.877   3.359  12.276 -0.4365  0.4734 -0.6924
 3526TIP3    H131993   5.833   3.421  12.334 -1.2371  0.3283 -1.1385
 3526TIP3    H231994   5.809   3.298  12.248 -0.0156  0.3819 -1.5755
 3527TIP3   OH231995   3.435   3.328  10.974  0.0627  0.5056 -0.2379
 3527TIP3    H131996   3.392   3.413  10.986  0.9169  1.3240 -2.4756
 3527TIP3    H231997   3.472   3.331  10.886  2.1477 -1.2992  0.4587
 3528TIP3   OH231998   6.515   4.703  16.948  0.0904  0.6507 -0.7683
 3528TIP3    H131999   6.475   4.658  16.874 -0.1768  0.6349 -0.6123
 3528TIP3    H232000   6.444   4.714  17.012  0.8651 -1.5713  0.5705
 3529TIP3   OH232001   4.499   6.117   3.829  0.1099 -0.1053 -0.0255
 3529TIP3    H132002   4.499   6.152   3.918  0.2355  0.3505 -0.2031
 3529TIP3    H232003   4.527   6.190   3.774 -1.6861  0.1556 -0.6507
 3530TIP3   OH232004   3.546   0.271   4.334 -0.5146 -0.4521 -0.2676
 3530TIP3    H132005   3.491   0.232   4.402 -0.8920  0.7586  0.1629
 3530TIP3    H232006   3.545   0.208   4.262 -0.4300 -1.5688  0.7008
 3531TIP3   OH232007   4.547   5.658  12.885 -0.0400  0.2989 -0.5935
 3531TIP3    H132008   4.549   5.691  12.795 -0.0831  0.4869 -0.5239
 3531TIP3    H232009   4.622   5.599  12.890  0.3130  0.7500 -0.5729
 3532TIP3   OH232010   5.488   1.198  16.129  0.0230  0.1930 -0.0545
 3532TIP3    H132011   5.426   1.241  16.187  0.5108  0.2885  0.3951
 3532TIP3    H232012   5.509   1.115  16.172  1.1848  0.7164  0.4440
 3533TIP3   OH232013   1.041   4.533   1.264  0.4923  0.3352  0.3726
 3533TIP3    H132014   1.038   4.573   1.351  0.3615 -0.4670  0.7436
 3533TIP3    H232015   1.134   4.532   1.242  0.5869 -0.0468  0.7808
 3534TIP3   OH232016   0.913   2.812   5.911 -0.0208 -0.1877  0.0325
 3534TIP3    H132017   0.925   2.774   5.999  1.0213 -3.6033 -1.3999
 3534TIP3    H232018   0.820   2.803   5.894 -0.4129  1.4372  1.1041
 3535TIP3   OH232019   3.968   3.459   0.916  0.1430  0.0511 -0.0374
 3535TIP3    H132020   3.915   3.400   0.970  0.7904 -0.2117  0.3213
 3535TIP3    H232021   3.904   3.514   0.871 -0.4098  0.2305  0.9361
 3536TIP3   OH232022   1.680   6.604   3.818 -0.5789 -0.5402  0.0498
 3536TIP3    H132023   1.747   6.658   3.776 -1.9834  2.3108  1.2021
 3536TIP3    H232024   1.691   6.620   3.912 -2.7970  0.0724  0.2815
 3537TIP3   OH232025   1.756   4.021   3.417 -0.4076  0.0698  1.0627
 3537TIP3    H132026   1.842   4.035   3.458  2.1765 -0.3690 -3.5697
 3537TIP3    H232027   1.736   4.104   3.374 -0.7640 -0.7296 -0.3607
 3538TIP3   OH232028   1.237   2.127   1.933 -0.0495  0.4022  0.0246
 3538TIP3    H132029   1.331   2.144   1.941  0.0569 -0.3656  0.6312
 3538TIP3    H232030   1.230   2.031   1.937 -0.6015  0.2206 -3.1943
 3539TIP3   OH232031   0.701   5.090   0.203 -0.4520 -0.0293  0.5917
 3539TIP3    H132032   0.626   5.045   0.242 -0.0638 -0.0139  1.3758
 3539TIP3    H232033   0.765   5.097   0.274  0.2518  0.0595 -0.0347
 3540TIP3   OH232034   1.826   2.842   3.738 -0.8673  0.1067  0.3433
 3540TIP3    H132035   1.790   2.896   3.667 -1.4932  0.9246  1.2669
 3540TIP3    H232036   1.906   2.887   3.764 -1.0890  0.2867  0.7261
 3541TIP3   OH232037   0.962   2.483   5.158 -0.3446  0.3075  0.2990
 3541TIP3    H132038   1.043   2.457   5.113 -0.8621 -0.3364 -0.2721
 3541TIP3    H232039   0.905   2.407   5.152 -1.3246  1.0514 -0.0588
 3542TIP3   OH232040   0.957   2.727   1.713  0.8371  0.4303  0.5534
 3542TIP3    H132041   1.017   2.763   1.779 -0.4003  2.3176  0.7285
 3542TIP3    H232042   1.009   2.723   1.633  1.3473  1.6415  0.8009
 3543TIP3   OH232043   5.461   1.785  13.025  0.1574 -0.1115  0.3287
 3543TIP3    H132044   5.369   1.812  13.014  0.2023  0.5398  1.4531
 3543TIP3    H232045   5.464   1.697  12.986 -1.3001 -0.7637  1.5615
 3544TIP3   OH232046   0.925   3.169   3.643  0.3212 -0.3115  0.2062
 3544TIP3    H132047   0.924   3.206   3.555 -2.2894  1.1582  0.7460
 3544TIP3    H232048   1.011   3.193   3.678  0.1985  1.8838 -0.8433
 3545TIP3   OH232049   0.043   4.002   3.833 -0.3889  0.2380  0.5535
 3545TIP3    H132050   0.005   4.052   3.760  1.3421  1.3312  0.3473
 3545TIP3    H232051   0.069   3.919   3.794  0.2885  0.7154 -0.0373
 3546TIP3   OH232052   1.745   2.509   4.212 -0.3212 -0.0110 -0.3624
 3546TIP3    H132053   1.664   2.506   4.263 -0.7794  0.1845 -1.0609
 3546TIP3    H232054   1.814   2.512   4.277 -0.9501  2.8786  0.2777
 3547TIP3   OH232055   2.138   3.889   3.286  0.5812 -0.1057  0.3413
 3547TIP3    H132056   2.218   3.866   3.239  0.9281 -0.6606  1.1837
 3547TIP3    H232057   2.159   3.875   3.378 -0.7293 -1.0423  0.5253
 3548TIP3   OH232058   0.538   5.008  12.002  0.2812  0.1229 -0.2235
 3548TIP3    H132059   0.569   4.961  11.924 -0.4933 -1.4828  0.3720
 3548TIP3    H232060   0.526   4.939  12.067 -0.7121  1.2068  0.7839
 3549TIP3   OH232061   3.056   4.336  13.919  0.6350 -0.0016  0.3230
 3549TIP3    H132062   3.006   4.282  13.981  1.0679  0.7765  1.3873
 3549TIP3    H232063   3.047   4.291  13.835 -0.1371 -0.9834  0.9075
 3550TIP3   OH232064   4.701   0.868  15.813  0.9192 -0.1459  0.3512
 3550TIP3    H132065   4.737   0.824  15.890  0.5481 -1.7158 -0.3278
 3550TIP3    H232066   4.769   0.862  15.746  1.0948  0.8722  0.4223
 3551TIP3   OH232067   3.454   5.676  13.912 -0.3918  0.3573  0.0089
 3551TIP3    H132068   3.406   5.631  13.842 -3.0414  3.2624 -0.2875
 3551TIP3    H232069   3.414   5.645  13.993  2.6354 -2.9586  0.4934
 3552TIP3   OH232070   4.394   3.423   5.306  0.1281  0.5305 -0.6924
 3552TIP3    H132071   4.312   3.443   5.260  0.9781  2.1357 -1.6024
 3552TIP3    H232072   4.367   3.372   5.382 -1.4314 -1.4826 -2.4579
 3553TIP3   OH232073   3.501   3.811  16.529 -0.2388  0.3241 -0.0490
 3553TIP3    H132074   3.587   3.842  16.556 -0.0166  0.4148 -0.8390
 3553TIP3    H232075   3.510   3.791  16.436 -0.1003 -2.9954  0.5416
 3554TIP3   OH232076   5.314   0.682   2.233 -0.6698 -0.7229  0.6307
 3554TIP3    H132077   5.266   0.689   2.151  1.1367  2.2240 -0.3488
 3554TIP3    H232078   5.270   0.613   2.281 -4.3128  0.1379 -1.1388
 3555TIP3   OH232079   1.031   5.867   3.190 -0.0396  0.0036 -0.6182
 3555TIP3    H132080   1.113   5.847   3.145 -1.0693 -0.2586 -2.5054
 3555TIP3    H232081   1.025   5.962   3.189 -0.0996  0.0000 -1.1799
 3556TIP3   OH232082   4.481   3.366  13.534  0.0147 -0.6397 -0.2461
 3556TIP3    H132083   4.447   3.305  13.600 -0.7527 -0.1429 -0.1701
 3556TIP3    H232084   4.459   3.326  13.450 -3.7339  1.1601 -0.2785
 3557TIP3   OH232085   2.533   1.510  12.606  0.0792 -0.2444  0.4926
 3557TIP3    H132086   2.452   1.462  12.591  1.3538 -1.9507 -1.2831
 3557TIP3    H232087   2.593   1.446  12.644  0.8266  0.8091  1.1508
 3558TIP3   OH232088   6.250   1.803  14.987 -0.0741 -0.0125  0.2305
 3558TIP3    H132089   6.239   1.812  15.082 -1.7248 -0.3077  0.0870
 3558TIP3    H232090   6.313   1.872  14.964 -0.0168  0.3766  1.4582
 3559TIP3   OH232091   2.613   1.756   3.579 -0.2736 -0.4870 -0.0605
 3559TIP3    H132092   2.584   1.679   3.627 -0.8453 -1.1917 -1.4611
 3559TIP3    H232093   2.541   1.818   3.589  0.5090  0.1978  1.7007
 3560TIP3   OH232094   5.300   4.496   3.107  0.2191  0.0817  0.4843
 3560TIP3    H132095   5.281   4.451   3.190 -1.2322  3.1866  2.0075
 3560TIP3    H232096   5.255   4.444   3.041 -2.6501  0.0018  2.3211
 3561TIP3   OH232097   2.083   3.708  17.090 -0.2358  0.3288 -0.1977
 3561TIP3    H132098   2.117   3.679  17.175 -0.6507  1.6636  0.4468
 3561TIP3    H232099   2.162   3.718  17.036  0.0148 -0.7559 -0.0684
 3562TIP3   OH232100   5.604   5.350   5.397  0.4014 -0.0133 -0.5455
 3562TIP3    H132101   5.584   5.417   5.331 -0.4993 -0.0292 -0.3016
 3562TIP3    H232102   5.683   5.307   5.364  0.3820  0.4627 -1.2441
 3563TIP3   OH232103   6.679   3.786  11.359  0.2963  0.2536  0.0927
 3563TIP3    H132104   6.684   3.817  11.268  0.5147  1.6383  0.5537
 3563TIP3    H232105   6.770   3.767  11.382  0.3321  0.6199  0.2555
 3564TIP3   OH232106   1.978   3.617  11.476  0.1292 -0.8743 -0.3749
 3564TIP3    H132107   2.009   3.685  11.416 -0.5993 -0.3765 -0.1990
 3564TIP3    H232108   2.023   3.538  11.447  0.1688 -0.5384 -1.2727
 3565TIP3   OH232109   0.449   6.734  16.786  0.4773 -0.1826  0.3762
 3565TIP3    H132110   0.496   6.793  16.727  1.8063 -0.8546  0.7289
 3565TIP3    H232111   0.397   6.679  16.727 -1.9316  2.2101  0.1088
 3566TIP3   OH232112   4.257   4.887  16.288  0.6509  0.1575 -0.3921
 3566TIP3    H132113   4.170   4.891  16.326  0.9845  2.1767  0.2954
 3566TIP3    H232114   4.255   4.952  16.217  1.9673  1.2943  0.5529
 3567TIP3   OH232115   5.772   1.302  14.228 -0.3458 -0.0688 -0.3824
 3567TIP3    H132116   5.792   1.243  14.156 -0.6991  0.5093 -0.9706
 3567TIP3    H232117   5.818   1.383  14.206 -1.5413  0.5611 -0.6667
 3568TIP3   OH232118   3.979   0.594   2.024 -0.2231  0.0626  0.4599
 3568TIP3    H132119   3.887   0.569   2.016  0.0025 -0.6240 -0.1108
 3568TIP3    H232120   4.010   0.546   2.101 -0.2956  0.1389  0.5360
 3569TIP3   OH232121   1.597   0.065   3.196 -0.3538  0.9878 -0.5350
 3569TIP3    H132122   1.532  -0.004   3.203 -0.2233  1.0214  2.1142
 3569TIP3    H232123   1.564   0.122   3.127 -3.4758  1.2814  1.0111
 3570TIP3   OH232124   2.049   5.573   0.080 -0.0651  0.7492 -0.0502
 3570TIP3    H132125   2.119   5.624   0.037 -1.2094  3.0811  0.7121
 3570TIP3    H232126   2.092   5.535   0.157  0.5723  1.5097 -0.0072
 3571TIP3   OH232127   0.069   2.835   2.748  0.0452  0.4801 -0.1344
 3571TIP3    H132128   0.152   2.877   2.724  0.3667  0.0319  0.1789
 3571TIP3    H232129   0.093   2.771   2.815 -0.5586  0.3619 -0.0259
 3572TIP3   OH232130   5.747   4.206   0.849 -0.1940  0.3274 -0.3042
 3572TIP3    H132131   5.779   4.196   0.759 -1.2862 -1.1412 -0.5640
 3572TIP3    H232132   5.677   4.270   0.843 -0.0748  0.4457 -0.4404
 3573TIP3   OH232133   5.010   3.466  15.127 -0.7663  0.1333 -0.0509
 3573TIP3    H132134   4.957   3.387  15.137 -0.2135 -0.0592  1.7022
 3573TIP3    H232135   4.980   3.523  15.198  1.1857  0.1030  0.8427
 3574TIP3   OH232136   0.851   6.053  15.957 -0.7686  0.0234  0.2344
 3574TIP3    H132137   0.759   6.063  15.983 -0.4050  1.4084  1.0917
 3574TIP3    H232138   0.869   6.132  15.906 -0.2095 -0.5423 -0.4620
 3575TIP3   OH232139   1.306   2.919   3.895 -0.1623  0.2080  0.6055
 3575TIP3    H132140   1.237   2.975   3.933 -2.7940  1.7658 -5.2642
 3575TIP3    H232141   1.270   2.830   3.901 -2.5944  0.9143 -1.6938
 3576TIP3   OH232142   0.569   5.499  16.298  0.0978 -0.1214 -0.2484
 3576TIP3    H132143   0.577   5.413  16.258  2.2997 -1.0130  1.8661
 3576TIP3    H232144   0.621   5.557  16.242 -0.4876 -0.3865 -1.0742
 3577TIP3   OH232145   1.726   0.248   3.322 -0.1405 -0.3734  0.4797
 3577TIP3    H132146   1.690   0.179   3.265 -0.7901 -1.6145  2.2759
 3577TIP3    H232147   1.768   0.309   3.262 -1.2445 -1.3143 -1.3659
 3578TIP3   OH232148   3.990   3.008   3.819 -0.4626 -0.1536 -0.2345
 3578TIP3    H132149   3.999   2.956   3.899  1.3996 -0.7094 -0.7588
 3578TIP3    H232150   3.911   3.061   3.834 -0.4441 -0.5988  1.7444
 3579TIP3   OH232151   1.448   4.679  12.030 -0.3867 -0.4053  0.0319
 3579TIP3    H132152   1.515   4.666  12.097  0.4476 -1.0964 -0.9117
 3579TIP3    H232153   1.491   4.657  11.948 -1.1860  1.1011 -0.8342
 3580TIP3   OH232154   3.488   1.296   4.730  0.2438  0.4984 -0.3495
 3580TIP3    H132155   3.562   1.322   4.675 -0.3059  3.8309  0.2373
 3580TIP3    H232156   3.511   1.327   4.817 -1.6173  1.2288 -0.0717
 3581TIP3   OH232157   1.025   1.030  12.958  0.5268  0.7014 -0.2718
 3581TIP3    H132158   1.106   0.987  12.927  0.8358 -0.4867  1.9658
 3581TIP3    H232159   1.053   1.083  13.033 -0.5883  1.2696 -0.2394
 3582TIP3   OH232160   2.987   0.841   3.484 -0.0525 -0.2142 -0.5678
 3582TIP3    H132161   3.042   0.787   3.427 -0.7358 -0.9592 -0.5448
 3582TIP3    H232162   2.951   0.779   3.547  1.7425  0.7585  1.5712
 3583TIP3   OH232163   6.259   1.866   0.052  0.1571 -0.1511 -0.7127
 3583TIP3    H132164   6.165   1.847   0.052  0.4073 -1.4403  0.0880
 3583TIP3    H232165   6.297   1.797  -0.002  0.5745  0.8747 -1.7807
 3584TIP3   OH232166   4.363   5.519  13.174  0.4200 -0.2995 -0.0688
 3584TIP3    H132167   4.343   5.520  13.081  1.1896 -0.5223 -0.2488
 3584TIP3    H232168   4.301   5.457  13.212 -0.4528  0.4233 -0.2875
 3585TIP3   OH232169   3.284   0.115  13.336  0.2441 -0.3444 -0.2915
 3585TIP3    H132170   3.297   0.193  13.282  0.6009 -1.7962 -2.4196
 3585TIP3    H232171   3.201   0.131  13.381  0.4854  1.3955 -0.4023
 3586TIP3   OH232172   6.413   4.962  11.274  0.4022  0.2296  0.3796
 3586TIP3    H132173   6.475   5.029  11.243 -0.3295  1.3777  1.3184
 3586TIP3    H232174   6.335   4.977  11.221 -0.5885  1.7027  2.1644
 3587TIP3   OH232175   0.086   3.621  11.631  0.5953 -0.0544  0.4262
 3587TIP3    H132176   0.164   3.614  11.577 -0.6665 -1.1300 -1.3532
 3587TIP3    H232177   0.058   3.712  11.622  1.1823  0.1341  0.4588
 3588TIP3   OH232178   5.878   6.306   3.461 -0.4756  0.6152 -0.3510
 3588TIP3    H132179   5.934   6.264   3.395 -1.5326  0.2091 -1.0226
 3588TIP3    H232180   5.909   6.396   3.465 -0.5124  0.7098 -1.5783
 3589TIP3   OH232181   3.854   5.566  10.636 -0.0073 -0.4898 -0.2368
 3589TIP3    H132182   3.938   5.523  10.622  1.2321  1.6901  0.0053
 3589TIP3    H232183   3.811   5.565  10.550  0.2959 -1.5425 -0.3807
 3590TIP3   OH232184   0.237   2.710  15.978  0.8055  0.5716 -0.2242
 3590TIP3    H132185   0.197   2.775  16.036  0.5485 -0.0945  0.3491
 3590TIP3    H232186   0.330   2.709  16.003  0.7994  0.6667 -0.1965
 3591TIP3   OH232187   1.818   3.044  13.495 -0.2333 -0.1328 -0.0034
 3591TIP3    H132188   1.776   2.981  13.553 -1.3275  0.0925 -0.5208
 3591TIP3    H232189   1.909   3.047  13.524 -0.3883 -1.2214  0.6478
 3592TIP3   OH232190   4.941   4.262   3.812 -0.1062  0.0395 -0.6252
 3592TIP3    H132191   4.862   4.301   3.775  0.2913  2.8601  1.1954
 3592TIP3    H232192   4.910   4.204   3.881 -0.6106  0.3676 -0.5773
 3593TIP3   OH232193   4.980   5.009  12.674 -0.2704 -0.5355 -0.0164
 3593TIP3    H132194   5.023   4.923  12.671 -2.1030 -1.4768 -1.1251
 3593TIP3    H232195   4.890   4.990  12.701 -0.6678  1.0524 -0.1371
 3594TIP3   OH232196   0.349   1.947   4.938  0.4053  0.3183 -0.0779
 3594TIP3    H132197   0.274   1.894   4.909  0.6243  0.1502 -0.3445
 3594TIP3    H232198   0.421   1.918   4.882  0.5642  0.7997 -0.1271
 3595TIP3   OH232199   4.833   6.683  16.366  0.0127 -0.2830  0.1978
 3595TIP3    H132200   4.767   6.662  16.300 -0.9331 -0.3547  1.1481
 3595TIP3    H232201   4.829   6.611  16.428 -0.0462  0.4282  1.0359
 3596TIP3   OH232202   5.755   2.893   3.258  0.1162  0.5892 -0.1768
 3596TIP3    H132203   5.762   2.808   3.302  0.8976  0.5638 -0.3334
 3596TIP3    H232204   5.685   2.880   3.193 -1.5319  0.8292  1.4678
 3597TIP3   OH232205   2.672   2.604   3.901  0.2322 -0.3448  0.4252
 3597TIP3    H132206   2.691   2.689   3.941 -1.6227  0.7479 -0.8743
 3597TIP3    H232207   2.655   2.546   3.975 -0.0556  0.8224  1.3095
 3598TIP3   OH232208   2.865   5.298  14.306 -0.2383 -0.9455  0.0333
 3598TIP3    H132209   2.891   5.264  14.220  2.2878 -0.3152  0.4665
 3598TIP3    H232210   2.920   5.250  14.368 -0.3635  0.2258  1.0849
 3599TIP3   OH232211   0.943   4.986  15.378  0.1119 -0.9088 -0.3557
 3599TIP3    H132212   0.865   5.032  15.408 -0.6117 -2.6435  0.6218
 3599TIP3    H232213   0.956   5.015  15.288 -0.9992  0.2526 -0.1586
 3600TIP3   OH232214   0.305   2.497  10.954 -0.5896 -0.9843  0.3836
 3600TIP3    H132215   0.224   2.460  10.918 -0.7631 -0.0949 -0.1822
 3600TIP3    H232216   0.300   2.590  10.932  1.5051 -1.2082 -1.4307
 3601TIP3   OH232217   3.627   6.522   4.950  0.3489  0.2072  0.2348
 3601TIP3    H132218   3.671   6.606   4.940  0.0705  0.6323  2.1395
 3601TIP3    H232219   3.545   6.543   4.995  0.9179 -1.2060  2.0527
 3602TIP3   OH232220   1.946   6.254  15.025 -0.4702 -0.3102  0.2015
 3602TIP3    H132221   1.861   6.258  15.070  0.1128 -1.1145  1.4015
 3602TIP3    H232222   2.008   6.227  15.092  0.8630  0.8233 -0.5279
 3603TIP3   OH232223   4.865   1.073  13.212  0.4265  0.1152  0.1282
 3603TIP3    H132224   4.923   1.100  13.283 -1.3658 -0.1673  1.7861
 3603TIP3    H232225   4.838   1.155  13.171  1.0372  0.3199  0.1311
 3604TIP3   OH232226   5.391   6.642  13.822 -0.1669 -0.0712 -0.5572
 3604TIP3    H132227   5.393   6.679  13.733  2.2966 -0.6061 -0.7901
 3604TIP3    H232228   5.481   6.647  13.852 -0.7216 -1.1029  1.4452
 3605TIP3   OH232229   1.211   4.304   3.004 -0.2140  0.0217 -0.2468
 3605TIP3    H132230   1.301   4.327   3.028  0.3674 -0.3917 -1.8930
 3605TIP3    H232231   1.198   4.217   3.041 -0.1423  0.3190  0.4886
 3606TIP3   OH232232   2.668   0.648   2.932  0.2600  0.4484 -0.0772
 3606TIP3    H132233   2.644   0.580   2.995 -0.7519  0.4751 -0.4162
 3606TIP3    H232234   2.586   0.692   2.912  0.4984  0.2564 -1.6289
 3607TIP3   OH232235   0.427   5.816   5.387 -0.5703  0.1150 -0.0993
 3607TIP3    H132236   0.407   5.790   5.477 -0.1914  0.4114  0.0742
 3607TIP3    H232237   0.495   5.883   5.396 -2.8161  2.5888 -0.4140
 3608TIP3   OH232238   3.135   4.715  16.397  0.2517  0.1058  0.0179
 3608TIP3    H132239   3.088   4.783  16.349  0.3025 -0.4982 -0.9004
 3608TIP3    H232240   3.067   4.657  16.429  0.2177  0.5096  0.6972
 3609TIP3   OH232241   4.157   4.053   0.992 -0.0181 -0.2288 -0.3121
 3609TIP3    H132242   4.066   4.078   0.977 -0.2048 -0.4215  0.4371
 3609TIP3    H232243   4.204   4.136   1.000 -0.1712 -0.1300 -0.4322
 3610TIP3   OH232244   1.477   0.469  10.888 -0.5470  0.5957 -0.7555
 3610TIP3    H132245   1.408   0.496  10.827 -1.5086  0.1429  0.0878
 3610TIP3    H232246   1.463   0.375  10.900 -0.4255  0.6903  0.1988
 3611TIP3   OH232247   6.527   0.898   6.573 -0.7803 -0.0966 -0.3385
 3611TIP3    H132248   6.484   0.980   6.550 -2.8793 -1.4859 -1.7300
 3611TIP3    H232249   6.568   0.915   6.659 -0.0795  2.7045 -1.1277
 3612TIP3   OH232250   0.939   3.589  14.772  0.0168  0.1145  0.6176
 3612TIP3    H132251   0.877   3.549  14.711 -0.0180 -0.1850  0.8480
 3612TIP3    H232252   0.883   3.626  14.841  0.1654 -2.6036  2.3367
 3613TIP3   OH232253   4.978   0.302  12.695 -0.3830  0.5628 -0.2507
 3613TIP3    H132254   5.051   0.337  12.646 -0.5016  0.1243 -0.7529
 3613TIP3    H232255   4.901   0.317  12.639 -0.3192 -1.2426 -0.8884
 3614TIP3   OH232256   3.524   2.329   4.152 -0.3474 -0.8074  0.5661
 3614TIP3    H132257   3.446   2.384   4.143 -0.1151 -0.2599  1.7061
 3614TIP3    H232258   3.523   2.273   4.075 -1.6744 -0.5609  0.3856
 3615TIP3   OH232259   6.741   6.282   4.332 -1.1376  0.3469 -0.1156
 3615TIP3    H132260   6.769   6.223   4.262 -0.9869  0.0943  0.1575
 3615TIP3    H232261   6.756   6.370   4.297 -3.8265  0.3238 -1.5831
 3616TIP3   OH232262   0.140   3.630   4.088  0.0508  0.3858  0.5475
 3616TIP3    H132263   0.057   3.654   4.129 -0.1056 -0.0736  0.5032
 3616TIP3    H232264   0.207   3.659   4.151 -0.0975  1.4637  0.2378
 3617TIP3   OH232265   2.599   1.259  12.326  0.0248 -0.2951  0.5406
 3617TIP3    H132266   2.559   1.241  12.241  2.1424 -0.6430 -0.4477
 3617TIP3    H232267   2.682   1.303  12.304 -0.9559  2.8782  2.5530
 3618TIP3   OH232268   1.174   0.314  12.881  0.2893 -0.4301 -0.2148
 3618TIP3    H132269   1.266   0.337  12.876  0.3319 -0.7678 -1.0696
 3618TIP3    H232270   1.133   0.361  12.808 -0.1670 -0.4789  0.0047
 3619TIP3   OH232271   2.306   4.609  17.231 -0.3940  0.1223 -0.3240
 3619TIP3    H132272   2.277   4.570  17.148 -0.9129  1.3823 -0.7658
 3619TIP3    H232273   2.389   4.652  17.209 -1.1261  1.4866 -0.5144
 3620TIP3   OH232274   3.833   1.333  12.583 -0.2169 -0.0270  0.9043
 3620TIP3    H132275   3.837   1.346  12.678  0.6012 -0.7326  0.9780
 3620TIP3    H232276   3.922   1.311  12.557 -0.2390  1.0463 -0.1864
 3621TIP3   OH232277   1.198   5.083  11.537 -0.1244  0.0666 -0.7064
 3621TIP3    H132278   1.239   5.027  11.471  1.2613  0.5303 -0.2795
 3621TIP3    H232279   1.263   5.089  11.607 -0.6037  1.4656 -0.3456
 3622TIP3   OH232280   2.867   0.041   0.365 -0.3334  0.0515 -0.6440
 3622TIP3    H132281   2.924   0.057   0.440 -1.6901 -0.2197  0.4696
 3622TIP3    H232282   2.928   0.019   0.294  1.0041  0.8484  0.2111
 3623TIP3   OH232283   4.794   1.207   2.616 -0.6292 -0.1699  0.2997
 3623TIP3    H132284   4.718   1.240   2.663 -0.8043  0.3823 -0.3574
 3623TIP3    H232285   4.796   1.113   2.636 -1.0320 -0.0495  0.9314
 3624TIP3   OH232286   0.079   3.345   6.075 -0.3843 -0.3389  0.1471
 3624TIP3    H132287   0.138   3.380   6.141  1.1397 -2.2734 -0.0989
 3624TIP3    H232288   0.112   3.378   5.992 -1.1025  0.4862  0.1789
 3625TIP3   OH232289   3.244   2.899  17.048 -0.2574 -0.1282  0.1680
 3625TIP3    H132290   3.289   2.983  17.055 -1.3368  0.4342  0.4088
 3625TIP3    H232291   3.314   2.838  17.023  0.7888  0.5938  1.1597
 3626TIP3   OH232292   1.999   5.824   5.004 -0.2396 -0.6918 -0.0881
 3626TIP3    H132293   2.062   5.774   5.056 -0.0335 -0.7076 -0.3495
 3626TIP3    H232294   1.952   5.759   4.952  0.4450 -0.5776 -0.8811
 3627TIP3   OH232295   6.628   2.940   2.559  0.3013  0.1933 -0.4660
 3627TIP3    H132296   6.569   2.959   2.632  2.4818  2.2270  0.9454
 3627TIP3    H232297   6.697   2.887   2.597  1.0375  0.5698 -1.2372
 3628TIP3   OH232298   4.484   2.796   1.911  0.3271 -0.1668  0.0465
 3628TIP3    H132299   4.512   2.883   1.940 -0.6625 -0.0806  0.8225
 3628TIP3    H232300   4.388   2.802   1.907  0.3591 -0.5278 -2.2191
 3629TIP3   OH232301   0.938   0.113  12.626  0.3254 -0.5133 -0.2272
 3629TIP3    H132302   0.915   0.122  12.718 -0.5111 -1.0220 -0.3797
 3629TIP3    H232303   1.032   0.093  12.627  0.4005 -0.1452  0.4912
 3630TIP3   OH232304   2.278   0.128   4.873 -1.4183 -0.6244  0.1745
 3630TIP3    H132305   2.357   0.107   4.823 -0.8300 -0.2174  0.9004
 3630TIP3    H232306   2.246   0.209   4.834 -1.0160 -0.3587  0.3922
 3631TIP3   OH232307   1.647   3.705   1.598  0.0802 -0.3556 -0.4402
 3631TIP3    H132308   1.726   3.705   1.545  1.2336 -2.8626  1.0866
 3631TIP3    H232309   1.647   3.619   1.641 -2.3012  0.4259  1.3493
 3632TIP3   OH232310   0.847   1.771  13.324 -0.2617  0.0139  0.2141
 3632TIP3    H132311   0.824   1.856  13.362 -0.9355 -0.0585 -0.0215
 3632TIP3    H232312   0.941   1.776  13.310 -0.3084  0.7505  0.1212
 3633TIP3   OH232313   1.503   5.077   4.270  0.1508  0.3854 -0.0280
 3633TIP3    H132314   1.517   4.997   4.321 -0.4387 -0.9473 -1.8371
 3633TIP3    H232315   1.490   5.046   4.180 -0.0858  2.5354 -0.7976
 3634TIP3   OH232316   5.417   6.616   1.327  0.4260  0.5887  0.1951
 3634TIP3    H132317   5.444   6.524   1.328 -0.7513  0.1269 -2.3819
 3634TIP3    H232318   5.440   6.647   1.240 -0.0370  2.5117  0.7018
 3635TIP3   OH232319   6.096   3.768  11.548  0.1192 -0.3593  0.1895
 3635TIP3    H132320   6.060   3.847  11.588  2.1199 -0.0633  1.5723
 3635TIP3    H232321   6.095   3.786  11.454 -0.6464  0.7534  0.3959
 3636TIP3   OH232322   0.575   4.759   5.347  0.2994 -0.6085  0.6049
 3636TIP3    H132323   0.525   4.765   5.266 -0.7410 -0.0343  1.2676
 3636TIP3    H232324   0.538   4.684   5.393  0.1308 -0.2582  1.0444
 3637TIP3   OH232325   0.587   3.350   6.747  0.2189  0.4621 -0.8219
 3637TIP3    H132326   0.623   3.327   6.661  0.8337  1.7730 -0.9399
 3637TIP3    H232327   0.553   3.439   6.735  1.4551  1.1707  0.6191
 3638TIP3   OH232328   3.645   2.148   3.678 -0.1227 -0.0446 -0.5002
 3638TIP3    H132329   3.672   2.061   3.706 -0.0089  0.5337  1.3310
 3638TIP3    H232330   3.556   2.136   3.644 -1.1735 -0.5266  2.1464
 3639TIP3   OH232331   0.027   3.943  12.297 -0.0183  0.8754 -0.3370
 3639TIP3    H132332   0.116   3.974  12.285  0.1877  1.2877  1.9535
 3639TIP3    H232333  -0.025   4.023  12.310 -0.6143  0.5987 -0.9534
 3640TIP3   OH232334   5.802   2.070   2.003 -0.2307  0.0053  0.1171
 3640TIP3    H132335   5.810   2.161   2.033 -1.5572  0.3206 -0.4232
 3640TIP3    H232336   5.753   2.027   2.073 -0.8731  0.0597 -0.2996
 3641TIP3   OH232337   4.728   1.325   6.174  0.0067 -0.2687 -0.3991
 3641TIP3    H132338   4.713   1.393   6.240 -1.2604 -1.7470  0.9083
 3641TIP3    H232339   4.681   1.248   6.207  0.7450 -1.5699 -2.2081
 3642TIP3   OH232340   4.036   0.185   2.680 -0.1696 -0.8843 -0.0984
 3642TIP3    H132341   4.094   0.163   2.607 -0.9066 -0.5033 -0.8056
 3642TIP3    H232342   3.956   0.136   2.663 -0.4170 -0.6456  0.3546
 3643TIP3   OH232343   3.955   2.315   5.278 -0.1293  0.0331 -0.5049
 3643TIP3    H132344   4.019   2.283   5.215 -0.1569  1.7487 -1.4498
 3643TIP3    H232345   3.995   2.297   5.364  0.1714 -1.7790 -0.9851
 3644TIP3   OH232346   1.990   2.577   2.259 -0.3137 -0.1108  0.8909
 3644TIP3    H132347   2.000   2.489   2.224 -0.3837 -0.6848  2.2245
 3644TIP3    H232348   1.980   2.633   2.183  0.9875 -1.0846 -0.0332
 3645TIP3   OH232349   0.709   6.647   4.549 -0.6465  0.3241  0.5299
 3645TIP3    H132350   0.795   6.688   4.553 -0.4348 -0.1751  1.2827
 3645TIP3    H232351   0.647   6.720   4.555 -0.3366  0.9312 -2.2438
 3646TIP3   OH232352   2.316   3.782   6.207 -0.8051  0.2353  0.2248
 3646TIP3    H132353   2.352   3.818   6.288 -0.8552 -0.9872  0.8222
 3646TIP3    H232354   2.221   3.793   6.216 -0.8471 -0.3845  0.5872
 3647TIP3   OH232355   5.521   4.501   1.090 -0.2034  0.2975  0.4577
 3647TIP3    H132356   5.431   4.507   1.057  0.0974  0.6528 -0.3167
 3647TIP3    H232357   5.511   4.477   1.182 -1.0838  0.0379  0.3037
 3648TIP3   OH232358   4.784   2.077   2.253 -0.0059 -0.1152 -0.1590
 3648TIP3    H132359   4.859   2.134   2.240 -0.1140  0.2762  0.8766
 3648TIP3    H232360   4.786   2.018   2.178  0.9870  0.2668 -0.4510
 3649TIP3   OH232361   6.737   6.326  14.224 -0.5785  0.3429  0.2599
 3649TIP3    H132362   6.752   6.239  14.187 -0.2357  0.0393  1.0880
 3649TIP3    H232363   6.818   6.346  14.272 -1.2161  0.4787  1.3078
 3650TIP3   OH232364   4.117   6.661  10.649  0.4778  0.3336  0.4870
 3650TIP3    H132365   4.097   6.568  10.646  0.2711  0.3782  0.4840
 3650TIP3    H232366   4.064   6.695  10.721 -1.3997  0.9255 -1.1043
 3651TIP3   OH232367   3.539   3.201  11.593  0.0362  0.0048  0.2768
 3651TIP3    H132368   3.520   3.273  11.533 -0.5887 -1.4054 -1.3063
 3651TIP3    H232369   3.462   3.144  11.587 -0.1163 -0.1122  2.5815
 3652TIP3   OH232370   6.485   4.381  11.591  0.3486 -0.5199 -0.4048
 3652TIP3    H132371   6.513   4.415  11.675  2.1663 -1.1881 -0.6875
 3652TIP3    H232372   6.567   4.353  11.548 -0.7638 -2.9664 -1.1370
 3653TIP3   OH232373   4.176   1.706  12.624  0.1935  0.1737 -0.0877
 3653TIP3    H132374   4.158   1.625  12.672  0.1415  0.8877  1.1493
 3653TIP3    H232375   4.096   1.758  12.635  1.5087  1.8765  2.3307
 3654TIP3   OH232376   5.547   0.569  16.720 -0.7518  0.4434  0.0055
 3654TIP3    H132377   5.538   0.639  16.785  3.2531  0.8522  0.4056
 3654TIP3    H232378   5.567   0.491  16.772  3.0999  0.8910 -0.4914
 3655TIP3   OH232379   5.773   2.785  17.169 -0.2561 -0.4346 -0.0485
 3655TIP3    H132380   5.774   2.745  17.082 -0.2922  0.4150 -0.4562
 3655TIP3    H232381   5.864   2.810  17.185 -0.3414 -0.0717 -0.1023
 3656TIP3   OH232382   3.573   0.325  12.213 -0.3460 -0.4000  0.1200
 3656TIP3    H132383   3.481   0.308  12.192 -0.6793  0.5510  0.7780
 3656TIP3    H232384   3.621   0.286  12.140 -1.2234 -1.5443  0.1217
 3657TIP3   OH232385   0.810   4.062  15.210  0.1211  0.3191  0.1327
 3657TIP3    H132386   0.741   4.024  15.156  1.6392 -0.9659 -0.9987
 3657TIP3    H232387   0.815   4.153  15.181  0.4146 -0.1608 -1.4228
 3658TIP3   OH232388   5.188   2.878   4.527 -0.3060  0.4365  0.1437
 3658TIP3    H132389   5.215   2.954   4.475 -2.6194  1.0458 -0.2944
 3658TIP3    H232390   5.151   2.917   4.607  0.2186 -0.3427  0.7784
 3659TIP3   OH232391   4.088   5.655   3.982 -0.4781 -0.2571 -0.4684
 3659TIP3    H132392   4.093   5.560   3.993  0.8457 -0.0093  1.5643
 3659TIP3    H232393   4.154   5.690   4.042 -1.4704  1.9905 -0.5726
 3660TIP3   OH232394   1.250   4.675   5.817  0.5435 -0.1551  0.6258
 3660TIP3    H132395   1.216   4.585   5.819 -1.5219  0.5920  1.6609
 3660TIP3    H232396   1.306   4.677   5.739 -0.3995 -1.9764 -0.1779
 3661TIP3   OH232397   2.467   1.255  11.490  0.3389 -0.3080  0.2698
 3661TIP3    H132398   2.533   1.303  11.441 -0.3880 -2.2972 -2.9345
 3661TIP3    H232399   2.388   1.308  11.481  0.1008 -0.8610 -1.2387
 3662TIP3   OH232400   0.221   3.647  14.617  0.1600  0.1624 -0.7448
 3662TIP3    H132401   0.236   3.554  14.600 -1.0316 -0.3955  0.9890
 3662TIP3    H232402   0.127   3.658  14.605 -0.1163  0.5678  1.4115
 3663TIP3   OH232403   0.499   2.074   3.125  0.2117 -0.4954 -0.1021
 3663TIP3    H132404   0.544   2.048   3.205  0.6364 -1.5000 -0.6539
 3663TIP3    H232405   0.456   2.156   3.148  0.9290 -0.3855  0.9375
 3664TIP3   OH232406   6.476   5.364   4.808 -0.2529 -0.0630  0.5058
 3664TIP3    H132407   6.418   5.342   4.881  0.6165 -2.4686  0.5506
 3664TIP3    H232408   6.552   5.405   4.849 -1.0974  1.4744  0.6072
 3665TIP3   OH232409   5.660   5.183   4.518 -0.3829 -0.3045 -0.7118
 3665TIP3    H132410   5.691   5.223   4.436 -0.6546  1.3580 -0.0309
 3665TIP3    H232411   5.672   5.251   4.584 -3.7860 -0.1893 -0.0614
 3666TIP3   OH232412   5.699   6.278   6.297  0.2775 -0.4052  0.0978
 3666TIP3    H132413   5.649   6.227   6.361 -0.3868  3.3357  2.9402
 3666TIP3    H232414   5.784   6.291   6.338  0.8834 -0.3058 -1.1515
 3667TIP3   OH232415   4.493   1.794  13.295 -0.6439 -0.0922 -0.3319
 3667TIP3    H132416   4.412   1.779  13.246  0.3838 -2.0178 -1.5474
 3667TIP3    H232417   4.527   1.707  13.313  1.3204  0.6768 -0.1087
 3668TIP3   OH232418   5.385   2.460   1.902 -0.0732 -0.7869  0.4943
 3668TIP3    H132419   5.328   2.420   1.968  0.1205  0.4983  1.4663
 3668TIP3    H232420   5.354   2.423   1.819 -0.9976 -1.6485  1.1889
 3669TIP3   OH232421   4.444   5.500   1.869  0.4014  0.0531  0.3921
 3669TIP3    H132422   4.352   5.496   1.895 -0.0140 -1.1103 -1.0727
 3669TIP3    H232423   4.442   5.518   1.775  1.5496 -1.8628 -0.0760
 3670TIP3   OH232424   0.731   4.642   2.113 -0.0812  0.2945  0.1288
 3670TIP3    H132425   0.779   4.644   2.030  1.9966  0.1441  1.2699
 3670TIP3    H232426   0.762   4.564   2.158 -1.5336  0.1096  0.8952
 3671TIP3   OH232427   3.389   6.090   2.759  0.4172 -0.3245  0.5779
 3671TIP3    H132428   3.346   6.167   2.795  0.1589 -0.8714  1.4582
 3671TIP3    H232429   3.479   6.095   2.792  0.5790 -0.0632  0.1048
 3672TIP3   OH232430   2.716   0.805  11.827  0.0649  0.1469  0.2215
 3672TIP3    H132431   2.786   0.741  11.842  0.0075 -0.2419 -1.0554
 3672TIP3    H232432   2.762   0.883  11.795 -0.1357 -0.5451 -1.9196
 3673TIP3   OH232433   4.113   2.271   5.028  0.2853  0.0116  0.0278
 3673TIP3    H132434   4.185   2.214   5.056  0.0503  0.4110  1.5243
 3673TIP3    H232435   4.090   2.239   4.941  2.1159 -0.2646 -0.3953
 3674TIP3   OH232436   4.859   3.008  15.682  0.6176  0.5066  0.1585
 3674TIP3    H132437   4.828   3.097  15.698 -0.6410  0.2021 -0.4026
 3674TIP3    H232438   4.789   2.968  15.629  1.2668 -0.7340  0.2052
 3675TIP3   OH232439   1.559   4.142   0.668  0.0865  0.1636 -0.1568
 3675TIP3    H132440   1.467   4.117   0.671 -0.1521  1.0456  0.6715
 3675TIP3    H232441   1.587   4.143   0.760  1.4264 -1.7850 -0.4809
 3676TIP3   OH232442   5.778   3.016  14.756 -0.3027  0.0953  0.1531
 3676TIP3    H132443   5.743   2.991  14.671 -0.4819  1.2922 -0.1415
 3676TIP3    H232444   5.873   3.013  14.745 -0.3272  0.6114 -0.1989
 3677TIP3   OH232445   1.815   0.417   4.274  0.2266  0.0258 -0.1716
 3677TIP3    H132446   1.815   0.513   4.267  0.7642  0.0591  0.1725
 3677TIP3    H232447   1.816   0.400   4.368  0.6204 -0.3088 -0.2306
 3678TIP3   OH232448   1.706   5.010  14.219 -0.1382  0.2181 -0.7650
 3678TIP3    H132449   1.722   4.931  14.270 -0.8878 -0.6388 -1.8166
 3678TIP3    H232450   1.723   5.082  14.280  1.4973 -0.7095 -0.0484
 3679TIP3   OH232451   5.964   6.317  11.449 -0.7838 -0.3118 -0.0832
 3679TIP3    H132452   5.885   6.322  11.502 -2.2044  1.0441 -2.2045
 3679TIP3    H232453   5.947   6.247  11.386  0.0883 -0.6067 -0.0094
 3680TIP3   OH232454   3.898   4.727   1.322 -0.1710 -0.3034  0.2228
 3680TIP3    H132455   3.924   4.804   1.271  0.9543 -0.6545  0.2428
 3680TIP3    H232456   3.938   4.740   1.408 -0.5608 -0.5802  0.4525
 3681TIP3   OH232457   3.289   5.831  14.737  0.2668 -0.0263  0.0546
 3681TIP3    H132458   3.240   5.803  14.814 -0.2019  0.5461 -0.0308
 3681TIP3    H232459   3.222   5.850  14.671  0.6221  0.2736 -0.2256
 3682TIP3   OH232460   3.754   4.486   4.961  0.3815 -0.3011  0.5205
 3682TIP3    H132461   3.836   4.488   5.011 -0.2146  0.0464  1.5078
 3682TIP3    H232462   3.736   4.578   4.941  0.3797 -0.4009  0.0411
 3683TIP3   OH232463   3.143   4.806  14.390 -0.2462  0.8958  0.0704
 3683TIP3    H132464   3.219   4.779  14.442  0.2152 -0.6319 -1.2931
 3683TIP3    H232465   3.137   4.900  14.403  0.8868  0.8018  1.5039
 3684TIP3   OH232466   4.320   2.150   3.197  0.0769 -0.0975 -0.1106
 3684TIP3    H132467   4.357   2.087   3.259  0.8857  1.3827  0.9910
 3684TIP3    H232468   4.295   2.224   3.252 -0.5089  0.6973 -1.4068
 3685TIP3   OH232469   2.570   1.488  16.153  0.0631  0.4335  0.4368
 3685TIP3    H132470   2.539   1.441  16.231  0.8412  0.4525  0.7723
 3685TIP3    H232471   2.590   1.418  16.090  0.2312  0.3697  0.5605
 3686TIP3   OH232472   0.045   4.019   1.574  0.1340  0.1129 -0.1507
 3686TIP3    H132473   0.022   3.970   1.495  1.2606 -1.5224  0.4584
 3686TIP3    H232474   0.103   4.089   1.543  1.3309 -1.0782 -0.7108
 3687TIP3   OH232475   4.027   3.117  13.419 -0.2392  0.2184 -0.2428
 3687TIP3    H132476   4.010   3.154  13.333 -0.5184 -1.7336 -1.0749
 3687TIP3    H232477   3.944   3.127  13.467 -0.7094 -0.4487 -0.8987
 3688TIP3   OH232478   4.682   4.583   2.598 -0.5474  0.6778  0.1531
 3688TIP3    H132479   4.603   4.595   2.545 -0.1565  0.5435 -0.4746
 3688TIP3    H232480   4.686   4.662   2.653 -1.6271  0.2446  0.8820
 3689TIP3   OH232481   1.213   0.879   2.161  0.0796 -0.4547 -0.3793
 3689TIP3    H132482   1.167   0.799   2.136  1.6718 -0.7009 -2.8835
 3689TIP3    H232483   1.305   0.853   2.166  0.2914  0.5093  2.2524
 3690TIP3   OH232484   2.467   0.665  12.691  0.3849 -0.6234  0.5797
 3690TIP3    H132485   2.391   0.618  12.726 -0.5560 -1.2114 -2.0236
 3690TIP3    H232486   2.542   0.609  12.713 -0.2406 -1.3314  0.9720
 3691TIP3   OH232487   4.821   4.700   1.928  0.4542 -0.4667 -0.2209
 3691TIP3    H132488   4.891   4.764   1.916 -0.7106  1.3196  1.7157
 3691TIP3    H232489   4.741   4.751   1.916 -0.5343 -1.9403 -0.1339
 3692TIP3   OH232490   3.795   5.593  13.295 -0.2255 -0.5097  0.5141
 3692TIP3    H132491   3.887   5.578  13.271  0.1199  0.2690  1.2722
 3692TIP3    H232492   3.759   5.506  13.309  0.4154 -0.8249  0.2530
 3693TIP3   OH232493   6.228   3.826  16.865 -0.2742  0.9106 -0.2798
 3693TIP3    H132494   6.231   3.902  16.806 -2.0669  0.7817 -0.5829
 3693TIP3    H232495   6.317   3.790  16.862  0.9324  3.5086  0.5912
 3694TIP3   OH232496   6.106   6.213  12.098  0.2401 -0.7256 -0.6256
 3694TIP3    H132497   6.133   6.130  12.059  1.4503  0.5814 -2.7955
 3694TIP3    H232498   6.188   6.262  12.110 -0.5870  0.9501 -1.4532
 3695TIP3   OH232499   5.169   1.890  12.051 -0.3777  0.1660  0.1682
 3695TIP3    H132500   5.087   1.844  12.034 -0.4828  0.1425  0.7218
 3695TIP3    H232501   5.236   1.833  12.013 -0.7298  0.9803 -1.7785
 3696TIP3   OH232502   0.651   0.933   2.262 -0.2384 -0.0333  0.1911
 3696TIP3    H132503   0.651   1.023   2.295 -0.3505 -0.4289  1.2965
 3696TIP3    H232504   0.672   0.942   2.169  1.0505  1.0263  0.5548
 3697TIP3   OH232505   2.061   4.212   5.127 -0.0109 -0.1687  0.6636
 3697TIP3    H132506   1.979   4.174   5.095 -0.2975 -0.0572  1.2484
 3697TIP3    H232507   2.130   4.155   5.093 -0.4178 -1.0728  1.3303
 3698TIP3   OH232508   1.300   1.561  15.328 -0.4328 -1.1259 -0.0584
 3698TIP3    H132509   1.212   1.557  15.289 -0.3483 -3.2961 -0.1541
 3698TIP3    H232510   1.285   1.596  15.416 -1.1706 -0.0561 -0.5791
 3699TIP3   OH232511   1.264   3.843  11.145  0.1901  0.9963  0.8068
 3699TIP3    H132512   1.258   3.766  11.201 -1.0292  1.1640  0.9475
 3699TIP3    H232513   1.324   3.818  11.075 -1.6792 -0.8283 -0.2764
 3700TIP3   OH232514   0.084   4.658   1.114 -0.3105 -0.8142 -0.1912
 3700TIP3    H132515  -0.000   4.626   1.147 -0.6585 -0.2073 -0.4714
 3700TIP3    H232516   0.132   4.686   1.191 -2.3876  3.7473 -0.2359
 3701TIP3   OH232517   0.652   4.671   5.848  0.3609  0.5304  0.1471
 3701TIP3    H132518   0.688   4.585   5.869  0.5821  0.7711  0.7935
 3701TIP3    H232519   0.722   4.715   5.800 -1.2508 -1.1736 -4.2674
 3702TIP3   OH232520   5.135   1.240  11.196  0.1791 -0.2263  0.2876
 3702TIP3    H132521   5.183   1.283  11.266 -0.7068  1.2723  0.0125
 3702TIP3    H232522   5.202   1.220  11.130  0.8969 -0.9915  1.2140
 3703TIP3   OH232523   3.631   2.379   2.635 -0.4901  0.2560  0.0177
 3703TIP3    H132524   3.652   2.370   2.542  0.1725  0.7911  0.1100
 3703TIP3    H232525   3.644   2.291   2.671 -0.0637  0.2062 -0.2598
 3704TIP3   OH232526   3.664   0.942   3.819 -0.5192  0.1815  0.6623
 3704TIP3    H132527   3.610   0.903   3.887 -1.3001  0.8242  0.4330
 3704TIP3    H232528   3.610   1.013   3.783  0.7232  1.2893  0.8707
 3705TIP3   OH232529   5.340   0.431   3.343  0.2061 -0.8059 -0.3252
 3705TIP3    H132530   5.354   0.386   3.260 -0.0096  0.1572 -0.9020
 3705TIP3    H232531   5.248   0.418   3.362 -0.3755  0.9984 -1.5254
 3706TIP3   OH232532   4.025   1.241   2.997  0.6450 -0.5625  0.1670
 3706TIP3    H132533   4.088   1.312   3.007 -0.2656  0.1297  1.3338
 3706TIP3    H232534   4.045   1.202   2.912  0.9944  1.2657 -0.6347
 3707TIP3   OH232535   6.718   3.504   5.633  0.1028 -0.6621 -0.6982
 3707TIP3    H132536   6.809   3.526   5.655  0.7614 -2.2222 -1.7498
 3707TIP3    H232537   6.679   3.481   5.718 -0.0355  2.2624  0.1374
 3708TIP3   OH232538   6.216   6.337  13.309  0.5392  1.0481  0.8958
 3708TIP3    H132539   6.306   6.339  13.339  0.9651 -3.3717  0.6443
 3708TIP3    H232540   6.175   6.269  13.362 -1.5232  0.2306 -1.5453
 3709TIP3   OH232541   2.780   2.551  16.964 -0.0271 -0.1460  0.1303
 3709TIP3    H132542   2.803   2.634  16.923 -1.4208 -0.0672 -0.5597
 3709TIP3    H232543   2.807   2.561  17.055  0.0609  0.9727 -0.0031
 3710TIP3   OH232544   3.070   2.194   0.973  0.3753  0.5015 -0.6703
 3710TIP3    H132545   3.098   2.196   1.064  0.4333  0.2613 -0.6834
 3710TIP3    H232546   2.999   2.131   0.970  0.9585 -0.1551 -0.9540
 3711TIP3   OH232547   4.527   3.360  16.058  0.0475  0.1436  0.3694
 3711TIP3    H132548   4.512   3.369  15.964  4.3074 -0.8200 -0.6033
 3711TIP3    H232549   4.578   3.438  16.082  1.2884 -0.8707  1.2015
 3712TIP3   OH232550   4.105   5.638   3.366 -0.2527  0.0482  0.4036
 3712TIP3    H132551   4.068   5.550   3.370  0.9833 -0.5708 -0.8213
 3712TIP3    H232552   4.071   5.675   3.285  0.1277  0.2502  0.3312
 3713TIP3   OH232553   3.934   6.685  15.650  0.3727 -0.6437 -0.2026
 3713TIP3    H132554   3.980   6.759  15.691 -1.0967  0.7380 -0.9346
 3713TIP3    H232555   3.925   6.621  15.720 -0.8837  1.0948  1.3507
 3714TIP3   OH232556   4.661   0.428  10.772 -0.5300  0.6130  0.6042
 3714TIP3    H132557   4.566   0.432  10.761 -0.4059  0.2710 -0.6735
 3714TIP3    H232558   4.697   0.454  10.688  0.5408  1.6461  1.3499
 3715TIP3   OH232559   5.110   2.512  15.488  0.3342 -0.3654 -0.0510
 3715TIP3    H132560   5.188   2.558  15.518  0.6948 -0.4109 -0.9183
 3715TIP3    H232561   5.062   2.577  15.437  0.1448 -0.5415 -0.0987
 3716TIP3   OH232562   0.784   5.857   1.757  0.0991 -0.4717  0.1260
 3716TIP3    H132563   0.719   5.901   1.812 -0.8401 -0.9575 -0.5619
 3716TIP3    H232564   0.821   5.928   1.704 -0.6270 -0.3290 -0.2081
 3717TIP3   OH232565   6.654   1.062   2.659 -0.4917  0.0808  0.5559
 3717TIP3    H132566   6.639   0.971   2.635 -0.2326  0.4515 -1.1810
 3717TIP3    H232567   6.621   1.112   2.584  2.6120  1.2318 -0.2147
 3718TIP3   OH232568   3.389   4.105  12.030  0.0957 -0.3061 -0.1137
 3718TIP3    H132569   3.416   4.190  12.065  0.6859 -0.6111  0.2051
 3718TIP3    H232570   3.313   4.124  11.976 -1.2685  0.0945  1.8552
 3719TIP3   OH232571   3.365   4.639  11.647  0.3903  0.2124  0.0612
 3719TIP3    H132572   3.407   4.560  11.613 -1.3028  0.4425 -2.8548
 3719TIP3    H232573   3.273   4.630  11.622 -0.3229  2.0119  1.8307
 3720TIP3   OH232574   5.292   3.428   1.015  0.1078  0.1924 -0.1087
 3720TIP3    H132575   5.264   3.359   0.955 -0.7245  0.8520 -0.4956
 3720TIP3    H232576   5.361   3.474   0.968 -0.4405  0.6158 -0.5016
 3721TIP3   OH232577   6.374   5.836   1.918  0.0804  0.5732 -0.1225
 3721TIP3    H132578   6.369   5.831   1.823 -0.8874 -0.2477 -0.0529
 3721TIP3    H232579   6.299   5.891   1.943 -1.6389 -1.7958  0.3067
 3722TIP3   OH232580   0.684   0.237  15.584  0.0642  0.0863  0.0187
 3722TIP3    H132581   0.605   0.290  15.589 -0.1956 -0.1076 -1.4922
 3722TIP3    H232582   0.707   0.219  15.675 -2.5131 -1.1487  0.5064
 3723TIP3   OH232583   0.363   3.528  11.945 -0.4340  0.4268 -0.0762
 3723TIP3    H132584   0.289   3.587  11.961 -0.2688  0.6425 -0.0953
 3723TIP3    H232585   0.411   3.569  11.873 -0.7236 -0.1159 -0.5871
 3724TIP3   OH232586   4.081   0.210   2.329 -0.2807 -0.5093 -0.1889
 3724TIP3    H132587   4.001   0.224   2.380  1.2516  1.3016  1.9289
 3724TIP3    H232588   4.065   0.256   2.247 -1.6545 -0.7838 -0.1026
 3725TIP3   OH232589   3.769   3.843   3.338  0.0421 -0.2442  0.7724
 3725TIP3    H132590   3.714   3.922   3.335  0.7389  0.2172 -0.7352
 3725TIP3    H232591   3.766   3.809   3.249  1.7901 -0.4881  0.7751
 3726TIP3   OH232592   3.054   2.144  13.430  0.3962 -0.5428 -0.0575
 3726TIP3    H132593   2.978   2.201  13.437 -0.3681 -1.6293  0.7279
 3726TIP3    H232594   3.035   2.087  13.356  0.5740 -0.6229 -0.0430
 3727TIP3   OH232595   5.844   0.801  15.475 -0.2131  0.6815  0.2627
 3727TIP3    H132596   5.888   0.807  15.391 -0.1591 -1.9083  0.0308
 3727TIP3    H232597   5.869   0.715  15.509 -2.0835  0.7025  1.8568
 3728TIP3   OH232598   2.146   5.298   0.159 -0.1309  0.4268 -0.3121
 3728TIP3    H132599   2.099   5.215   0.155 -1.3523  0.7113  3.6063
 3728TIP3    H232600   2.239   5.273   0.160 -0.4242 -0.7526 -0.7853
 3729TIP3   OH232601   3.850   5.273  15.660  0.0871 -0.2559  0.3118
 3729TIP3    H132602   3.889   5.360  15.652 -1.5912  0.5789  0.9697
 3729TIP3    H232603   3.866   5.248  15.751  0.3411 -0.5313  0.1929
 3730TIP3   OH232604   2.758   0.742  15.423  0.0389 -0.2674  0.5670
 3730TIP3    H132605   2.832   0.682  15.434 -0.5759 -0.8869  1.5224
 3730TIP3    H232606   2.784   0.821  15.470 -0.5166 -1.0711  2.3399
 3731TIP3   OH232607   1.048   0.440  11.573  0.1058  0.0525 -0.2130
 3731TIP3    H132608   1.091   0.387  11.639 -1.0824 -0.9211 -0.1935
 3731TIP3    H232609   0.955   0.419  11.581 -0.4475  2.2449 -0.0967
 3732TIP3   OH232610   3.694   5.265  11.751 -0.2792 -0.2538  0.4912
 3732TIP3    H132611   3.785   5.269  11.720 -0.8810  1.5964 -1.2847
 3732TIP3    H232612   3.663   5.179  11.723  1.0552 -1.1803  1.6862
 3733TIP3   OH232613   3.113   5.956  10.513 -0.4445  0.9740 -0.2652
 3733TIP3    H132614   3.068   5.984  10.433 -0.4338 -0.2851 -0.7275
 3733TIP3    H232615   3.061   5.883  10.546 -0.1223  1.1082  0.5616
 3734TIP3   OH232616   3.165   0.098   5.183 -0.1365  0.6716  0.2515
 3734TIP3    H132617   3.223   0.129   5.253 -0.3652  2.1061 -0.1572
 3734TIP3    H232618   3.116   0.176   5.157 -2.2501 -0.4964  0.5713
 3735TIP3   OH232619   1.239   6.299   2.827 -0.0370  0.0937  0.0501
 3735TIP3    H132620   1.241   6.389   2.794 -0.0930 -0.4872 -1.6121
 3735TIP3    H232621   1.147   6.274   2.824  0.0720 -0.2797 -0.2462
 3736TIP3   OH232622   0.311   1.588  13.823  0.1665  0.7853 -0.6032
 3736TIP3    H132623   0.375   1.518  13.834 -0.0848  0.7412  0.7824
 3736TIP3    H232624   0.227   1.543  13.823 -0.0523  1.1192  1.1783
 3737TIP3   OH232625   3.499   2.626   5.376 -0.0020  0.1410 -0.4628
 3737TIP3    H132626   3.572   2.640   5.436 -1.2887  0.4126  1.0766
 3737TIP3    H232627   3.424   2.609   5.432 -1.6165  2.0133 -1.9300
 3738TIP3   OH232628   1.246   0.851   3.317 -0.7437  0.2384 -0.1937
 3738TIP3    H132629   1.165   0.816   3.355  0.0080 -0.7188  0.5876
 3738TIP3    H232630   1.302   0.868   3.392 -0.5241  1.7772 -0.6654
 3739TIP3   OH232631   0.536   4.258  16.290  0.1196 -0.3317 -0.4929
 3739TIP3    H132632   0.619   4.306  16.297 -0.4375  0.4438  1.6687
 3739TIP3    H232633   0.544   4.187  16.355 -1.4387  0.6681  0.8664
 3740TIP3   OH232634   0.142   4.486  13.574  0.1620 -0.2570  0.2397
 3740TIP3    H132635   0.195   4.408  13.588 -1.1201 -0.9414  1.5418
 3740TIP3    H232636   0.204   4.559  13.580  1.0388 -1.0574  1.1917
 3741TIP3   OH232637   4.809   6.202   3.097 -0.4187  0.4078  0.4137
 3741TIP3    H132638   4.815   6.154   3.179 -2.1624 -3.1451 -1.3108
 3741TIP3    H232639   4.715   6.208   3.079 -0.0769  0.4830 -1.5856
 3742TIP3   OH232640   1.184   0.661  11.620  0.8299 -0.0687  0.0566
 3742TIP3    H132641   1.154   0.663  11.710 -0.0366  2.3141 -0.2061
 3742TIP3    H232642   1.147   0.580  11.584 -0.3913 -0.1072  1.3245
 3743TIP3   OH232643   0.338   5.495  13.979 -0.0142  0.0424  0.2935
 3743TIP3    H132644   0.416   5.466  13.934  0.0152  0.1597  0.2693
 3743TIP3    H232645   0.370   5.531  14.062 -0.0673 -0.1688  0.4068
 3744TIP3   OH232646   2.358   4.779  11.592  0.7338 -0.2644 -0.2793
 3744TIP3    H132647   2.274   4.824  11.602  0.7470 -0.5431  1.3076
 3744TIP3    H232648   2.424   4.847  11.609  0.7638 -0.6046  1.1417
 3745TIP3   OH232649   3.866   1.733   2.039  0.4439 -0.5187 -0.3299
 3745TIP3    H132650   3.853   1.702   1.949  1.3532 -0.1701 -0.5928
 3745TIP3    H232651   3.874   1.828   2.031  1.0721 -0.5366  0.0482
 3746TIP3   OH232652   1.557   5.892  11.833  0.8783 -0.0993  0.1220
 3746TIP3    H132653   1.572   5.839  11.755  0.8341 -0.6059  0.4538
 3746TIP3    H232654   1.642   5.893  11.878  0.7787 -0.2356  0.3203
 3747TIP3   OH232655   4.756   4.413   1.980  0.0917  0.0547 -0.1032
 3747TIP3    H132656   4.729   4.321   1.973 -2.5297  0.8023 -0.6436
 3747TIP3    H232657   4.827   4.422   1.916 -1.5539 -0.9509 -2.1960
 3748TIP3   OH232658   3.497   6.532   3.431 -0.5412 -0.0739 -0.0817
 3748TIP3    H132659   3.430   6.544   3.499 -0.7347 -1.3931 -0.0268
 3748TIP3    H232660   3.554   6.463   3.465  0.2469  0.3057 -0.5960
 3749TIP3   OH232661   0.513   6.524   5.184  0.2024 -0.4874  0.7201
 3749TIP3    H132662   0.461   6.529   5.264 -0.2427 -0.7153  0.4430
 3749TIP3    H232663   0.454   6.487   5.118  1.0331 -1.8036  0.6802
 3750TIP3   OH232664   1.372   1.420  13.753  0.1832 -0.1300  0.2090
 3750TIP3    H132665   1.321   1.480  13.699  0.3741 -0.1781 -0.0260
 3750TIP3    H232666   1.307   1.364  13.795  0.1226 -1.4227 -1.5216
 3751TIP3   OH232667   4.636   1.719   1.796  0.4881  0.0195  0.8098
 3751TIP3    H132668   4.607   1.704   1.706  0.6847 -1.0425  0.9064
 3751TIP3    H232669   4.557   1.748   1.842  0.4565  0.8712  0.2343
 3752TIP3   OH232670   1.343   3.646   1.673  0.3577  0.3499  0.4030
 3752TIP3    H132671   1.382   3.731   1.657  1.7231 -0.3873 -0.3159
 3752TIP3    H232672   1.399   3.606   1.740 -1.1750  0.5892  1.9186
 3753TIP3   OH232673   3.722   5.758  10.789 -0.5597 -0.1499 -0.0531
 3753TIP3    H132674   3.772   5.690  10.744 -3.9573 -2.4144 -0.8005
 3753TIP3    H232675   3.727   5.733  10.882  1.9936  1.4214  0.3389
 3754TIP3   OH232676   1.177   6.479   4.365 -0.5797  0.0792  0.1446
 3754TIP3    H132677   1.223   6.522   4.293 -0.9168  0.1590 -0.0253
 3754TIP3    H232678   1.155   6.549   4.425  0.9120 -0.1543  1.0200
 3755TIP3   OH232679   0.389   3.773   5.382  0.3321  0.1804 -0.6670
 3755TIP3    H132680   0.394   3.769   5.478  0.0335 -0.6448 -0.6738
 3755TIP3    H232681   0.440   3.850   5.359  1.0724 -0.0556  0.1102
 3756TIP3   OH232682   1.950   4.601  17.248  0.3253  0.4579  0.0592
 3756TIP3    H132683   2.043   4.600  17.228  0.2251  1.0167 -0.4477
 3756TIP3    H232684   1.907   4.588  17.164 -0.0524 -2.7515  0.6065
 3757TIP3   OH232685   3.250   5.502   1.211 -0.5458  0.5562  0.3838
 3757TIP3    H132686   3.288   5.502   1.299  0.5315  2.8820 -0.0072
 3757TIP3    H232687   3.325   5.491   1.153 -1.3687 -2.2005 -0.3038
 3758TIP3   OH232688   4.188   5.110  16.088 -0.1001 -0.1002 -0.5233
 3758TIP3    H132689   4.114   5.144  16.037 -0.0943  1.3306  0.3655
 3758TIP3    H232690   4.186   5.160  16.169  2.3045  0.5329 -0.7884
 3759TIP3   OH232691   3.118   1.312   0.659 -0.1108 -0.1805  0.3470
 3759TIP3    H132692   3.170   1.243   0.698  1.9920  0.6327 -0.8294
 3759TIP3    H232693   3.086   1.364   0.733  1.3934 -0.2998  1.1216
 3760TIP3   OH232694   1.690   4.911   3.925  0.0276 -0.1731  0.2122
 3760TIP3    H132695   1.612   4.922   3.979  0.1081  0.2163  0.2538
 3760TIP3    H232696   1.692   4.818   3.905  0.8634 -0.6286  2.1928
 3761TIP3   OH232697   3.528   6.563  15.725 -0.2707 -0.2670 -0.2448
 3761TIP3    H132698   3.536   6.606  15.810 -0.2802 -2.4167  0.9066
 3761TIP3    H232699   3.444   6.592  15.691  0.4117  1.8372 -0.2979
 3762TIP3   OH232700   4.643   1.356  14.449 -0.2289  0.2096  0.1087
 3762TIP3    H132701   4.574   1.389  14.391  1.2419  0.5259 -1.5419
 3762TIP3    H232702   4.644   1.418  14.522 -0.8248  0.9337 -0.4822
 3763TIP3   OH232703   4.632   5.250  11.253 -0.0239  0.8068  0.2090
 3763TIP3    H132704   4.640   5.296  11.337 -0.4446  1.0393  0.1218
 3763TIP3    H232705   4.565   5.184  11.268  0.7575  0.0365  0.4116
 3764TIP3   OH232706   0.058   3.782  13.270 -0.0985 -0.3236 -0.1719
 3764TIP3    H132707   0.063   3.864  13.320  1.9041 -1.9109  2.5006
 3764TIP3    H232708  -0.008   3.730  13.316 -0.1182 -0.8504 -0.7841
 3765TIP3   OH232709   4.160   3.081  16.699  0.8432 -0.0387 -0.2003
 3765TIP3    H132710   4.150   3.156  16.757  0.5926  0.6725 -1.1429
 3765TIP3    H232711   4.163   3.005  16.758 -3.4354  0.2048  0.6541
 3766TIP3   OH232712   6.532   1.514  15.700  0.2830 -0.5430  0.2077
 3766TIP3    H132713   6.527   1.487  15.608 -1.9388 -0.0250  0.1290
 3766TIP3    H232714   6.572   1.439  15.745  0.1419 -1.3539 -0.9700
 3767TIP3   OH232715   5.656   2.962   1.039  0.6749  0.0799 -0.5773
 3767TIP3    H132716   5.616   2.924   0.961  0.1048 -0.6438  0.0574
 3767TIP3    H232717   5.630   2.904   1.110  1.8499  0.2716  0.0387
 3768TIP3   OH232718   6.388   2.084  13.988 -0.0471 -0.1737  0.0125
 3768TIP3    H132719   6.399   2.139  13.911  1.6342 -0.0189  0.3134
 3768TIP3    H232720   6.477   2.071  14.021 -0.5388 -1.8456  0.8150
 3769TIP3   OH232721   5.858   3.836   1.720  0.0932 -0.2636 -0.7436
 3769TIP3    H132722   5.819   3.873   1.640  0.3910  0.3360 -0.6233
 3769TIP3    H232723   5.901   3.911   1.762 -2.6757  0.1861  1.6208
 3770TIP3   OH232724   0.345   5.656  13.266  0.1761 -0.2429  0.3439
 3770TIP3    H132725   0.310   5.567  13.262 -1.7926  0.3204  2.8290
 3770TIP3    H232726   0.439   5.644  13.283  0.4081 -1.7688 -1.5205
 3771TIP3   OH232727   3.214   0.258  15.805  0.0958 -0.1785  0.0103
 3771TIP3    H132728   3.126   0.292  15.820  0.0661 -0.3102  0.1449
 3771TIP3    H232729   3.246   0.305  15.729 -0.5591 -0.9852 -0.7950
 3772TIP3   OH232730   5.702   0.444  15.755 -0.4750  0.4776 -0.0117
 3772TIP3    H132731   5.771   0.396  15.800 -0.8811 -1.3236 -1.1718
 3772TIP3    H232732   5.622   0.421  15.803 -0.7963 -0.8110 -1.1002
 3773TIP3   OH232733   1.735   5.387  11.434  0.4792 -0.3883  0.0989
 3773TIP3    H132734   1.647   5.412  11.462  2.0288  3.4447  2.4520
 3773TIP3    H232735   1.759   5.453  11.368  2.0170 -0.4616  0.5266
 3774TIP3   OH232736   2.590   6.464   5.543  0.0778  0.2659 -0.4128
 3774TIP3    H132737   2.527   6.519   5.495  0.8788  2.1913  0.6013
 3774TIP3    H232738   2.637   6.417   5.475 -3.6903 -2.8956 -1.1976
 3775TIP3   OH232739   0.983   5.566  15.474  0.0506 -0.2269  0.1929
 3775TIP3    H132740   1.001   5.532  15.386  0.5840 -0.2790  0.3194
 3775TIP3    H232741   0.995   5.660  15.466  1.2290 -0.3348  0.4660
 3776TIP3   OH232742   6.375   0.114   5.661  0.7846  0.1299 -0.1936
 3776TIP3    H132743   6.360   0.208   5.669  1.5303  0.1196  2.7546
 3776TIP3    H232744   6.458   0.106   5.615  0.6247  0.9112 -0.6248
 3777TIP3   OH232745   1.297   5.505   4.857  0.1305 -0.4358 -0.3486
 3777TIP3    H132746   1.262   5.551   4.933  1.1772 -0.5483  0.2123
 3777TIP3    H232747   1.307   5.414   4.887 -1.4961 -0.9829 -1.3060
 3778TIP3   OH232748   3.213   1.424  11.848 -0.3401 -0.0879 -0.2914
 3778TIP3    H132749   3.302   1.414  11.814  0.9459  2.3270  1.9499
 3778TIP3    H232750   3.172   1.487  11.789  0.6199  1.2692  0.4240
 3779TIP3   OH232751   6.380   2.384   3.843  0.1789 -0.7298  0.0093
 3779TIP3    H132752   6.364   2.340   3.927  0.0442  0.9428  0.8916
 3779TIP3    H232753   6.421   2.467   3.866 -0.8560  0.2576 -1.5153
 3780TIP3   OH232754   4.215   5.156   1.650  0.4232 -0.0213 -0.2235
 3780TIP3    H132755   4.149   5.225   1.642 -0.8690 -1.1517  0.2639
 3780TIP3    H232756   4.201   5.101   1.572  0.9380 -0.1489 -0.2285
 3781TIP3   OH232757   4.450   0.920  11.733 -0.3580 -0.1536 -0.1244
 3781TIP3    H132758   4.453   0.921  11.829  0.6004 -0.0150 -0.1382
 3781TIP3    H232759   4.533   0.879  11.708 -1.1341 -1.3126 -0.8836
 3782TIP3   OH232760   3.838   4.866  16.661  0.6077  0.2828 -0.0593
 3782TIP3    H132761   3.883   4.914  16.730  2.0810 -1.1923  0.0799
 3782TIP3    H232762   3.896   4.792  16.641 -1.5614 -1.5072 -0.1727
 3783TIP3   OH232763   6.311   3.412   5.925 -0.4282 -0.7137  0.0164
 3783TIP3    H132764   6.271   3.484   5.974 -0.9284  0.5174 -2.0832
 3783TIP3    H232765   6.386   3.386   5.979 -1.5128 -0.1154  1.8978
 3784TIP3   OH232766   6.586   2.139  12.469 -0.1264 -0.1792 -0.0478
 3784TIP3    H132767   6.576   2.044  12.470 -0.9193 -0.1070 -0.3223
 3784TIP3    H232768   6.677   2.154  12.496 -0.3489 -0.9600  1.1715
 3785TIP3   OH232769   6.213   2.215   4.037  0.0165 -0.0233 -0.2789
 3785TIP3    H132770   6.304   2.197   4.058  0.4046 -0.9385 -2.5092
 3785TIP3    H232771   6.166   2.137   4.066  0.0375  0.1716  0.2813
 3786TIP3   OH232772   1.765   1.533  10.955  0.0684 -0.6907 -0.2995
 3786TIP3    H132773   1.808   1.471  10.896  0.6573  0.0616 -0.6711
 3786TIP3    H232774   1.674   1.502  10.958 -0.0505 -0.5929 -1.8297
 3787TIP3   OH232775   4.642   1.689  17.046  0.3348  0.1229 -0.8862
 3787TIP3    H132776   4.553   1.675  17.015  0.1137 -0.4754 -0.0045
 3787TIP3    H232777   4.658   1.782  17.030 -0.7418  0.4225 -0.3093
 3788TIP3   OH232778   2.341   0.524  14.394  0.6511 -0.2591  0.1787
 3788TIP3    H132779   2.331   0.447  14.449  0.1457 -0.4443 -0.1684
 3788TIP3    H232780   2.434   0.547  14.401  0.9038 -1.1826 -0.1023
 3789TIP3   OH232781   4.278   6.686  16.795 -0.3855  0.1815  0.3766
 3789TIP3    H132782   4.235   6.625  16.736  1.3448 -1.0992  0.3610
 3789TIP3    H232783   4.271   6.771  16.752 -0.9039 -0.3881 -0.6919
 3790TIP3   OH232784   0.858   2.404  11.304 -0.5666 -0.2467 -0.0176
 3790TIP3    H132785   0.911   2.398  11.384  3.0954  2.3042 -1.9983
 3790TIP3    H232786   0.798   2.477  11.320 -1.3476 -1.0817  1.0562
 3791TIP3   OH232787   4.967   6.070  15.411 -0.1667 -0.5084  0.3489
 3791TIP3    H132788   5.024   6.077  15.488 -1.8412 -0.5010  1.6541
 3791TIP3    H232789   4.959   5.975  15.397  0.0963 -0.5126  0.2381
 3792TIP3   OH232790   4.806   4.118   5.272 -0.0542 -0.8096  0.0736
 3792TIP3    H132791   4.731   4.153   5.320  0.3065  0.6939 -0.3998
 3792TIP3    H232792   4.842   4.193   5.225  2.9765 -1.0101  1.8350
 3793TIP3   OH232793   1.142   5.578   5.806 -0.2206  0.2003 -0.0105
 3793TIP3    H132794   1.182   5.601   5.890 -0.3537  0.9592 -0.1466
 3793TIP3    H232795   1.217   5.561   5.749 -0.0372  1.9533 -0.3592
 3794TIP3   OH232796   5.319   4.794  11.527  0.1655  0.2030 -0.0064
 3794TIP3    H132797   5.237   4.780  11.574  0.3161  1.3531  0.6400
 3794TIP3    H232798   5.327   4.889  11.520  0.3069  0.0929 -2.1223
 3795TIP3   OH232799   2.204   3.048  13.930 -0.0519  0.6829 -0.1354
 3795TIP3    H132800   2.284   3.002  13.905  0.2985  0.1290  1.8897
 3795TIP3    H232801   2.149   2.981  13.970 -1.0475  1.3144 -0.3982
 3796TIP3   OH232802   3.430   3.937  15.153 -0.0440  0.5504  0.0428
 3796TIP3    H132803   3.354   3.995  15.148  0.5743  1.2872 -1.0779
 3796TIP3    H232804   3.448   3.912  15.062  1.0338  0.3568  0.2941
 3797TIP3   OH232805   0.187   6.234  16.531  0.4187 -0.1102 -0.0992
 3797TIP3    H132806   0.173   6.284  16.451  0.5664  0.4851  0.2394
 3797TIP3    H232807   0.122   6.269  16.593  1.3057  0.5127  0.5120
 3798TIP3   OH232808   2.644   3.013   0.703 -0.9307 -0.2285  0.3788
 3798TIP3    H132809   2.734   3.036   0.678 -0.9799 -0.0901  0.3283
 3798TIP3    H232810   2.597   3.096   0.700 -0.7370 -0.0464  1.8294
 3799TIP3   OH232811   3.578   0.655  15.117 -0.4230  0.0466 -0.1183
 3799TIP3    H132812   3.542   0.670  15.204 -0.2331  2.0015 -0.3306
 3799TIP3    H232813   3.654   0.599  15.132  0.0503  0.9727  1.0938
 3800TIP3   OH232814   0.476   5.460  12.820  0.6005 -0.3093  0.2022
 3800TIP3    H132815   0.519   5.503  12.746  0.3217 -0.6504 -0.1588
 3800TIP3    H232816   0.530   5.483  12.895 -0.0783  1.5398  0.1962
 3801TIP3   OH232817   5.234   2.985   5.661 -0.3007 -0.3103 -0.5199
 3801TIP3    H132818   5.153   2.966   5.709  0.5934  0.2504  1.3124
 3801TIP3    H232819   5.216   3.068   5.617 -0.5619  0.0877  0.3091
 3802TIP3   OH232820   5.226   5.101  12.756 -0.0001  0.2169 -0.2341
 3802TIP3    H132821   5.146   5.080  12.708  1.1144 -0.1812 -2.0055
 3802TIP3    H232822   5.247   5.022  12.805  0.5683 -0.5437 -1.6538
 3803TIP3   OH232823   1.599   3.736   2.644  0.2982  0.2886  0.0036
 3803TIP3    H132824   1.612   3.824   2.608  2.0134 -0.1581 -0.5146
 3803TIP3    H232825   1.626   3.677   2.574 -2.2274 -0.7382 -0.2178
 3804TIP3   OH232826   1.906   2.827   4.216 -0.2756  0.1540  0.0099
 3804TIP3    H132827   1.961   2.871   4.281  0.1937  0.8279 -0.8260
 3804TIP3    H232828   1.961   2.757   4.181 -0.5347 -0.2216  0.3485
 3805TIP3   OH232829   3.685   3.975  12.905  0.6340 -0.5251 -0.0065
 3805TIP3    H132830   3.714   3.938  12.989 -1.6452  0.0679  1.1187
 3805TIP3    H232831   3.638   3.904  12.862  0.1876 -0.2937  0.0902
 3806TIP3   OH232832   3.774   2.369  14.702 -0.7283 -0.5139  0.0797
 3806TIP3    H132833   3.690   2.326  14.717 -0.8502 -0.4854 -0.5050
 3806TIP3    H232834   3.776   2.386  14.608 -1.0659  1.5756  0.4132
 3807TIP3   OH232835   4.379   4.555  11.792 -0.1807 -0.1209 -0.0948
 3807TIP3    H132836   4.442   4.618  11.824 -0.6535 -0.7873  2.3160
 3807TIP3    H232837   4.429   4.473  11.782 -0.4518 -0.4264  0.9641
 3808TIP3   OH232838   5.442   3.942   1.747 -0.0172 -0.0555  0.1550
 3808TIP3    H132839   5.459   3.960   1.655 -0.9511  1.4179  0.2459
 3808TIP3    H232840   5.520   3.974   1.793  0.4929 -0.8895 -0.1271
 3809TIP3   OH232841   3.208   4.287   2.885 -0.0056  0.0203  0.1202
 3809TIP3    H132842   3.225   4.228   2.811 -0.9293  1.0610 -0.9579
 3809TIP3    H232843   3.181   4.230   2.956  0.0404 -0.9307 -0.6123
 3810TIP3   OH232844   3.500   2.705   5.749 -0.4919  0.3415  0.1950
 3810TIP3    H132845   3.477   2.788   5.790 -0.3295 -0.1106  1.2449
 3810TIP3    H232846   3.454   2.705   5.666 -0.7613  1.3353  0.3399
 3811TIP3   OH232847   4.385   0.432   0.002 -0.0975  0.1046  0.2787
 3811TIP3    H132848   4.299   0.391   0.013  0.3974 -1.2055 -0.5082
 3811TIP3    H232849   4.430   0.377  -0.062  1.5598  0.4034  1.1228
 3812TIP3   OH232850   0.822   2.319  12.586  0.5909  0.5216 -0.4374
 3812TIP3    H132851   0.763   2.364  12.526 -1.4047 -2.3390 -0.8604
 3812TIP3    H232852   0.909   2.349  12.562 -0.4294  2.2152 -2.2784
 3813TIP3   OH232853   4.574   0.524  15.814 -0.4093 -0.2212 -0.2490
 3813TIP3    H132854   4.649   0.470  15.790 -0.1197  0.8912 -1.9760
 3813TIP3    H232855   4.612   0.603  15.853 -0.6899  0.1483 -0.7067
 3814TIP3   OH232856   0.946   5.611  14.161  0.9402  0.5204 -0.4112
 3814TIP3    H132857   0.996   5.548  14.213  0.7104 -0.3989 -1.2665
 3814TIP3    H232858   1.004   5.633  14.088 -0.1883 -1.3300 -1.9758
 3815TIP3   OH232859   2.954   4.099   5.785  0.2528  0.2889  0.0315
 3815TIP3    H132860   3.033   4.059   5.747  0.3092 -0.7092  1.1142
 3815TIP3    H232861   2.983   4.128   5.872 -0.4657  0.2700  0.2803
 3816TIP3   OH232862   5.321   6.418  15.629 -0.0303 -0.2854  0.3679
 3816TIP3    H132863   5.330   6.513  15.623 -0.0605 -0.3048  0.0211
 3816TIP3    H232864   5.238   6.405  15.675 -0.6997 -0.1514 -0.7743
 3817TIP3   OH232865   3.311   3.076   2.086  0.0918 -0.6908  0.7393
 3817TIP3    H132866   3.245   3.077   2.016 -1.8254 -1.0996  2.4691
 3817TIP3    H232867   3.394   3.078   2.039 -1.1028  0.3056 -1.5388
 3818TIP3   OH232868   1.418   5.608   5.398 -0.0216  0.1500 -0.2668
 3818TIP3    H132869   1.504   5.565   5.399 -0.1191 -0.0475  0.0143
 3818TIP3    H232870   1.401   5.625   5.306  0.0303 -0.3981 -0.3848
 3819TIP3   OH232871   4.331   2.623  13.256 -0.0983  0.2277  0.7628
 3819TIP3    H132872   4.421   2.653  13.261  0.2769 -0.7512 -0.0443
 3819TIP3    H232873   4.287   2.689  13.202  0.1222  0.7132  1.1687
 3820TIP3   OH232874   1.469   1.965  12.935  0.4274 -0.2230  0.3323
 3820TIP3    H132875   1.552   1.923  12.955 -0.2393 -2.3903 -1.1332
 3820TIP3    H232876   1.403   1.907  12.973 -0.5341 -0.6918 -1.9012
 3821TIP3   OH232877   5.039   6.478   5.344  0.2012 -0.4871 -0.3988
 3821TIP3    H132878   5.086   6.496   5.426 -0.4466  0.6324 -0.2386
 3821TIP3    H232879   5.005   6.564   5.318 -1.8764 -1.2630 -0.4155
 3822TIP3   OH232880   2.444   2.261  14.423  0.0560  0.1436  0.1683
 3822TIP3    H132881   2.507   2.323  14.459 -0.3835  0.4383  0.4482
 3822TIP3    H232882   2.495   2.203  14.368  0.2952  1.5021 -1.0989
 3823TIP3   OH232883   3.206   1.538  12.243  0.0266  0.4212 -0.0708
 3823TIP3    H132884   3.272   1.546  12.174  0.6203 -0.6458  0.3550
 3823TIP3    H232885   3.174   1.449  12.235 -1.1795  0.8421 -0.0877
 3824TIP3   OH232886   2.594   6.569  15.691  0.0719  0.3174  0.1884
 3824TIP3    H132887   2.578   6.602  15.779  0.2689 -1.8455  1.1008
 3824TIP3    H232888   2.687   6.546  15.690 -0.0465 -0.1611 -0.3906
 3825TIP3   OH232889   0.811   1.149  16.114  0.2476 -0.3023 -0.0476
 3825TIP3    H132890   0.859   1.067  16.120 -1.3689 -1.1731  2.5145
 3825TIP3    H232891   0.729   1.126  16.070  1.3982  0.8897 -3.1126
 3826TIP3   OH232892   5.423   3.335  16.989 -0.1564  0.1862  0.6440
 3826TIP3    H132893   5.446   3.242  16.985 -0.2697  0.2130 -1.2816
 3826TIP3    H232894   5.408   3.361  16.898  0.9863  2.3978  1.0193
 3827TIP3   OH232895   5.656   5.911   0.092  0.3778  0.5321 -0.8903
 3827TIP3    H132896   5.696   5.995   0.115  1.7038 -0.4079  0.4408
 3827TIP3    H232897   5.563   5.929   0.086  0.5639  1.9611  0.1191
 3828TIP3   OH232898   2.716   1.039  13.867 -0.6942 -0.4555 -0.2729
 3828TIP3    H132899   2.687   1.027  13.958 -0.6354  1.4485  0.0279
 3828TIP3    H232900   2.636   1.032  13.815 -0.6586 -2.0893 -0.1726
 3829TIP3   OH232901   5.149   4.682  14.012 -0.2542  0.1923 -0.2402
 3829TIP3    H132902   5.151   4.595  14.052 -1.4728  0.8052  1.2730
 3829TIP3    H232903   5.056   4.696  13.990  0.0667  0.7556 -1.3142
 3830TIP3   OH232904   0.357   1.671  16.194  0.2524 -0.6680 -0.1286
 3830TIP3    H132905   0.395   1.758  16.202  1.6761 -1.3256  0.7487
 3830TIP3    H232906   0.343   1.659  16.100  0.1243  0.4690 -0.2585
 3831TIP3   OH232907   6.724   2.155   3.546  1.0161 -0.0851  0.1873
 3831TIP3    H132908   6.689   2.160   3.635 -0.3941 -0.4059 -0.3180
 3831TIP3    H232909   6.646   2.152   3.490  1.8703 -0.6222 -1.0169
 3832TIP3   OH232910   1.859   4.285   0.033 -0.3770 -1.1363 -0.5614
 3832TIP3    H132911   1.917   4.360   0.025 -0.3625 -1.2388 -1.5070
 3832TIP3    H232912   1.916   4.214   0.063  0.4137 -1.6878 -3.1134
 3833TIP3   OH232913   5.757   1.372   3.277 -0.0217 -0.2711  0.2185
 3833TIP3    H132914   5.740   1.365   3.183  1.9469  0.2514 -0.2168
 3833TIP3    H232915   5.775   1.465   3.291 -1.6382 -0.0963  1.3946
 3834TIP3   OH232916   1.426   0.866   4.266  0.0101  0.1171  0.2310
 3834TIP3    H132917   1.335   0.844   4.287  0.0950  0.9325  1.5008
 3834TIP3    H232918   1.423   0.958   4.241 -0.0589 -0.6976 -3.3552
 3835TIP3   OH232919   3.587   4.941  16.276 -0.1545 -0.1543  0.4855
 3835TIP3    H132920   3.606   5.014  16.335 -3.1333 -0.0939  1.5558
 3835TIP3    H232921   3.615   4.864  16.324 -1.2053  0.0028  1.3882
 3836TIP3   OH232922   0.940   3.691   0.924  0.5013  0.0224  0.2985
 3836TIP3    H132923   0.957   3.685   0.830 -0.5848  1.8257 -0.0818
 3836TIP3    H232924   1.015   3.740   0.959 -0.7140  2.4946 -0.3074
 3837TIP3   OH232925   1.307   4.667  10.882  0.4932  0.0435  0.0312
 3837TIP3    H132926   1.254   4.591  10.859  0.9455 -0.8825  1.7904
 3837TIP3    H232927   1.368   4.678  10.809 -0.6351 -0.2690 -0.9730
 3838TIP3   OH232928   1.771   6.333   0.874  0.0804 -0.2147  0.5923
 3838TIP3    H132929   1.699   6.367   0.927 -0.4718 -0.1498 -0.1761
 3838TIP3    H232930   1.801   6.256   0.922  0.8272  0.8821  1.9397
 3839TIP3   OH232931   5.049   2.675  11.067 -0.5996  0.0315  0.2769
 3839TIP3    H132932   4.974   2.730  11.044 -1.0989 -0.3661  0.9450
 3839TIP3    H232933   5.078   2.639  10.983  1.2139  3.1092 -0.5932
 3840TIP3   OH232934   0.722   3.202   0.333  0.1335 -0.6304 -0.1602
 3840TIP3    H132935   0.666   3.218   0.257  0.6524 -1.4696 -0.7510
 3840TIP3    H232936   0.737   3.107   0.331  1.3051 -0.4630  0.1613
 3841TIP3   OH232937   2.028   3.860  11.317 -0.0643 -0.5334 -0.3924
 3841TIP3    H132938   1.935   3.854  11.295 -0.1724 -1.0307  0.1835
 3841TIP3    H232939   2.036   3.941  11.367 -0.2709 -0.7241 -0.0472
 3842TIP3   OH232940   5.408   2.294  15.706  0.0414  0.7177 -0.2192
 3842TIP3    H132941   5.458   2.332  15.634  2.4833  0.7061  1.3515
 3842TIP3    H232942   5.408   2.200  15.688  0.3060  0.7534 -0.4203
 3843TIP3   OH232943   5.537   5.229  13.393 -0.1463 -0.2393 -0.5523
 3843TIP3    H132944   5.483   5.308  13.385 -1.0105 -0.5117  1.6688
 3843TIP3    H232945   5.474   5.157  13.397  0.2028 -0.5140  2.7840
 3844TIP3   OH232946   3.178   6.114   5.803 -0.4241  0.0291 -0.0516
 3844TIP3    H132947   3.130   6.176   5.749  1.5520  1.8723  0.1853
 3844TIP3    H232948   3.214   6.167   5.874  0.9349 -1.4883  0.4445
 3845TIP3   OH232949   2.745   0.799  14.795 -0.7781 -0.2866  0.1132
 3845TIP3    H132950   2.677   0.733  14.785 -0.2063 -0.7761 -0.5814
 3845TIP3    H232951   2.826   0.749  14.808 -0.6306  0.2820  1.7158
 3846TIP3   OH232952   3.209   3.678  14.957 -0.5259 -0.0365 -0.2621
 3846TIP3    H132953   3.260   3.749  14.997 -0.5254 -0.5986  0.7519
 3846TIP3    H232954   3.192   3.709  14.867 -0.1438  1.0415  0.0202
 3847TIP3   OH232955   6.278   0.461   4.596 -0.1324 -0.3758  0.0001
 3847TIP3    H132956   6.334   0.471   4.519 -0.9396  1.8357 -0.3953
 3847TIP3    H232957   6.324   0.400   4.653  1.8929  0.1637 -0.9845
 3848TIP3   OH232958   3.743   5.235  16.210  0.2429 -0.2850 -0.2453
 3848TIP3    H132959   3.764   5.148  16.245  0.4945 -0.8361 -1.7220
 3848TIP3    H232960   3.771   5.232  16.119  0.3778  1.4004 -0.2965
 3849TIP3   OH232961   5.716   3.741  14.365 -0.2539  0.6653  0.1068
 3849TIP3    H132962   5.670   3.816  14.327 -3.0863 -1.5490 -1.1015
 3849TIP3    H232963   5.735   3.683  14.292  0.7537 -0.4253  1.1693
 3850TIP3   OH232964   5.354   4.653  17.109 -0.7346 -0.3396  0.1323
 3850TIP3    H132965   5.428   4.600  17.138  0.2084 -1.0513 -3.1945
 3850TIP3    H232966   5.277   4.603  17.138  0.0546 -0.5294  2.0307
 3851TIP3   OH232967   4.213   2.064  11.605  0.7122  0.2260  0.1616
 3851TIP3    H132968   4.263   2.138  11.570 -0.0217  0.5873 -0.1450
 3851TIP3    H232969   4.168   2.028  11.529 -1.5748  1.5388  0.8096
 3852TIP3   OH232970   3.902   6.215   3.623  0.7066  0.1577 -0.1210
 3852TIP3    H132971   3.879   6.123   3.638 -0.3486  0.5783  0.9057
 3852TIP3    H232972   3.998   6.214   3.619  0.6726 -1.2348 -1.8930
 3853TIP3   OH232973   1.841   4.085   4.980 -0.3579 -0.3019  0.3442
 3853TIP3    H132974   1.780   4.029   5.027 -1.0772  0.9182  0.9406
 3853TIP3    H232975   1.819   4.072   4.888 -1.1223 -0.3509  0.5198
 3854TIP3   OH232976   3.414   3.274   1.297  0.4481 -0.6660 -0.2677
 3854TIP3    H132977   3.355   3.326   1.352  1.0420  0.6491 -0.8297
 3854TIP3    H232978   3.500   3.284   1.338  0.4574 -1.8559  0.0476
 3855TIP3   OH232979   2.586   2.409   1.164 -0.0961  0.6896 -1.0200
 3855TIP3    H132980   2.594   2.504   1.172  0.8293  0.6627 -1.4213
 3855TIP3    H232981   2.600   2.376   1.253  1.2882  0.8561 -1.1426
 3856TIP3   OH232982   5.978   1.192  11.990 -0.0592  0.2176 -1.0025
 3856TIP3    H132983   6.056   1.139  11.975 -0.1073 -0.0765 -0.2711
 3856TIP3    H232984   5.916   1.164  11.922  0.6931  0.9316 -2.0037
 3857TIP3   OH232985   5.154   1.732   3.840 -0.3912  0.0488 -0.2978
 3857TIP3    H132986   5.147   1.687   3.756  0.7814  0.5270 -0.6629
 3857TIP3    H232987   5.147   1.825   3.818  0.0355  0.1828  0.1233
 3858TIP3   OH232988   1.434   3.278  14.299  0.2397  0.6881 -0.2579
 3858TIP3    H132989   1.520   3.245  14.271  0.2394  2.2224 -2.3239
 3858TIP3    H232990   1.397   3.316  14.220 -1.8613  1.1390  0.8837
 3859TIP3   OH232991   0.409   5.285  15.586 -0.2757  0.4679 -0.1085
 3859TIP3    H132992   0.422   5.190  15.577  0.1439  0.6396 -1.5639
 3859TIP3    H232993   0.343   5.306  15.520 -1.1989  1.0439  0.9562
 3860TIP3   OH232994   6.287   5.029  12.993  0.5251  0.9407 -0.1616
 3860TIP3    H132995   6.378   5.058  12.987  1.1910 -0.5575  1.6845
 3860TIP3    H232996   6.251   5.045  12.906  2.6298  1.3144 -1.0307
 3861TIP3   OH232997   2.010   4.341   0.919  0.4139  0.1950 -0.1714
 3861TIP3    H132998   2.065   4.359   0.995  0.6413 -0.5646 -0.1515
 3861TIP3    H232999   2.072   4.322   0.849  0.2235  1.5182 -0.7226
 3862TIP3   OH233000   6.652   3.798   2.996 -0.3246 -0.2070 -0.4904
 3862TIP3    H133001   6.713   3.742   3.044 -1.5321 -0.6981  0.5331
 3862TIP3    H233002   6.619   3.860   3.061 -1.4223 -0.3901 -0.8411
 3863TIP3   OH233003   4.494   5.781   6.025 -0.6000 -0.1044 -0.8187
 3863TIP3    H133004   4.501   5.685   6.021 -2.3910 -0.3687  0.9988
 3863TIP3    H233005   4.474   5.806   5.935  0.8338 -1.2948 -1.5351
 3864TIP3   OH233006   4.146   6.613   1.581 -0.1959 -0.2462 -0.1534
 3864TIP3    H133007   4.088   6.689   1.583 -1.5181 -1.2113 -0.3968
 3864TIP3    H233008   4.139   6.575   1.669  0.9634  0.2570  0.1752
 3865TIP3   OH233009   4.780   2.911   5.161 -0.1690 -0.3335 -0.7681
 3865TIP3    H133010   4.848   2.976   5.147  0.5435 -0.3894  1.8697
 3865TIP3    H233011   4.819   2.828   5.133  0.1142 -0.0961 -1.0848
 3866TIP3   OH233012   0.686   5.924  16.742 -0.2569  0.4905  0.3951
 3866TIP3    H133013   0.665   5.831  16.751 -1.0925  0.4309 -1.6825
 3866TIP3    H233014   0.756   5.939  16.806  0.0366 -1.5967  0.6360
 3867TIP3   OH233015   0.533   5.580  10.654 -0.3587 -0.0981 -0.2993
 3867TIP3    H133016   0.528   5.666  10.695 -1.5243 -0.0053 -0.6036
 3867TIP3    H233017   0.610   5.539  10.694 -0.9492  0.3159  1.3500
 3868TIP3   OH233018   3.593   6.088  15.511  0.9337 -0.1836  0.4940
 3868TIP3    H133019   3.602   6.183  15.502  2.9486 -0.1347  2.0970
 3868TIP3    H233020   3.576   6.056  15.422 -0.8595  1.7196  0.0803
 3869TIP3   OH233021   5.189   2.849  17.201 -0.1252  0.5362  0.4371
 3869TIP3    H133022   5.202   2.762  17.239 -0.2085  0.4873  0.3528
 3869TIP3    H233023   5.277   2.884  17.192  0.2740 -0.9884 -2.9356
 3870TIP3   OH233024   5.063   4.898  15.497  0.1340  0.0417 -0.1711
 3870TIP3    H133025   4.988   4.845  15.470 -0.2381 -0.5441  1.8363
 3870TIP3    H233026   5.125   4.835  15.534  1.3558  0.5955 -1.2295
 3871TIP3   OH233027   2.306   4.240  13.933  0.4683 -0.0764  0.5584
 3871TIP3    H133028   2.213   4.245  13.913  0.5851 -1.3631 -0.4397
 3871TIP3    H233029   2.314   4.279  14.020 -0.9287  0.4263  0.4852
 3872TIP3   OH233030   0.416   6.073   2.351 -0.4689  0.1271 -0.9632
 3872TIP3    H133031   0.420   6.048   2.259  0.4893  1.7253 -1.3805
 3872TIP3    H233032   0.333   6.121   2.360 -0.3290  0.3946 -1.1033
 3873TIP3   OH233033   0.014   0.482   2.836  0.4909  0.2737  0.5121
 3873TIP3    H133034   0.059   0.556   2.877  1.3290  0.8024 -1.2198
 3873TIP3    H233035   0.071   0.459   2.762 -1.1674 -0.2673 -0.6497
 3874TIP3   OH233036   4.879   0.613   1.995 -0.1091  0.0127 -0.5482
 3874TIP3    H133037   4.852   0.567   1.916  0.3256 -0.5185 -0.3934
 3874TIP3    H233038   4.974   0.614   1.992 -0.1044  0.7703 -0.4682
 3875TIP3   OH233039   1.049   3.276  14.296 -0.3039 -0.5213 -0.2641
 3875TIP3    H133040   1.111   3.342  14.262  2.0244 -0.9664  2.6884
 3875TIP3    H233041   0.965   3.322  14.300  0.8277  1.6772 -0.1046
 3876TIP3   OH233042   5.030   1.610  14.067  0.0032 -0.0377  0.3578
 3876TIP3    H133043   5.064   1.630  13.980  2.5875 -0.2721  1.2046
 3876TIP3    H233044   4.981   1.529  14.056  0.3716 -0.1117 -0.8616
 3877TIP3   OH233045   3.158   4.098  12.903 -0.1753 -0.1493 -0.1502
 3877TIP3    H133046   3.103   4.142  12.839  0.8968  1.5522  0.0432
 3877TIP3    H233047   3.117   4.117  12.988  0.4793  0.7997 -0.0374
 3878TIP3   OH233048   1.880   4.843   0.415 -0.3972 -0.2871  0.0595
 3878TIP3    H133049   1.923   4.783   0.353 -0.8018 -0.6596  0.1313
 3878TIP3    H233050   1.791   4.853   0.380 -1.0794 -1.5958  1.2933
 3879TIP3   OH233051   4.121   5.774  12.538 -0.1887 -0.1666 -0.8854
 3879TIP3    H133052   4.069   5.848  12.507 -0.9290 -0.4131 -0.2771
 3879TIP3    H233053   4.156   5.734  12.458 -0.4407  0.3659 -1.2651
 3880TIP3   OH233054   3.801   4.782  16.983 -0.5543 -0.3978  0.4757
 3880TIP3    H133055   3.730   4.719  16.997 -1.4498  0.0934 -1.6626
 3880TIP3    H233056   3.759   4.859  16.946  0.9087  0.4596  0.5315
 3881TIP3   OH233057   3.019   5.563   3.574  0.2335  0.2657  0.2000
 3881TIP3    H133058   3.011   5.614   3.493 -0.6780  2.2567  1.4806
 3881TIP3    H233059   3.099   5.594   3.615 -1.3372  2.3005  1.9759
 3882TIP3   OH233060   0.562   3.266   3.737  0.8267  0.4436  0.4368
 3882TIP3    H133061   0.589   3.182   3.775  0.6604 -0.2847 -0.9967
 3882TIP3    H233062   0.629   3.285   3.671  0.3787  0.9927  0.1327
 3883TIP3   OH233063   5.399   2.803  15.018 -0.5766 -0.0371 -0.3048
 3883TIP3    H133064   5.427   2.849  15.096 -0.3956 -1.4019  0.4674
 3883TIP3    H233065   5.459   2.832  14.950  1.0688 -0.9049  0.7154
 3884TIP3   OH233066   6.377   1.062  13.044  0.0696  0.3239  0.5490
 3884TIP3    H133067   6.449   1.009  13.010  0.6342  0.3833  1.6079
 3884TIP3    H233068   6.401   1.152  13.020 -0.2907  0.2254 -0.2009
 3885TIP3   OH233069   1.334   4.931   1.716  0.3253 -0.0656 -0.6928
 3885TIP3    H133070   1.371   4.861   1.770  3.5095  2.3164  0.5064
 3885TIP3    H233071   1.404   4.956   1.656 -0.0490  3.0341 -0.0453
 3886TIP3   OH233072   2.593   6.691   0.939  0.3403 -0.2850  0.0523
 3886TIP3    H133073   2.668   6.705   0.996  0.6844 -0.6044 -0.3212
 3886TIP3    H233074   2.518   6.689   0.999  0.1570  3.4774  0.1468
 3887TIP3   OH233075   2.505   5.708   1.934 -0.0161  0.0220 -0.1597
 3887TIP3    H133076   2.573   5.747   1.989 -0.4610 -0.1220  0.5087
 3887TIP3    H233077   2.436   5.684   1.996  0.1321 -1.5931 -0.5808
 3888TIP3   OH233078   4.488   0.288   5.270 -0.0215 -0.1862  0.5256
 3888TIP3    H133079   4.496   0.218   5.205 -2.3847  1.7374 -2.1093
 3888TIP3    H233080   4.563   0.345   5.253 -0.5138  0.1961 -0.4371
 3889TIP3   OH233081   2.677   0.312   6.038  0.0774  0.1776 -0.2187
 3889TIP3    H133082   2.708   0.296   6.127 -0.2650  1.0229  0.0710
 3889TIP3    H233083   2.607   0.248   6.024  0.3699 -0.1896 -0.0131
 3890TIP3   OH233084   4.462   4.231   1.861 -0.3491 -0.0559 -0.1896
 3890TIP3    H133085   4.548   4.190   1.866  0.2048  1.0936 -0.0692
 3890TIP3    H233086   4.475   4.308   1.806 -0.9931  0.8359  0.8512
 3891TIP3   OH233087   5.579   0.143   0.478 -0.2085 -0.6196 -0.0467
 3891TIP3    H133088   5.485   0.151   0.495 -0.5912  1.4072 -2.3856
 3891TIP3    H233089   5.584   0.115   0.386  1.5102 -1.9395  0.4081
 3892TIP3   OH233090   3.108   1.340  15.568  0.2117 -0.2035  0.4404
 3892TIP3    H133091   3.038   1.367  15.628  1.0255 -0.1739  1.4009
 3892TIP3    H233092   3.176   1.407  15.579 -0.1967  0.6094 -1.5865
 3893TIP3   OH233093   5.058   1.618  15.007  0.1274 -0.7283  0.2182
 3893TIP3    H133094   5.108   1.584  14.933  0.0883 -2.5005  0.9570
 3893TIP3    H233095   4.976   1.650  14.968 -0.0365 -1.9310 -0.4748
 3894TIP3   OH233096   5.724   1.272   0.411  0.6697  0.1449 -0.0653
 3894TIP3    H133097   5.783   1.346   0.424  3.0120 -1.7031  0.5798
 3894TIP3    H233098   5.710   1.269   0.316  0.6401  1.3078 -0.1111
 3895TIP3   OH233099   4.455   2.516  11.450 -0.1324 -0.4350  0.1465
 3895TIP3    H133100   4.509   2.569  11.509  0.9015  1.8438 -2.6347
 3895TIP3    H233101   4.371   2.560  11.447  0.3751  0.5148 -1.3175
 3896TIP3   OH233102   1.632   2.604  13.706 -0.1720  0.2398 -0.0255
 3896TIP3    H133103   1.547   2.594  13.662 -0.0933 -1.6194  0.1370
 3896TIP3    H233104   1.627   2.544  13.781  1.3644 -0.0910 -0.1625
 3897TIP3   OH233105   3.385   1.730  15.669 -0.2421  0.7718 -0.5681
 3897TIP3    H133106   3.470   1.715  15.712  0.3322  3.2217 -0.7345
 3897TIP3    H233107   3.330   1.768  15.736 -1.2897 -0.8244 -0.4602
 3898TIP3   OH233108   1.898   6.458   4.228 -0.0084 -0.1355  0.1417
 3898TIP3    H133109   1.965   6.404   4.269 -0.3106  0.4628  1.4574
 3898TIP3    H233110   1.823   6.452   4.286 -0.3818  0.8884 -0.2141
 3899TIP3   OH233111   1.005   2.588   3.510 -0.1383  0.0873 -0.6362
 3899TIP3    H133112   1.039   2.639   3.583 -0.4263  0.3072 -0.6541
 3899TIP3    H233113   1.071   2.596   3.441  1.7198 -2.6835  0.6385
 3900TIP3   OH233114   1.111   0.780  14.629 -0.4024  0.4934  0.3911
 3900TIP3    H133115   1.127   0.727  14.707  2.8859 -1.2890 -1.3057
 3900TIP3    H233116   1.105   0.718  14.557 -1.4476  2.1787 -1.0782
 3901TIP3   OH233117   1.457   5.261   3.906  0.0519  0.0008 -0.7150
 3901TIP3    H133118   1.381   5.237   3.959  0.8447  2.4498  1.7906
 3901TIP3    H233119   1.532   5.235   3.959  0.9724 -0.4230 -2.1772
 3902TIP3   OH233120   0.708   2.666  11.297  0.3782  0.4182  0.3468
 3902TIP3    H133121   0.646   2.646  11.227  1.2633 -1.0113 -0.0850
 3902TIP3    H233122   0.771   2.726  11.257  0.0574  0.7732  0.3706
 3903TIP3   OH233123   3.023   1.188   2.534 -0.2615 -0.5098 -0.2391
 3903TIP3    H133124   3.093   1.204   2.598  0.5345  0.8234 -1.3790
 3903TIP3    H233125   3.047   1.242   2.459 -2.6982  0.2829 -0.5434
 3904TIP3   OH233126   2.298   5.246  11.898  0.5434 -0.7918 -0.4036
 3904TIP3    H133127   2.317   5.160  11.862 -0.7111 -1.2464 -0.0099
 3904TIP3    H233128   2.331   5.307  11.832  0.3536 -1.5821 -1.2557
 3905TIP3   OH233129   2.296   0.891  10.554 -0.3969  0.3684 -0.1174
 3905TIP3    H133130   2.208   0.873  10.520  0.3439 -0.7263 -1.5427
 3905TIP3    H233131   2.335   0.951  10.491  0.7720 -1.2099 -0.9812
 3906TIP3   OH233132   1.126   3.056   2.242  0.1922 -0.4418  0.7595
 3906TIP3    H133133   1.209   3.055   2.288  1.7052  1.9982 -1.6810
 3906TIP3    H233134   1.145   3.018   2.156 -0.8137  1.4807 -0.3730
 3907TIP3   OH233135   0.643   5.971  17.177  0.0142 -0.4683  0.1729
 3907TIP3    H133136   0.657   5.913  17.252  1.7214  3.1837  3.0177
 3907TIP3    H233137   0.551   5.957  17.153 -0.1136 -3.0169  1.7340
 3908TIP3   OH233138   3.778   1.040  12.972 -0.8655  0.1977 -0.3566
 3908TIP3    H133139   3.790   0.965  13.031  1.3945 -0.2110 -1.1974
 3908TIP3    H233140   3.835   1.020  12.897 -0.4330  2.6074 -0.7617
 3909TIP3   OH233141   2.675   6.264  14.139 -0.9722  0.2721 -0.3415
 3909TIP3    H133142   2.708   6.320  14.210 -0.3244 -2.2866  1.4947
 3909TIP3    H233143   2.621   6.323  14.086 -0.1596  2.6757  1.3054
 3910TIP3   OH233144   2.691   5.139   2.320 -0.0177  0.1118  0.1667
 3910TIP3    H133145   2.661   5.228   2.338 -0.6134 -0.0385 -0.0555
 3910TIP3    H233146   2.662   5.088   2.395  2.2509  0.4986  1.3829
 3911TIP3   OH233147   4.328   0.562  16.200 -0.8944 -0.2628 -0.1246
 3911TIP3    H133148   4.368   0.545  16.115 -0.4458  3.6277 -0.8853
 3911TIP3    H233149   4.401   0.562  16.261 -0.7706 -0.1604 -0.2709
 3912TIP3   OH233150   3.325   3.981   1.407 -0.0102 -0.8454 -0.2052
 3912TIP3    H133151   3.278   3.931   1.473 -0.5304  1.2497  1.1019
 3912TIP3    H233152   3.271   4.059   1.393  2.8429  1.6056  1.2374
 3913TIP3   OH233153   1.264   0.126   5.698 -0.0253  0.0020 -0.4169
 3913TIP3    H133154   1.285   0.145   5.607  0.6360  0.7535 -0.1191
 3913TIP3    H233155   1.337   0.072   5.729 -0.9599 -1.4767 -0.7247
 3914TIP3   OH233156   6.574   0.027   3.488 -0.4429  0.3135  0.2216
 3914TIP3    H133157   6.610   0.022   3.399 -1.0629  0.9984 -0.0827
 3914TIP3    H233158   6.489  -0.016   3.481 -0.6621  0.7165  0.3883
 3915TIP3   OH233159   1.896   5.638  14.184 -0.1175  0.7901  0.0648
 3915TIP3    H133160   1.831   5.592  14.237  0.5832  0.9685  1.1086
 3915TIP3    H233161   1.886   5.730  14.209  0.0411  0.9060 -0.3021
 3916TIP3   OH233162   5.345   6.469   5.240  0.3334 -0.4094  0.0574
 3916TIP3    H133163   5.403   6.393   5.234  2.3714  1.0235  0.5795
 3916TIP3    H233164   5.334   6.483   5.334 -2.7945 -1.9638  0.0444
 3917TIP3   OH233165   2.281   5.848   5.377 -0.4161  0.6594 -0.4653
 3917TIP3    H133166   2.365   5.852   5.332 -0.5173 -0.0465 -0.7306
 3917TIP3    H233167   2.238   5.771   5.341  0.3256 -1.1704  2.2529
 3918TIP3   OH233168   2.779   2.456   2.859  0.5126 -0.0581 -0.0806
 3918TIP3    H133169   2.706   2.487   2.912 -0.3261  0.2099 -1.3333
 3918TIP3    H233170   2.817   2.535   2.822  0.0483 -0.3221 -1.1642
 3919TIP3   OH233171   1.964   4.360  16.039 -0.5102 -0.6442  0.0188
 3919TIP3    H133172   2.033   4.297  16.018 -1.4559 -1.4774 -0.6473
 3919TIP3    H233173   1.934   4.391  15.953  1.9737  3.0803  0.2381
 3920TIP3   OH233174   3.640   4.768  14.020  0.5804 -0.1167 -0.1595
 3920TIP3    H133175   3.703   4.697  14.032 -0.3631 -0.6421  2.0518
 3920TIP3    H233176   3.597   4.748  13.937 -0.0100 -2.4452  0.6402
 3921TIP3   OH233177   0.927   0.403  10.705 -0.5492  0.4977  0.1304
 3921TIP3    H133178   1.010   0.415  10.658 -0.8306  0.6932 -0.3201
 3921TIP3    H233179   0.898   0.315  10.681 -1.9235  1.4638 -2.0615
 3922TIP3   OH233180   6.395   3.387   5.381  0.2770  0.1171 -0.0375
 3922TIP3    H133181   6.460   3.457   5.376 -1.3794  1.7459  0.0264
 3922TIP3    H233182   6.384   3.371   5.475  1.5926 -1.1991 -0.0785
 3923TIP3   OH233183   5.902   5.182  12.622  0.9579  0.3611 -0.2146
 3923TIP3    H133184   5.870   5.111  12.565 -0.5314  0.8463 -0.0203
 3923TIP3    H233185   5.997   5.169  12.624  0.8734 -0.7241 -1.3936
 3924TIP3   OH233186   5.771   1.110   3.363 -0.2549  0.3365 -0.4853
 3924TIP3    H133187   5.727   1.038   3.319 -0.1064  0.2938 -0.5672
 3924TIP3    H233188   5.772   1.181   3.298  1.0413 -0.1244 -1.0043
 3925TIP3   OH233189   5.969   0.860   2.147  0.1368 -0.1864 -0.2230
 3925TIP3    H133190   5.900   0.794   2.146  0.9791 -1.0983 -0.5800
 3925TIP3    H233191   5.947   0.919   2.074  0.2193 -0.9936 -0.9131
 3926TIP3   OH233192   4.121   5.350  14.318 -0.0301 -0.2564 -1.0105
 3926TIP3    H133193   4.139   5.269  14.270 -1.6592 -0.9989 -0.4402
 3926TIP3    H233194   4.129   5.419  14.252  1.2141 -0.8873 -1.5409
 3927TIP3   OH233195   3.444   4.595   4.714 -0.1317  0.0554 -0.8043
 3927TIP3    H133196   3.518   4.642   4.752 -0.3842  0.0022 -0.2272
 3927TIP3    H233197   3.387   4.576   4.789 -1.0482  0.6594 -1.3224
 3928TIP3   OH233198   2.738   1.701   4.035  0.3445  0.0553  0.0274
 3928TIP3    H133199   2.804   1.681   4.101 -0.1687 -1.0597  0.2381
 3928TIP3    H233200   2.772   1.776   3.987  1.9017 -0.6822 -0.0619
 3929TIP3   OH233201   4.542   2.055  13.907 -0.5619 -0.1478  0.2813
 3929TIP3    H133202   4.501   2.021  13.828 -0.5470  1.5077 -0.4902
 3929TIP3    H233203   4.470   2.060  13.971 -1.2236  1.0811 -0.5142
 3930TIP3   OH233204   5.016   4.958   4.581  0.1475  0.0214 -0.0279
 3930TIP3    H133205   4.992   5.018   4.510  0.2466  0.2849  0.1572
 3930TIP3    H233206   5.016   5.013   4.659  1.5999  0.1088 -0.0522
 3931TIP3   OH233207   3.528   6.753  11.336 -0.2773  0.0574  0.4970
 3931TIP3    H133208   3.525   6.722  11.426 -2.2618 -0.2260  0.3967
 3931TIP3    H233209   3.457   6.706  11.292  0.3156  0.5673 -1.0886
 3932TIP3   OH233210   4.186   3.554   5.954  0.3115 -0.1224  0.1275
 3932TIP3    H133211   4.254   3.620   5.971  0.1609  0.0211  0.1738
 3932TIP3    H233212   4.183   3.546   5.859  0.1547  0.1227  0.1103
 3933TIP3   OH233213   1.000   3.935  15.891 -0.2293  0.4043  0.4707
 3933TIP3    H133214   1.041   3.915  15.975  0.5641  0.7691  0.1819
 3933TIP3    H233215   0.977   4.027  15.897 -0.8526  0.2416  0.5665
 3934TIP3   OH233216   6.505   2.553   1.836 -1.1122  0.4027  0.6159
 3934TIP3    H133217   6.433   2.517   1.783 -0.0264 -1.0999  0.0893
 3934TIP3    H233218   6.466   2.628   1.881 -3.0291 -0.4149  0.4242
 3935TIP3   OH233219   0.456   1.942  15.239 -0.0209  0.0566  0.5115
 3935TIP3    H133220   0.410   1.909  15.315  0.0144  1.1387  1.0258
 3935TIP3    H233221   0.500   2.021  15.270  2.2484 -0.9345  0.0669
 3936TIP3   OH233222   1.636   1.915   0.484  0.8367 -0.7270  0.4995
 3936TIP3    H133223   1.637   1.871   0.399  0.7300 -0.8255  0.5497
 3936TIP3    H233224   1.721   1.893   0.523  1.0343 -0.3890  0.2684
 3937TIP3   OH233225   4.341   3.750  13.197  0.1648 -0.3735 -0.6702
 3937TIP3    H133226   4.331   3.750  13.292  2.3978 -1.5445 -0.3695
 3937TIP3    H233227   4.364   3.841  13.176  1.8509 -0.5304  0.2553
 3938TIP3   OH233228   4.011   3.817   3.716  0.5970  0.4983  0.4577
 3938TIP3    H133229   4.069   3.762   3.663 -0.5851  1.2743 -1.7543
 3938TIP3    H233230   3.977   3.757   3.783  0.3612 -1.1687 -1.0796
 3939TIP3   OH233231   0.628   1.137   3.980 -0.0605  0.0560 -0.5756
 3939TIP3    H133232   0.631   1.042   3.970  0.2613 -0.4141  2.7960
 3939TIP3    H233233   0.568   1.166   3.912 -0.6850 -2.6336 -1.3083
 3940TIP3   OH233234   3.667   3.807   5.691  0.4761 -0.3189  0.3690
 3940TIP3    H133235   3.762   3.795   5.688  0.6612  0.4814  2.1455
 3940TIP3    H233236   3.638   3.749   5.761 -0.3938 -0.6831 -0.2703
 3941TIP3   OH233237   6.379   5.665  13.420  0.3378 -0.1290  0.3859
 3941TIP3    H133238   6.295   5.678  13.375  1.4354  2.3201 -1.1905
 3941TIP3    H233239   6.382   5.734  13.486  1.5202  0.4717 -0.2675
 3942TIP3   OH233240   1.633   1.935   4.513 -0.1879  0.0887 -0.0959
 3942TIP3    H133241   1.613   1.865   4.575  1.8579  0.7690  1.4316
 3942TIP3    H233242   1.547   1.971   4.490 -1.0874 -0.6866  1.7850
 3943TIP3   OH233243   5.079   5.133  14.449 -0.1838  0.4947  0.4011
 3943TIP3    H133244   5.102   5.188  14.374  1.0079 -1.5886 -0.8572
 3943TIP3    H233245   4.984   5.126  14.445 -0.0770 -0.4002 -1.5844
 3944TIP3   OH233246   2.537   3.178   1.301 -0.0946  0.8070 -0.2647
 3944TIP3    H133247   2.608   3.228   1.341  1.4203 -0.4867 -1.2272
 3944TIP3    H233248   2.581   3.110   1.250 -2.0436 -0.6209 -0.1539
 3945TIP3   OH233249   6.125   5.570  14.524 -0.0538 -0.0910  0.4089
 3945TIP3    H133250   6.159   5.613  14.446  0.9464 -1.6968 -0.0919
 3945TIP3    H233251   6.155   5.624  14.597 -0.0319  0.8003 -0.2476
 3946TIP3   OH233252   4.153   6.303   0.857 -0.6024  0.1917  0.2749
 3946TIP3    H133253   4.144   6.351   0.939 -0.7204  1.5106 -0.4920
 3946TIP3    H233254   4.243   6.272   0.856 -0.1928  1.3701  0.2628
 3947TIP3   OH233255   1.411   4.626   0.021 -0.0230  0.1798 -0.2535
 3947TIP3    H133256   1.428   4.708   0.068 -2.1083  1.1316 -1.0447
 3947TIP3    H233257   1.470   4.563   0.061  0.1699  1.5716  1.8022
 3948TIP3   OH233258   4.359   2.844  14.896  1.1702  0.0186 -0.6340
 3948TIP3    H133259   4.379   2.791  14.819  0.8445  1.0208 -1.4317
 3948TIP3    H233260   4.267   2.828  14.914  1.1216  0.1453 -0.7592
 3949TIP3   OH233261   5.620   4.124  16.370  0.5378 -0.3418 -0.0861
 3949TIP3    H133262   5.566   4.113  16.292  2.8321  1.7231 -2.1274
 3949TIP3    H233263   5.677   4.046  16.371  0.4245 -0.4314 -0.4141
 3950TIP3   OH233264   5.444   3.796   2.072 -0.3078 -0.2113 -0.3747
 3950TIP3    H133265   5.414   3.745   2.147 -0.9033  0.2644 -0.2823
 3950TIP3    H233266   5.374   3.785   2.007 -0.3768  0.3858 -0.4018
 3951TIP3   OH233267   4.895   6.109   2.541  0.4644 -0.3427  0.2057
 3951TIP3    H133268   4.861   6.100   2.452 -3.2946 -0.3152  1.4700
 3951TIP3    H233269   4.976   6.059   2.541  0.0829 -1.1512 -2.9587
 3952TIP3   OH233270   4.999   5.212  15.756 -0.3378 -0.5381  0.1286
 3952TIP3    H133271   4.934   5.145  15.777 -1.5386  0.7324  0.5112
 3952TIP3    H233272   4.961   5.262  15.684  1.0163 -0.8931 -0.8864
 3953TIP3   OH233273   5.466   3.998  15.319  0.1405  0.6393  0.3351
 3953TIP3    H133274   5.555   4.009  15.285 -0.1180 -0.3850 -0.7208
 3953TIP3    H233275   5.412   3.980  15.242 -1.3435  3.0718  0.7124
 3954TIP3   OH233276   4.238   0.714  17.054  0.4852  0.0441  0.0321
 3954TIP3    H133277   4.157   0.716  17.104 -0.6835  1.7728 -1.7872
 3954TIP3    H233278   4.307   0.702  17.120 -1.1611 -0.8748  1.6724
 3955TIP3   OH233279   5.843   3.992  13.140  0.2765 -0.2800  0.2588
 3955TIP3    H133280   5.771   3.980  13.203 -0.1190 -1.2986 -0.3719
 3955TIP3    H233281   5.804   4.045  13.071 -0.2015 -1.6972 -0.5904
 3956TIP3   OH233282   0.676   1.068  13.007  0.3305  0.4583 -0.1859
 3956TIP3    H133283   0.586   1.037  13.001  1.0533 -1.6251 -1.2574
 3956TIP3    H233284   0.699   1.057  13.100 -0.4697  0.9536  0.0834
 3957TIP3   OH233285   2.543   1.765   3.326 -0.0475 -0.1621  0.1395
 3957TIP3    H133286   2.569   1.698   3.263  0.9425 -0.9013  1.2861
 3957TIP3    H233287   2.609   1.760   3.394 -1.1504  0.5287  1.3038
 3958TIP3   OH233288   2.370   3.562  17.154 -0.5390 -0.4308 -0.5970
 3958TIP3    H133289   2.403   3.488  17.105 -0.0164 -1.0681  0.6610
 3958TIP3    H233290   2.298   3.526  17.206  0.2845 -0.2991  0.6911
 3959TIP3   OH233291   1.947   2.128   5.807  0.2414 -0.0036 -0.5021
 3959TIP3    H133292   1.889   2.152   5.735  0.6983 -0.5720 -1.0729
 3959TIP3    H233293   1.960   2.033   5.797  0.0039 -0.1570  0.5599
 3960TIP3   OH233294   6.493   1.377   2.768  0.0736 -0.5712 -0.1315
 3960TIP3    H133295   6.419   1.396   2.825  0.5874  1.3609 -0.0504
 3960TIP3    H233296   6.544   1.311   2.816 -0.8593 -0.9188  0.4137
 3961TIP3   OH233297   1.135   4.082   5.365 -0.1710  0.1051  0.1892
 3961TIP3    H133298   1.186   4.108   5.442  2.1728  0.6553 -1.4595
 3961TIP3    H233299   1.096   3.998   5.389  0.9208  0.0172  1.7789
 3962TIP3   OH233300   3.302   1.510   1.058  0.1348 -0.1822  0.2323
 3962TIP3    H133301   3.266   1.489   1.144 -2.4524  2.0685 -0.1799
 3962TIP3    H233302   3.321   1.604   1.062  1.7561 -0.3949 -1.0946
 3963TIP3   OH233303   1.681   0.622  11.560  0.4434  0.2612  0.3419
 3963TIP3    H133304   1.645   0.698  11.607  0.4301  2.5618 -3.0051
 3963TIP3    H233305   1.609   0.560  11.556 -0.4083  1.1687  0.9890
 3964TIP3   OH233306   0.957   1.204   3.781 -0.2220 -0.0921  0.2611
 3964TIP3    H133307   0.886   1.187   3.718  0.0739  1.1005 -0.4181
 3964TIP3    H233308   0.939   1.292   3.815  1.5086  0.6875 -0.7326
 3965TIP3   OH233309   3.368   3.683  14.029 -0.0382  0.1176  0.6361
 3965TIP3    H133310   3.307   3.756  14.019 -2.1128 -1.6391 -0.3053
 3965TIP3    H233311   3.379   3.674  14.124 -0.9298  0.7339  0.8130
 3966TIP3   OH233312   2.444   5.401   0.933 -0.6050  0.3239 -0.1780
 3966TIP3    H133313   2.413   5.384   1.022  2.4500 -1.3698  0.7143
 3966TIP3    H233314   2.430   5.495   0.920 -0.9150  0.6639  2.2014
 3967TIP3   OH233315   1.228   3.405  14.012 -0.4300  0.0775  0.4595
 3967TIP3    H133316   1.163   3.476  14.007 -1.2868 -0.5979  1.5937
 3967TIP3    H233317   1.312   3.450  14.011 -0.6030  0.8776 -4.4553
 3968TIP3   OH233318   4.395   1.786  15.860  0.3387 -0.3443 -0.2413
 3968TIP3    H133319   4.468   1.835  15.823 -0.4312  1.6137  0.7088
 3968TIP3    H233320   4.322   1.848  15.860 -0.0880 -0.6817  3.1707
 3969TIP3   OH233321   4.525   6.710  11.346 -0.0271  0.3671  0.2936
 3969TIP3    H133322   4.616   6.701  11.374 -0.6065 -0.3195  2.1170
 3969TIP3    H233323   4.496   6.620  11.330 -0.1808  0.6400 -1.0737
 3970TIP3   OH233324   3.589   1.872  13.414 -0.0869 -0.3299  0.0624
 3970TIP3    H133325   3.554   1.789  13.445  0.9473 -0.6210  0.5071
 3970TIP3    H233326   3.625   1.852  13.328 -1.7875  0.1802 -0.8107
 3971TIP3   OH233327   4.943   3.949   0.785  0.1965 -0.1812 -0.3127
 3971TIP3    H133328   4.953   3.966   0.878  0.6590  0.4354 -0.4624
 3971TIP3    H233329   5.021   3.989   0.745 -0.5217  0.5183 -1.0576
 3972TIP3   OH233330   0.624   5.096   0.712 -0.2842 -0.2590 -0.0899
 3972TIP3    H133331   0.560   5.125   0.778  1.0151 -0.9131  1.5382
 3972TIP3    H233332   0.625   5.166   0.647 -0.4818  1.2085  1.4189
 3973TIP3   OH233333   4.602   0.702  11.778  0.4854 -0.5213 -0.1704
 3973TIP3    H133334   4.667   0.748  11.726  2.4273 -0.2864  2.2780
 3973TIP3    H233335   4.620   0.609  11.763  1.4780 -0.4553  0.5769
 3974TIP3   OH233336   4.136   1.397   0.688  0.7740 -0.3175  0.0184
 3974TIP3    H133337   4.080   1.417   0.763 -3.6125 -1.2550 -2.6627
 3974TIP3    H233338   4.136   1.301   0.683 -1.5474 -0.2863 -2.6820
 3975TIP3   OH233339   1.420   6.572   3.684  0.3084 -0.4182 -0.3580
 3975TIP3    H133340   1.505   6.570   3.727  0.5201  0.6705 -0.6857
 3975TIP3    H233341   1.382   6.656   3.711 -0.8106 -1.0298  0.0564
 3976TIP3   OH233342   5.231   6.734  11.106 -0.3476  0.0493 -0.1169
 3976TIP3    H133343   5.289   6.788  11.053  0.6647  0.8546  1.6910
 3976TIP3    H233344   5.229   6.649  11.062 -0.5086  1.0058 -2.0270
 3977TIP3   OH233345   3.099   2.777   1.843 -0.2399  0.0039 -0.2312
 3977TIP3    H133346   3.111   2.763   1.936 -0.0334  0.7031 -0.1428
 3977TIP3    H233347   3.097   2.872   1.833  3.3045  0.1242 -1.3564
 3978TIP3   OH233348   2.673   5.615   2.539 -0.2942  0.0501 -0.0680
 3978TIP3    H133349   2.610   5.604   2.609 -2.0694  0.0724 -1.5861
 3978TIP3    H233350   2.713   5.701   2.555 -0.6372  0.0350  0.9007
 3979TIP3   OH233351   0.059   3.090   1.713  0.0601  0.2833 -0.1747
 3979TIP3    H133352   0.151   3.072   1.735  0.0859 -0.1693 -0.6340
 3979TIP3    H233353   0.061   3.176   1.672  0.3941 -0.0337 -0.8486
 3980TIP3   OH233354   5.801   6.379   0.872 -0.5361 -0.3655  0.0014
 3980TIP3    H133355   5.876   6.342   0.919 -0.1693  0.7735  0.3350
 3980TIP3    H233356   5.757   6.434   0.937 -0.2495  0.9206 -0.8575
 3981TIP3   OH233357   5.631   6.064  16.544  0.1488  0.4971 -0.2550
 3981TIP3    H133358   5.639   6.000  16.614 -2.8352  0.3966  0.1195
 3981TIP3    H233359   5.655   6.147  16.584 -0.9717  0.3473  0.7884
 3982TIP3   OH233360   3.223   2.548  13.096  0.3800 -0.2023  0.1398
 3982TIP3    H133361   3.162   2.484  13.058  2.0776 -1.7058 -0.2132
 3982TIP3    H233362   3.216   2.535  13.190  0.4485 -0.6783  0.0819
 3983TIP3   OH233363   3.573   1.577   2.944  0.5896 -0.5967 -0.2962
 3983TIP3    H133364   3.584   1.672   2.946 -0.4992 -0.4534 -0.2990
 3983TIP3    H233365   3.558   1.552   3.035  2.2018 -0.9621 -0.1034
 3984TIP3   OH233366   6.715   2.219   4.188 -0.1222 -0.1379  0.1848
 3984TIP3    H133367   6.805   2.250   4.197  0.0124 -0.7410  0.9805
 3984TIP3    H233368   6.692   2.187   4.275 -0.7400 -0.9733 -0.2764
 3985TIP3   OH233369   5.648   1.459  15.735 -0.7933  0.1545 -0.3568
 3985TIP3    H133370   5.618   1.439  15.824  0.5066  0.3019  0.1271
 3985TIP3    H233371   5.624   1.551  15.722  3.6107  1.9184  1.9182
 3986TIP3   OH233372   1.252   0.676  10.486 -0.5495 -0.2130 -0.6215
 3986TIP3    H133373   1.306   0.704  10.560  0.8270 -0.1788 -1.6016
 3986TIP3    H233374   1.167   0.718  10.501 -0.6092 -0.9421  1.3919
 3987TIP3   OH233375   6.394   6.369  11.544  0.0720  0.6865  0.0060
 3987TIP3    H133376   6.486   6.367  11.572  0.2685  1.5504 -0.5429
 3987TIP3    H233377   6.345   6.387  11.624 -0.0992 -3.9929  1.2628
 3988TIP3   OH233378   1.564   5.464   5.678  0.5585 -0.7664 -0.1890
 3988TIP3    H133379   1.599   5.424   5.757  0.7381  1.6267  1.0299
 3988TIP3    H233380   1.629   5.446   5.610  1.9096 -0.2982  0.9412
 3989TIP3   OH233381   2.896   3.249  15.417 -0.4657  0.2262  0.0370
 3989TIP3    H133382   2.826   3.245  15.352 -1.7308 -0.4480  1.3675
 3989TIP3    H233383   2.850   3.242  15.501  1.0834  1.2529  1.0151
 3990TIP3   OH233384   0.069   0.745   2.925  0.4031 -0.5070  0.2236
 3990TIP3    H133385   0.083   0.818   2.865 -0.0061  0.5787  1.3988
 3990TIP3    H233386   0.146   0.745   2.982  0.0024 -0.4413  0.7751
 3991TIP3   OH233387   1.177   6.669  15.354  0.0426  0.6021  0.3725
 3991TIP3    H133388   1.192   6.589  15.304 -0.0690  0.0851  1.1441
 3991TIP3    H233389   1.119   6.721  15.299 -1.7178 -0.8134  0.7769
 3992TIP3   OH233390   2.731   5.602  15.895  0.1363  0.5414 -0.1982
 3992TIP3    H133391   2.640   5.618  15.870 -0.1247 -0.0633  0.3491
 3992TIP3    H233392   2.732   5.615  15.990  0.6514  0.6620 -0.2193
 3993TIP3   OH233393   2.802   2.241  12.086 -0.0012 -0.3689 -0.1908
 3993TIP3    H133394   2.786   2.174  12.153  1.2363  0.8254  1.3845
 3993TIP3    H233395   2.769   2.322  12.125  0.1909  0.2661 -1.2980
 3994TIP3   OH233396   1.171   2.743   1.954 -0.0621  0.1914  0.7722
 3994TIP3    H133397   1.133   2.680   2.015 -0.3111 -0.0683  0.3548
 3994TIP3    H233398   1.218   2.690   1.890 -0.8894  0.3649 -0.0098
 3995TIP3   OH233399   1.030   1.672   0.232 -0.1453 -0.4617  0.1185
 3995TIP3    H133400   1.020   1.614   0.308 -1.4959 -0.6703 -0.1907
 3995TIP3    H233401   1.075   1.749   0.267 -2.2717  0.2066  1.5843
 3996TIP3   OH233402   4.728   0.031   5.201  0.3051  0.1451  0.0296
 3996TIP3    H133403   4.823   0.043   5.195  0.1695  0.8656 -1.0077
 3996TIP3    H233404   4.692   0.092   5.136 -0.7813 -1.4664 -0.9471
 3997TIP3   OH233405   5.486   2.616   4.340  0.0083 -0.0294  0.2995
 3997TIP3    H133406   5.540   2.556   4.289 -1.1963  0.0374 -1.1191
 3997TIP3    H233407   5.513   2.703   4.312  0.1448  0.0420  0.6480
 3998TIP3   OH233408   1.148   0.728  13.546 -0.6084  0.1485 -0.2022
 3998TIP3    H133409   1.075   0.673  13.516 -0.0415 -0.2012 -0.9580
 3998TIP3    H233410   1.135   0.812  13.502 -1.0160  0.3640  0.3174
 3999TIP3   OH233411   1.490   1.480  11.452  0.9070 -0.2080  0.4007
 3999TIP3    H133412   1.572   1.525  11.434  0.1220  1.3239  0.5154
 3999TIP3    H233413   1.484   1.414  11.382  2.4490 -0.7033  0.6903
 4000TIP3   OH233414   1.835   6.746  13.601  0.1471 -0.6230 -0.3962
 4000TIP3    H133415   1.839   6.687  13.526  0.9392 -1.6170  0.3905
 4000TIP3    H233416   1.742   6.746  13.626 -0.2214  0.1812 -1.7082
 4001TIP3   OH233417   6.341   2.553  15.114  0.5743 -0.5886 -0.1710
 4001TIP3    H133418   6.409   2.586  15.173  1.1178 -1.1791 -0.4599
 4001TIP3    H233419   6.388   2.502  15.049  0.0666  0.7562 -1.6391
 4002TIP3   OH233420   0.376   3.825  13.847  0.2317 -0.6336  0.2755
 4002TIP3    H133421   0.329   3.856  13.770 -0.7822  0.7211  1.4005
 4002TIP3    H233422   0.330   3.745  13.873  0.4865 -1.0128 -0.4163
 4003TIP3   OH233423   0.161   2.899   6.058 -0.6164 -0.1063  0.4570
 4003TIP3    H133424   0.186   2.925   6.147  2.5079 -1.5596  0.1236
 4003TIP3    H233425   0.135   2.808   6.067 -0.6198 -0.1572 -0.0711
 4004TIP3   OH233426   5.071   1.224   3.481  0.4713  0.2572 -0.2773
 4004TIP3    H133427   5.111   1.307   3.455 -1.8798  1.7182  0.3711
 4004TIP3    H233428   5.080   1.221   3.576 -1.7181  1.1758  0.0331
 4005TIP3   OH233429   6.335   3.148   0.962  0.7434 -0.1085  0.6138
 4005TIP3    H133430   6.341   3.074   1.023  2.0341 -0.7391 -0.2136
 4005TIP3    H233431   6.264   3.125   0.903 -0.8285  0.7252  2.1158
 4006TIP3   OH233432   1.591   3.491  12.872 -0.1657  0.0533 -0.0312
 4006TIP3    H133433   1.631   3.445  12.798 -2.4799 -1.4551 -0.4473
 4006TIP3    H233434   1.539   3.561  12.830 -2.9190 -1.8890 -0.1200
 4007TIP3   OH233435   5.968   3.436   5.575 -0.7033 -0.2093  0.1543
 4007TIP3    H133436   5.893   3.384   5.546 -0.4543 -1.3520  1.4438
 4007TIP3    H233437   6.005   3.387   5.649  1.4421  0.2175 -0.5582
 4008TIP3   OH233438   1.351   2.543   3.053 -0.2659 -0.1567 -0.7083
 4008TIP3    H133439   1.369   2.622   3.002  0.2211  0.2229  0.0339
 4008TIP3    H233440   1.424   2.538   3.115 -2.4863  1.2936  2.2431
 4009TIP3   OH233441   3.474   3.216  13.346  0.1927  0.1583  0.4520
 4009TIP3    H133442   3.500   3.308  13.357 -3.8741  1.6988 -0.7416
 4009TIP3    H233443   3.440   3.190  13.432 -1.1658  0.8047  0.1444
 4010TIP3   OH233444   0.812   6.621  16.774  0.2407  0.3642 -0.0887
 4010TIP3    H133445   0.844   6.621  16.864 -0.3719 -1.8306  0.1995
 4010TIP3    H233446   0.776   6.533  16.762  0.1581  0.6583 -2.4354
 4011TIP3   OH233447   3.097   3.040  15.435  0.0624 -0.1197  0.3385
 4011TIP3    H133448   3.023   3.100  15.445  0.8021  0.8005  0.4169
 4011TIP3    H233449   3.171   3.096  15.413  0.6608 -1.0664 -0.1480
 4012TIP3   OH233450   4.658   6.047  13.617  0.1225 -0.1357  0.0493
 4012TIP3    H133451   4.640   6.060  13.710 -2.7247 -1.4265 -0.2370
 4012TIP3    H233452   4.646   6.133  13.578  0.9717  0.3357  0.7763
 4013TIP3   OH233453   5.230   1.320   2.268 -0.8008  0.7816  0.1891
 4013TIP3    H133454   5.262   1.260   2.335  0.5831  1.6990  0.3834
 4013TIP3    H233455   5.141   1.290   2.250  0.1019 -1.8948 -0.3696
 4014TIP3   OH233456   5.401   4.741   4.564  0.1721 -0.0581 -0.4910
 4014TIP3    H133457   5.408   4.836   4.553 -1.1022  0.1105  0.0402
 4014TIP3    H233458   5.478   4.707   4.519 -0.5189  1.0961 -2.7003
 4015TIP3   OH233459   6.621   1.259   0.403 -0.4248 -0.5268  0.4633
 4015TIP3    H133460   6.676   1.274   0.327 -0.9040 -0.8018  0.0537
 4015TIP3    H233461   6.538   1.226   0.367 -2.1903  3.0877  0.7584
 4016TIP3   OH233462   2.726   2.215  12.544  0.6097 -0.3707  0.1534
 4016TIP3    H133463   2.731   2.139  12.602 -0.7715 -2.0963 -1.8321
 4016TIP3    H233464   2.669   2.276  12.590  0.3100 -1.2703  1.0347
 4017TIP3   OH233465   0.213   0.721  13.899 -0.0495  0.2051 -0.0218
 4017TIP3    H133466   0.203   0.646  13.958 -1.0975 -1.5978 -2.3223
 4017TIP3    H233467   0.262   0.785  13.950 -0.0513 -1.5943  2.4415
 4018TIP3   OH233468   5.499   0.940   4.913  0.4260 -0.4077 -0.2924
 4018TIP3    H133469   5.469   1.007   4.851 -0.8503 -1.1708 -0.5297
 4018TIP3    H233470   5.447   0.955   4.991  0.7038 -0.6294 -0.0610
 4019TIP3   OH233471   4.901   6.696   3.233 -0.5254  0.3492 -0.2166
 4019TIP3    H133472   4.831   6.761   3.242 -0.0918  0.5601  2.4439
 4019TIP3    H233473   4.924   6.673   3.323  3.7409  1.2630 -0.8899
 4020TIP3   OH233474   4.411   6.771  10.715 -0.4470 -0.1162  0.9010
 4020TIP3    H133475   4.319   6.744  10.721  0.0196 -2.0498  0.2937
 4020TIP3    H233476   4.418   6.848  10.772 -2.9881  1.7249 -1.0507
 4021TIP3   OH233477   6.223   6.564  11.244  0.4523 -0.1767 -0.3446
 4021TIP3    H133478   6.234   6.475  11.276  0.9568 -0.0088 -0.0334
 4021TIP3    H233479   6.144   6.596  11.288  0.0179 -0.6158 -0.8014
 4022TIP3   OH233480   1.868   5.735  13.226  0.2854 -0.4922  0.3048
 4022TIP3    H133481   1.786   5.781  13.246  0.2356 -0.4812  0.0783
 4022TIP3    H233482   1.902   5.710  13.312 -0.5735 -1.5637  0.3583
 4023TIP3   OH233483   0.053   1.579   0.719 -0.0140 -0.1316  0.1922
 4023TIP3    H133484   0.031   1.536   0.636 -0.9402  0.7634 -0.0435
 4023TIP3    H233485  -0.019   1.555   0.778 -1.4303  2.3613 -0.4126
 4024TIP3   OH233486   6.053   2.248  13.872 -0.0747  0.2018 -0.3738
 4024TIP3    H133487   6.129   2.256  13.929 -0.5865  1.1794  0.1998
 4024TIP3    H233488   6.074   2.302  13.796  0.5259 -0.9455 -1.0463
 4025TIP3   OH233489   1.378   2.625   6.635  0.8082 -0.0243  0.1326
 4025TIP3    H133490   1.464   2.586   6.622  1.0711  1.0327 -1.6386
 4025TIP3    H233491   1.333   2.566   6.695  3.0267 -0.1876  1.7333
 4026TIP3   OH233492   0.544   1.816   5.571 -0.3384 -0.1912  0.2611
 4026TIP3    H133493   0.614   1.854   5.624  0.8718 -1.8965 -0.0515
 4026TIP3    H233494   0.484   1.889   5.556  0.9463  1.1279  1.2089
 4027TIP3   OH233495   0.655   1.824   0.068  0.2295 -0.2414  0.3020
 4027TIP3    H133496   0.741   1.861   0.050  0.9194 -1.5857  0.6706
 4027TIP3    H233497   0.622   1.796  -0.017  0.9101 -1.2400  0.3475
 4028TIP3   OH233498   0.990   5.239   0.060  0.1867  0.0636 -0.3606
 4028TIP3    H133499   0.943   5.255   0.142 -1.4418 -1.7146 -0.8609
 4028TIP3    H233500   1.061   5.180   0.086  1.4386  1.7301  0.1815
 4029TIP3   OH233501   5.746   1.255   1.774 -0.3241 -0.5025  0.1661
 4029TIP3    H133502   5.840   1.270   1.786 -0.6739  1.4532  0.7116
 4029TIP3    H233503   5.707   1.279   1.858 -1.3012 -1.6620  0.0717
 4030TIP3   OH233504   2.075   0.534   3.749  0.0679 -0.1736 -0.4646
 4030TIP3    H133505   2.009   0.556   3.683  0.6103 -1.9634 -1.6668
 4030TIP3    H233506   2.159   0.545   3.704  0.6892  2.1101  1.0555
 4031TIP3   OH233507   6.716   0.746   3.412  0.3507 -0.1830  0.0543
 4031TIP3    H133508   6.747   0.801   3.484 -0.2740 -0.5398  0.6086
 4031TIP3    H233509   6.745   0.791   3.333 -0.5049  1.1550  0.4778
 4032TIP3   OH233510   0.080   0.497  14.084 -0.6088  0.0072  0.3849
 4032TIP3    H133511   0.168   0.466  14.105  0.2254  1.4944 -0.7124
 4032TIP3    H233512   0.022   0.433  14.125  0.9171  0.2006  3.0753
 4033TIP3   OH233513   5.522   1.397  11.842  0.4478  0.5286  1.1827
 4033TIP3    H133514   5.484   1.479  11.811  1.0911  0.8338  1.2026
 4033TIP3    H233515   5.447   1.337  11.847  0.0431  0.9903  0.7722
 4034TIP3   OH233516   1.071   5.510  15.208  0.8688 -0.2787  0.2693
 4034TIP3    H133517   1.011   5.529  15.135  0.8970 -0.1617  0.2767
 4034TIP3    H233518   1.138   5.454  15.169  0.8069 -0.3313  0.2373
 4035TIP3   OH233519   1.231   5.814  11.235  0.5126 -0.5973 -0.9452
 4035TIP3    H133520   1.143   5.821  11.199  0.2762  1.3839 -0.1487
 4035TIP3    H233521   1.257   5.724  11.219 -1.2804 -0.9676 -2.0532
 4036TIP3   OH233522   0.848   4.833   5.312 -0.0419 -0.2204  0.2236
 4036TIP3    H133523   0.757   4.807   5.299 -1.1006  2.3647  1.8776
 4036TIP3    H233524   0.871   4.882   5.233 -0.4063 -0.0397  0.2312
 4037TIP3   OH233525   0.454   0.067   1.098  0.3791  0.7703 -0.4949
 4037TIP3    H133526   0.392   0.011   1.144 -0.9885  2.0389 -0.7276
 4037TIP3    H233527   0.518   0.006   1.060 -0.1339 -0.4925  0.5794
 4038TIP3   OH233528   4.611   2.189   3.865 -0.4374  0.3069 -0.3813
 4038TIP3    H133529   4.560   2.199   3.945 -0.0745  0.6262 -0.1859
 4038TIP3    H233530   4.700   2.168   3.895 -0.6572 -1.2933 -0.7308
 4039TIP3   OH233531   0.799   1.495   3.013  0.0564  0.4214  0.8375
 4039TIP3    H133532   0.817   1.580   2.973 -2.5229  0.8782  0.5303
 4039TIP3    H233533   0.841   1.431   2.954 -0.5595  1.3029 -0.5933
 4040TIP3   OH233534   4.548   1.311  16.104 -0.0875 -0.7066 -0.2554
 4040TIP3    H133535   4.610   1.373  16.141  0.4597 -0.0913 -2.1141
 4040TIP3    H233536   4.601   1.251  16.052 -1.0009 -0.2161 -1.8188
 4041TIP3   OH233537   5.512   2.952  13.677  0.3388 -0.3466 -0.0454
 4041TIP3    H133538   5.544   2.874  13.724 -0.3463 -1.2866 -1.0890
 4041TIP3    H233539   5.441   2.986  13.732  0.6396 -0.4631  0.4157
 4042TIP3   OH233540   2.189   1.244   0.766  0.3642  0.0576 -0.1853
 4042TIP3    H133541   2.143   1.290   0.836 -1.1229 -0.4948 -0.7582
 4042TIP3    H233542   2.203   1.310   0.699 -1.5415 -0.1876 -0.8991
 4043TIP3   OH233543   5.348   1.100  12.556  0.2717 -0.0470  0.4330
 4043TIP3    H133544   5.328   1.103  12.650  1.7092  1.1230  0.7387
 4043TIP3    H233545   5.274   1.147  12.516 -0.4382 -0.6899  0.9474
 4044TIP3   OH233546   2.915   4.467   1.807  0.2877  0.1600 -0.2510
 4044TIP3    H133547   2.948   4.467   1.897 -0.6415 -1.1998  0.1153
 4044TIP3    H233548   2.840   4.408   1.809 -0.0924  0.5525 -1.8054
 4045TIP3   OH233549   3.128   3.649   0.837 -0.1192 -0.6041  0.5669
 4045TIP3    H133550   3.125   3.586   0.765  0.2819 -0.8994  0.8077
 4045TIP3    H233551   3.059   3.713   0.816 -0.4190 -1.0331  0.2412
 4046TIP3   OH233552   4.583   1.192  16.642 -0.0719 -0.5041  0.3900
 4046TIP3    H133553   4.491   1.169  16.635  0.1096 -1.1458  0.0953
 4046TIP3    H233554   4.584   1.288  16.633 -0.6168 -0.5733 -0.5460
 4047TIP3   OH233555   5.884   2.412  11.598 -0.5909  0.1616 -0.3390
 4047TIP3    H133556   5.922   2.330  11.566 -1.0781 -0.1792 -0.0489
 4047TIP3    H233557   5.849   2.454  11.519 -1.7664 -0.6652 -0.2750
 4048TIP3   OH233558   1.878   4.132   1.011  0.0158  0.0784 -0.1032
 4048TIP3    H133559   1.800   4.171   0.973 -0.4300  1.1704  1.7833
 4048TIP3    H233560   1.947   4.197   0.996 -0.3320  0.8702  1.5120
 4049TIP3   OH233561   2.191   5.205  16.507  0.0281 -0.8782  0.3944
 4049TIP3    H133562   2.244   5.231  16.582  0.6294 -0.7945 -0.0511
 4049TIP3    H233563   2.115   5.263  16.511  1.2210  0.8642 -0.4282
 4050TIP3   OH233564   2.835   5.242   0.900 -0.2185 -0.2198 -0.2347
 4050TIP3    H133565   2.748   5.210   0.925 -1.6851  1.9512 -2.0676
 4050TIP3    H233566   2.836   5.333   0.929  1.2458 -0.0474 -0.7301
 4051TIP3   OH233567   4.449   3.906   4.606  0.0014 -0.0455 -0.2075
 4051TIP3    H133568   4.412   3.852   4.537 -0.8873 -0.1161  0.3126
 4051TIP3    H233569   4.514   3.851   4.648  0.5331 -0.0115 -0.9552
 4052TIP3   OH233570   2.637   4.509   3.156 -0.1264 -0.3128  0.4172
 4052TIP3    H133571   2.602   4.425   3.126  0.2193 -0.1319 -0.5472
 4052TIP3    H233572   2.559   4.564   3.168 -0.2847 -0.4180 -0.0977
 4053TIP3   OH233573   5.521   0.215  14.631 -0.1920 -0.1750 -0.2765
 4053TIP3    H133574   5.488   0.170  14.553 -1.0338  0.1321 -0.0970
 4053TIP3    H233575   5.614   0.228  14.612 -0.0237 -1.5736 -0.5308
 4054TIP3   OH233576   6.099   2.650   5.490 -0.3620 -0.2399 -0.2324
 4054TIP3    H133577   6.090   2.568   5.539  1.7890 -0.3766  0.0421
 4054TIP3    H233578   6.009   2.682   5.480 -1.0202 -0.9061  2.5934
 4055TIP3   OH233579   2.610   2.406   2.392 -0.1438 -0.1675 -0.1977
 4055TIP3    H133580   2.656   2.490   2.396 -2.3313  1.1088  3.4664
 4055TIP3    H233581   2.657   2.350   2.454 -1.8159  0.3082  1.6016
 4056TIP3   OH233582   5.586   2.623  12.664 -0.7003 -0.5202  0.0329
 4056TIP3    H133583   5.580   2.633  12.569 -0.9252  1.7589  0.2243
 4056TIP3    H233584   5.527   2.550  12.684 -2.2036  0.2166 -1.4171
 4057TIP3   OH233585   2.770   5.857   0.218 -0.1232 -0.2814 -0.3682
 4057TIP3    H133586   2.678   5.880   0.224 -0.1679 -0.2138 -1.2031
 4057TIP3    H233587   2.779   5.813   0.134  1.1543  2.4507 -1.7820
 4058TIP3   OH233588   1.757   5.600   1.974  0.2050  0.2272  0.0642
 4058TIP3    H133589   1.762   5.590   1.879 -0.3903  0.6753 -0.0220
 4058TIP3    H233590   1.716   5.519   2.005  1.9487 -0.6721  0.1310
 4059TIP3   OH233591   0.028   3.636  17.178  0.0014 -0.3067 -0.7419
 4059TIP3    H133592   0.006   3.654  17.269  0.3110 -0.0149 -0.7253
 4059TIP3    H233593  -0.039   3.681  17.127 -0.1003 -0.3667 -0.6612
 4060TIP3   OH233594   4.323   4.611  15.251 -0.2511  0.0223  0.2918
 4060TIP3    H133595   4.297   4.646  15.166  0.9610 -0.3973 -0.2770
 4060TIP3    H233596   4.250   4.631  15.309 -0.0743  2.4928 -0.2479
 4061TIP3   OH233597   0.498   3.398  14.765  0.0889 -0.6407 -0.3516
 4061TIP3    H133598   0.553   3.471  14.734 -0.4124 -0.0588  0.0992
 4061TIP3    H233599   0.557   3.323  14.770  0.9564  0.0779  0.5464
 4062TIP3   OH233600   3.861   3.302   4.124 -0.3061 -0.1873 -0.4468
 4062TIP3    H133601   3.814   3.383   4.108  1.3283  0.7093 -0.9507
 4062TIP3    H233602   3.797   3.233   4.104 -1.8104  0.9393  0.2787
 4063TIP3   OH233603   4.576   6.075   0.724 -0.5210 -0.1365 -0.3655
 4063TIP3    H133604   4.637   6.045   0.791  0.5840 -0.0581 -1.3073
 4063TIP3    H233605   4.529   5.996   0.698  1.2138 -0.8213 -1.6478
 4064TIP3   OH233606   3.268   0.715  14.062 -0.1713 -0.6519  0.2491
 4064TIP3    H133607   3.211   0.771  14.115 -1.3024 -1.8296  0.3321
 4064TIP3    H233608   3.252   0.742  13.972  0.1497 -0.0899  0.3549
 4065TIP3   OH233609   1.290   0.195   1.151  0.3397  0.0409 -0.2988
 4065TIP3    H133610   1.282   0.128   1.220 -2.7310  1.1243  0.5842
 4065TIP3    H233611   1.378   0.231   1.162 -0.0888  0.3706  3.3335
 4066TIP3   OH233612   4.807   1.183  15.555 -0.1227 -0.9032  0.1103
 4066TIP3    H133613   4.782   1.268  15.518 -0.0683 -0.9415 -0.0142
 4066TIP3    H233614   4.740   1.123  15.523 -1.7468 -0.4349  2.3707
 4067TIP3   OH233615   1.798   3.830  11.926  0.3333 -0.0298 -0.1501
 4067TIP3    H133616   1.763   3.742  11.945  0.2603  0.2887  1.3275
 4067TIP3    H233617   1.735   3.890  11.966  1.4466  0.6248  0.6820
 4068TIP3   OH233618   6.612   5.056   6.451  0.0110 -0.2506 -0.5162
 4068TIP3    H133619   6.670   4.990   6.487 -0.8037 -0.2951  0.7949
 4068TIP3    H233620   6.560   5.010   6.385  0.5657 -0.5141 -0.7687
 4069TIP3   OH233621   4.625   1.788  13.059 -0.5375 -0.2080 -0.0451
 4069TIP3    H133622   4.577   1.727  13.004 -0.8147 -0.6865  0.7132
 4069TIP3    H233623   4.579   1.786  13.143  1.1837 -1.2312  0.9357
 4070TIP3   OH233624   3.073   1.975   6.799 -0.8808 -0.2294  0.0712
 4070TIP3    H133625   3.118   2.006   6.720 -2.3764 -0.9689 -1.1330
 4070TIP3    H233626   3.096   2.039   6.866  2.1350 -0.7292 -0.3666
 4071TIP3   OH233627   2.893   4.560  16.451  0.0502 -0.0215 -0.0167
 4071TIP3    H133628   2.917   4.511  16.530  0.0980 -0.3122 -0.2101
 4071TIP3    H233629   2.881   4.492  16.384 -2.6418 -0.0587  0.3970
 4072TIP3   OH233630   3.023   2.001   4.209  0.1925 -0.4538  0.3021
 4072TIP3    H133631   3.094   1.943   4.235  1.8115  1.8221  1.2512
 4072TIP3    H233632   3.044   2.085   4.249 -1.8243  0.9452 -1.3419
 4073TIP3   OH233633   1.511   0.762   1.715 -0.1875  0.2161  0.1670
 4073TIP3    H133634   1.460   0.799   1.643 -0.1008  1.6964  0.8350
 4073TIP3    H233635   1.583   0.717   1.672 -1.3223 -0.8197 -0.7451
 4074TIP3   OH233636   4.266   4.179  13.302  0.0285  0.2049  0.1485
 4074TIP3    H133637   4.236   4.239  13.371 -0.6701 -0.9739  0.9114
 4074TIP3    H233638   4.215   4.100  13.317  1.6134 -0.9197 -0.2391
 4075TIP3   OH233639   1.337   4.904  16.381 -0.2913  0.2723 -0.1164
 4075TIP3    H133640   1.248   4.932  16.404 -0.0428  1.2073 -0.2433
 4075TIP3    H233641   1.361   4.843  16.450 -0.6389  0.8429  0.5256
 4076TIP3   OH233642   3.788   0.224   2.919 -0.8224  0.1337 -0.2605
 4076TIP3    H133643   3.735   0.211   2.998 -1.5710  0.6051 -0.6678
 4076TIP3    H233644   3.877   0.206   2.947 -0.9269  1.3777  0.9811
 4077TIP3   OH233645   1.802   0.918  16.945 -0.1393 -0.2476  0.1365
 4077TIP3    H133646   1.874   0.868  16.983 -0.9301 -2.0799 -0.6922
 4077TIP3    H233647   1.736   0.920  17.014 -0.8944 -2.1078 -0.4859
 4078TIP3   OH233648   6.307   4.440  12.912  0.2985  0.1173  0.4553
 4078TIP3    H133649   6.348   4.378  12.852 -0.7226 -1.6271  1.4752
 4078TIP3    H233650   6.346   4.420  12.998 -1.2783 -0.3031  1.0997
 4079TIP3   OH233651   6.127   4.343   6.121  0.1662  0.2648  0.0121
 4079TIP3    H133652   6.095   4.361   6.032  0.0484 -0.9368 -0.2075
 4079TIP3    H233653   6.093   4.416   6.173 -2.8179 -0.7711 -0.2443
 4080TIP3   OH233654   3.924   5.360   3.617  0.3915 -0.1156 -0.0008
 4080TIP3    H133655   3.931   5.281   3.671 -1.6854 -0.9937 -0.8989
 4080TIP3    H233656   3.988   5.421   3.654  0.0271 -1.1778  2.5273
 4081TIP3   OH233657   0.655   4.830   1.322 -0.8577  0.0728 -0.0542
 4081TIP3    H133658   0.618   4.742   1.331 -0.7590  0.1640  1.6226
 4081TIP3    H233659   0.750   4.816   1.321 -0.8519  0.1099 -0.7200
 4082TIP3   OH233660   1.096   0.551  12.154  0.2291  0.0010  0.1476
 4082TIP3    H133661   1.184   0.587  12.146  0.2036  0.0817  0.2298
 4082TIP3    H233662   1.073   0.564  12.246 -0.3460  1.0837 -0.1230
 4083TIP3   OH233663   5.941   0.733  13.045  0.0491 -0.4748 -0.5233
 4083TIP3    H133664   5.909   0.800  12.984 -1.3619 -0.7788 -0.1595
 4083TIP3    H233665   5.937   0.775  13.131  2.9222  0.2726 -0.6690
 4084TIP3   OH233666   6.690   5.521   4.943 -0.0056  0.2028  0.4239
 4084TIP3    H133667   6.709   5.556   4.856 -0.0661  1.3287  0.8470
 4084TIP3    H233668   6.719   5.589   5.003  0.4300 -0.7452  1.3123
 4085TIP3   OH233669   2.077   3.476   2.011 -0.1890  0.0005 -0.0461
 4085TIP3    H133670   2.000   3.531   2.023  0.1776 -0.0149  3.1008
 4085TIP3    H233671   2.049   3.389   2.039  1.0461  0.0849  1.5547
 4086TIP3   OH233672   5.703   5.369   4.292 -0.2102  0.1295 -0.3430
 4086TIP3    H133673   5.741   5.419   4.220  1.3560 -2.4480 -1.4679
 4086TIP3    H233674   5.621   5.336   4.256  0.3806 -0.8247 -0.8845
 4087TIP3   OH233675   1.729   2.017   0.026  0.2615  0.3709 -0.0450
 4087TIP3    H133676   1.691   2.079   0.089 -0.7360  1.5955 -1.7768
 4087TIP3    H233677   1.674   1.939   0.031  0.8255  0.0254  1.3110
 4088TIP3   OH233678   1.536   4.452   2.480 -0.4728 -0.2838 -0.1568
 4088TIP3    H133679   1.466   4.477   2.541 -0.8627 -2.0452  0.1633
 4088TIP3    H233680   1.518   4.503   2.401 -1.2025  0.4525  0.4736
 4089TIP3   OH233681   3.384   0.038   4.022  0.3185 -0.1430  0.1876
 4089TIP3    H133682   3.326  -0.003   3.957  0.7501 -0.8333  0.2387
 4089TIP3    H233683   3.379   0.132   4.001  0.9796 -0.4013 -1.3003
 4090TIP3   OH233684   5.222   6.740  16.406 -0.1537  0.1993 -0.0679
 4090TIP3    H133685   5.164   6.794  16.351  2.0338  2.4406 -0.3696
 4090TIP3    H233686   5.261   6.677  16.346 -1.9870 -1.1948  0.1010
 4091TIP3   OH233687   0.393   4.438   1.247 -0.1227  0.4462 -0.1731
 4091TIP3    H133688   0.427   4.356   1.282  0.1569  0.1826 -1.0419
 4091TIP3    H233689   0.331   4.412   1.179  0.2484  0.9448 -0.7242
 4092TIP3   OH233690   4.974   5.468   2.609  0.2440  0.0159 -0.1594
 4092TIP3    H133691   5.062   5.434   2.590 -0.0781 -0.6546 -0.4833
 4092TIP3    H233692   4.984   5.563   2.607  0.7123 -0.0482 -1.4144
 4093TIP3   OH233693   1.351   6.770  15.567 -0.1163  0.4712  0.3909
 4093TIP3    H133694   1.430   6.789  15.515 -0.8072 -0.0239 -0.8859
 4093TIP3    H233695   1.308   6.700  15.519 -1.8227  1.3672  0.5607
 4094TIP3   OH233696   4.430   3.821   3.753  0.4878  0.4668 -0.2668
 4094TIP3    H133697   4.493   3.885   3.787  0.6152  0.4359 -0.4461
 4094TIP3    H233698   4.365   3.873   3.707  0.1885  0.5305  0.2131
 4095TIP3   OH233699   5.712   5.906  16.745  0.3959 -0.3816  0.8808
 4095TIP3    H133700   5.690   5.901  16.838  1.1486  2.1102  1.2674
 4095TIP3    H233701   5.801   5.941  16.743  0.5698 -0.8143 -0.7836
 4096TIP3   OH233702   6.685   3.893  15.205 -0.1031  0.3732  0.5068
 4096TIP3    H133703   6.631   3.860  15.277  0.8912 -0.0951  1.0479
 4096TIP3    H233704   6.725   3.815  15.167 -0.9832  0.5681 -0.8731
 4097TIP3   OH233705   0.504   0.324   3.284 -0.2706 -0.0215  0.2504
 4097TIP3    H133706   0.596   0.349   3.294  0.2241 -1.6431  0.0375
 4097TIP3    H233707   0.505   0.228   3.283 -2.1439 -0.1318  1.8529
 4098TIP3   OH233708   4.646   0.540  16.505 -0.0491  0.2443 -0.0313
 4098TIP3    H133709   4.694   0.580  16.433  3.7997 -0.5299  1.8620
 4098TIP3    H233710   4.650   0.604  16.576 -0.6241 -0.4082  0.6071
 4099TIP3   OH233711   6.276   6.622  16.140  0.2726  0.0281 -0.2674
 4099TIP3    H133712   6.331   6.618  16.218 -2.0902 -0.7934  1.4762
 4099TIP3    H233713   6.277   6.533  16.105  0.2810  0.0725 -0.3795
 4100TIP3   OH233714   4.837   5.645   0.099  0.4728  0.0857  0.3916
 4100TIP3    H133715   4.825   5.732   0.060 -0.3013  0.6476  1.7871
 4100TIP3    H233716   4.911   5.657   0.159 -1.1184  0.4690  2.3642
 4101TIP3   OH233717   2.382   0.571  15.538  0.4883  0.1967 -0.2423
 4101TIP3    H133718   2.291   0.548  15.521  0.5204 -0.7359  0.7305
 4101TIP3    H233719   2.382   0.666  15.549  0.1457  0.6390 -3.2374
 4102TIP3   OH233720   2.808   4.087   3.575 -0.3733  0.0377  0.0033
 4102TIP3    H133721   2.803   4.177   3.607 -0.5533 -0.0182  0.1337
 4102TIP3    H233722   2.743   4.084   3.504 -1.8184 -0.5266  1.2972
 4103TIP3   OH233723   3.467   4.462  11.433 -0.9684  0.8288 -0.1827
 4103TIP3    H133724   3.485   4.454  11.339  1.9104  0.9102  0.2782
 4103TIP3    H233725   3.501   4.381  11.471  0.7834  2.1121  1.1093
 4104TIP3   OH233726   3.308   6.523  16.563  0.2708  0.2612 -0.0265
 4104TIP3    H133727   3.374   6.454  16.556  1.4503  1.4447 -1.1283
 4104TIP3    H233728   3.254   6.513  16.485 -0.3394 -0.1799  0.4482
 4105TIP3   OH233729   4.214   1.285   1.744 -0.1296 -0.4651  0.3094
 4105TIP3    H133730   4.149   1.252   1.682 -0.0606  0.6940 -0.4052
 4105TIP3    H233731   4.163   1.338   1.806  0.0636  0.0570  0.0263
 4106TIP3   OH233732   0.074   3.873   0.400  0.6086  0.6042  0.3183
 4106TIP3    H133733   0.142   3.845   0.461 -0.6465 -1.0224  1.0348
 4106TIP3    H233734   0.107   3.848   0.314 -0.0440 -2.4065  0.8371
 4107TIP3   OH233735   0.637   1.068  17.024  0.3474  0.1528  0.3606
 4107TIP3    H133736   0.710   1.006  17.027  0.2051  0.0100  1.0269
 4107TIP3    H233737   0.560   1.014  17.040 -0.1096  0.0226 -1.9819
 4108TIP3   OH233738   5.357   4.572   5.409  0.4049  0.3025 -0.2492
 4108TIP3    H133739   5.391   4.645   5.461  0.0179  0.2491  0.0876
 4108TIP3    H233740   5.324   4.510   5.474  0.1023  0.1411 -0.5536
 4109TIP3   OH233741   5.074   3.986   0.087  0.2849  0.1451  0.0206
 4109TIP3    H133742   5.037   3.906   0.051  0.0025  1.1510 -2.0902
 4109TIP3    H233743   5.020   4.005   0.163 -0.1352 -1.2303  0.0976
 4110TIP3   OH233744   6.045   3.226   4.367  0.4506 -0.4606  0.9876
 4110TIP3    H133745   6.046   3.321   4.366  1.0175 -0.4681  0.7401
 4110TIP3    H233746   6.098   3.200   4.292  1.9960 -0.9646  2.1971
 4111TIP3   OH233747   5.561   5.718  16.589 -0.1056 -0.2388  0.0268
 4111TIP3    H133748   5.487   5.778  16.579  0.0885 -0.0382 -0.2151
 4111TIP3    H233749   5.631   5.772  16.626 -0.7882 -0.9545  2.5130
 4112TIP3   OH233750   4.038   2.528  14.551  0.4537  0.2516 -0.0663
 4112TIP3    H133751   3.963   2.469  14.560 -0.1776  0.9310 -0.7727
 4112TIP3    H233752   4.063   2.523  14.459  1.3586 -0.0444  0.1773
 4113TIP3   OH233753   6.459   0.994   3.862 -0.8316 -0.2605 -0.3879
 4113TIP3    H133754   6.423   1.074   3.899  2.0570  0.4400  1.2108
 4113TIP3    H233755   6.389   0.959   3.807 -3.2033  1.8159  1.1225
 4114TIP3   OH233756   5.503   4.042  10.707 -0.1553  0.1515  0.3290
 4114TIP3    H133757   5.555   4.017  10.783  0.0883  3.6224  1.5188
 4114TIP3    H233758   5.549   4.119  10.672 -1.0584 -0.5018 -2.5123
 4115TIP3   OH233759   5.893   5.729   2.173 -0.2170 -0.5275  0.6421
 4115TIP3    H133760   5.884   5.795   2.103  2.4768 -0.8787 -0.1520
 4115TIP3    H233761   5.935   5.776   2.245 -0.0275 -0.9246  0.7933
 4116TIP3   OH233762   3.529   5.970  12.554 -0.0294 -0.1032 -0.6255
 4116TIP3    H133763   3.515   5.918  12.475  0.4365 -0.0752 -0.7350
 4116TIP3    H233764   3.589   5.917  12.608 -0.7163 -0.3306 -0.0760
 4117TIP3   OH233765   2.942   5.689   1.809 -0.0325 -0.3858  0.0943
 4117TIP3    H133766   3.000   5.621   1.842 -0.4663 -1.3303 -1.0316
 4117TIP3    H233767   2.996   5.739   1.747 -0.4807 -1.4964 -1.2385
 4118TIP3   OH233768   5.171   1.411  10.503 -0.2021  0.5658 -0.3633
 4118TIP3    H133769   5.226   1.463  10.562 -1.9226  0.6676  1.2248
 4118TIP3    H233770   5.221   1.331  10.488 -0.2275 -0.0215  2.2900
 4119TIP3   OH233771   2.896   1.139  12.826  0.0318 -0.3998  0.0971
 4119TIP3    H133772   2.955   1.064  12.816 -0.5238 -1.0726  1.6455
 4119TIP3    H233773   2.857   1.128  12.913 -1.7915  0.4455 -0.5565
 4120TIP3   OH233774   5.122   4.777  12.773  0.4778  0.2311  0.4004
 4120TIP3    H133775   5.077   4.705  12.815  0.1037  0.3594  0.2241
 4120TIP3    H233776   5.198   4.794  12.828 -0.8408  1.4494  1.9512
 4121TIP3   OH233777   1.038   3.727   3.628 -0.5265  0.0348  0.2348
 4121TIP3    H133778   1.084   3.800   3.671  0.7536  0.5525 -1.8537
 4121TIP3    H233779   1.004   3.674   3.700  1.6019  0.7655  1.8733
 4122TIP3   OH233780   3.322   0.351  14.659 -0.3305 -0.0789  0.5828
 4122TIP3    H133781   3.326   0.314  14.747  0.0042  0.1953  0.6833
 4122TIP3    H233782   3.407   0.331  14.620 -0.6710 -0.6740  0.1230
 4123TIP3   OH233783   3.242   2.178  14.345  0.8233 -0.2246  0.9836
 4123TIP3    H133784   3.187   2.161  14.268  1.1805 -1.8803  1.0667
 4123TIP3    H233785   3.200   2.253  14.388 -1.1456 -1.1631  0.8135
 4124TIP3   OH233786   3.830   2.257  10.818 -0.0866  0.6792 -0.1100
 4124TIP3    H133787   3.827   2.328  10.882 -0.8954  1.6151 -1.1248
 4124TIP3    H233788   3.920   2.224  10.823  0.7245  2.6487 -0.4782
 4125TIP3   OH233789   4.619   0.916   1.810  0.3441  0.7563  0.1270
 4125TIP3    H133790   4.560   0.990   1.822 -0.0507  0.4205  0.2775
 4125TIP3    H233791   4.628   0.879   1.898 -0.0244  0.1979 -0.0702
 4126TIP3   OH233792   5.473   5.344  15.753 -0.7244  0.2544 -0.0318
 4126TIP3    H133793   5.448   5.414  15.813  0.2715  0.5801  0.0272
 4126TIP3    H233794   5.526   5.285  15.806 -2.3785 -1.1106  0.1809
 4127TIP3   OH233795   2.713   3.489  13.476 -0.0446  0.1659 -0.0561
 4127TIP3    H133796   2.725   3.490  13.381 -0.7560 -0.8605 -0.1695
 4127TIP3    H233797   2.799   3.511  13.511  0.2340  0.5315 -0.9356
 4128TIP3   OH233798   0.424   6.460  11.902 -0.7011 -0.0383 -0.1912
 4128TIP3    H133799   0.403   6.549  11.930 -0.2098  0.1444 -0.3967
 4128TIP3    H233800   0.505   6.469  11.852 -0.4815 -0.6419  0.0478
 4129TIP3   OH233801   6.467   4.712  16.384 -0.0102 -0.0251 -0.2569
 4129TIP3    H133802   6.516   4.630  16.388  1.0758  0.5595 -1.2129
 4129TIP3    H233803   6.385   4.693  16.430  0.5181 -1.4303  0.1450
 4130TIP3   OH233804   3.216   3.502  12.301  0.4152 -0.8812 -0.1337
 4130TIP3    H133805   3.211   3.509  12.396 -1.4485  0.5958 -0.2901
 4130TIP3    H233806   3.236   3.409  12.285 -0.0266 -1.3335  1.6733
 4131TIP3   OH233807   3.851   2.868  13.115  0.4279  0.1388  0.7471
 4131TIP3    H133808   3.792   2.941  13.138 -1.7243 -0.4822 -2.2069
 4131TIP3    H233809   3.814   2.793  13.162  0.0332  0.1366  0.4412
 4132TIP3   OH233810   0.282   1.721   0.753  0.3701 -0.4385  0.2642
 4132TIP3    H133811   0.240   1.806   0.766  0.8940 -0.0243 -0.6925
 4132TIP3    H233812   0.213   1.666   0.716 -0.4914 -0.9842  2.5106
 4133TIP3   OH233813   2.466   0.064  14.513  0.2956 -0.0955  0.2879
 4133TIP3    H133814   2.515  -0.009  14.552 -1.1002 -1.9291 -1.1458
 4133TIP3    H233815   2.377   0.052  14.547  0.2000  1.4338  0.6149
 4134TIP3   OH233816   6.695   3.238  11.564 -0.1139  0.2919  0.1607
 4134TIP3    H133817   6.749   3.159  11.559 -0.6490 -0.0034 -2.8518
 4134TIP3    H233818   6.720   3.289  11.486 -2.7868  1.0533 -0.2987
 4135TIP3   OH233819   2.839   3.973  11.078  0.3438 -0.4871  0.4756
 4135TIP3    H133820   2.907   3.960  11.012 -0.1862  0.0742 -0.2023
 4135TIP3    H233821   2.844   4.066  11.099  0.8596 -0.7636  1.6350
 4136TIP3   OH233822   4.499   2.258   0.307 -0.1237  0.9187 -0.1381
 4136TIP3    H133823   4.443   2.182   0.327 -1.0345  1.4127 -0.7062
 4136TIP3    H233824   4.574   2.221   0.262 -0.6613  0.3675 -0.6021
 4137TIP3   OH233825   6.138   1.467  15.306 -0.0503 -0.8806 -0.0229
 4137TIP3    H133826   6.197   1.467  15.231  0.0347  0.8785  0.0115
 4137TIP3    H233827   6.053   1.442  15.269 -0.1264  0.4737 -0.8445
 4138TIP3   OH233828   0.185   3.462  12.981 -0.0418 -0.4244 -0.0257
 4138TIP3    H133829   0.179   3.484  13.074 -0.4492  1.4370 -0.4504
 4138TIP3    H233830   0.250   3.523  12.946 -0.9578 -0.1118 -1.2327
 4139TIP3   OH233831   2.695   1.977   5.314 -0.2460 -0.0094  0.4367
 4139TIP3    H133832   2.616   1.998   5.364  0.0408  0.9747  0.4925
 4139TIP3    H233833   2.751   1.930   5.376  0.2387  1.4690  1.1738
 4140TIP3   OH233834   4.202   3.281  13.570  0.3669 -0.5022  0.0163
 4140TIP3    H133835   4.242   3.322  13.493 -1.5942  1.8731  0.1321
 4140TIP3    H233836   4.141   3.217  13.535  1.4286 -1.3791 -0.2749
 4141TIP3   OH233837   4.900   1.440  16.572  0.4289  0.4101  0.3452
 4141TIP3    H133838   4.934   1.395  16.649  1.8126  0.0998 -0.4038
 4141TIP3    H233839   4.886   1.531  16.601 -1.4551 -0.2162  1.5987
 4142TIP3   OH233840   3.087   5.182  12.367  0.3973  0.4381 -0.1369
 4142TIP3    H133841   3.095   5.182  12.272 -0.0290  1.4454 -0.1891
 4142TIP3    H233842   3.000   5.218  12.383  0.2746 -0.1752  0.6308
 4143TIP3   OH233843   2.635   0.523  16.814 -0.1168  0.2501 -0.4766
 4143TIP3    H133844   2.573   0.594  16.795 -1.7498 -0.6279  1.2222
 4143TIP3    H233845   2.610   0.493  16.901  1.9745 -0.9566 -0.2382
 4144TIP3   OH233846   1.386   3.021  15.531 -0.0652 -0.1001 -0.3718
 4144TIP3    H133847   1.300   2.980  15.543 -0.9519  0.7138 -3.1422
 4144TIP3    H233848   1.449   2.951  15.549 -1.3585 -1.2019  0.0078
 4145TIP3   OH233849   3.363   5.656   4.976 -0.4632  0.6392 -0.0529
 4145TIP3    H133850   3.386   5.617   4.892  1.2539 -1.4672  1.2879
 4145TIP3    H233851   3.447   5.676   5.017 -1.1074 -1.1009  2.3204
 4146TIP3   OH233852   1.101   5.356   5.211 -0.0683  0.0380  0.5106
 4146TIP3    H133853   1.063   5.340   5.125 -1.0895  1.1419  0.7266
 4146TIP3    H233854   1.151   5.437   5.200  0.8058 -0.4725  0.6635
 4147TIP3   OH233855   6.215   1.629   2.167 -0.3040 -0.5112  0.2430
 4147TIP3    H133856   6.167   1.549   2.188  0.0756 -0.6222  0.6958
 4147TIP3    H233857   6.245   1.617   2.077 -2.8658  0.4130 -0.8358
 4148TIP3   OH233858   2.531   1.944  11.306  0.0123  0.4017 -0.1113
 4148TIP3    H133859   2.604   1.885  11.289  2.2484  2.6315  1.0552
 4148TIP3    H233860   2.521   1.994  11.225 -0.1344  0.2029 -0.2179
 4149TIP3   OH233861   3.833   3.219  17.022 -0.0071  0.6741 -0.5087
 4149TIP3    H133862   3.892   3.150  17.054 -2.4037 -0.2609  2.3750
 4149TIP3    H233863   3.803   3.186  16.937  0.7990 -0.6283 -0.3292
 4150TIP3   OH233864   1.855   1.198   0.108 -0.0499 -0.4102  0.8272
 4150TIP3    H133865   1.930   1.221   0.053 -0.7864  1.0160  0.3538
 4150TIP3    H233866   1.779   1.213   0.052 -0.7458 -0.5732  1.7042
 4151TIP3   OH233867   1.214   4.960  15.485  0.0710  0.1874 -0.1962
 4151TIP3    H133868   1.296   4.912  15.474  0.7840  0.7037  2.3355
 4151TIP3    H233869   1.161   4.934  15.409  1.5107 -2.3170 -0.4551
 4152TIP3   OH233870   5.268   5.199   1.592  0.7888 -0.1833 -0.6383
 4152TIP3    H133871   5.302   5.222   1.505  1.9206 -2.2042 -0.7868
 4152TIP3    H233872   5.199   5.135   1.574  1.5171 -1.1635 -0.0584
 4153TIP3   OH233873   3.688   6.108  11.458 -0.1351  0.0455 -0.1383
 4153TIP3    H133874   3.718   6.148  11.376  2.2271  0.5122  0.8859
 4153TIP3    H233875   3.639   6.177  11.502 -0.2569  0.2273 -0.5514
 4154TIP3   OH233876   2.045   4.313   5.818 -0.3351 -0.1053  0.0806
 4154TIP3    H133877   2.120   4.333   5.762 -0.3229 -0.4613 -0.0314
 4154TIP3    H233878   2.085   4.281   5.900 -0.3650 -0.4081 -0.0220
 4155TIP3   OH233879   1.936   3.707   3.768 -0.2782  0.5488  0.2590
 4155TIP3    H133880   1.973   3.697   3.680  1.0631 -3.2798  1.0662
 4155TIP3    H233881   2.009   3.740   3.821 -0.0592 -0.3692  0.5409
 4156TIP3   OH233882   4.466   5.492  17.254  0.3896  0.4993  0.1516
 4156TIP3    H133883   4.451   5.434  17.328  1.9098  1.0149  0.9256
 4156TIP3    H233884   4.539   5.452  17.207  1.3885  1.6543  0.6329
 4157TIP3   OH233885   4.688   2.234  13.527  0.5827 -0.3008  0.9220
 4157TIP3    H133886   4.636   2.254  13.606 -2.4115 -0.2664 -0.9088
 4157TIP3    H233887   4.691   2.139  13.524 -3.7785 -0.6350 -1.3395
 4158TIP3   OH233888   2.637   6.608   2.950  0.0537 -0.0302  0.3802
 4158TIP3    H133889   2.730   6.615   2.971  0.4443 -0.0219 -1.2776
 4158TIP3    H233890   2.619   6.680   2.890 -0.6951 -0.8336 -0.3919
 4159TIP3   OH233891   1.180   0.340   2.483 -0.0101 -0.4618  0.3064
 4159TIP3    H133892   1.253   0.356   2.423 -0.7350  0.3195 -0.4087
 4159TIP3    H233893   1.110   0.306   2.427 -0.5730 -0.0984  0.7748
 4160TIP3   OH233894   3.149   5.628   4.092  0.0239 -0.2537  0.0061
 4160TIP3    H133895   3.112   5.684   4.024  1.1033 -0.7525 -1.0132
 4160TIP3    H233896   3.242   5.621   4.071  0.5006 -0.0118  1.8290
 4161TIP3   OH233897   0.821   5.533   2.961 -0.6185  0.2108  0.3291
 4161TIP3    H133898   0.851   5.487   3.039 -1.7833  0.3727  0.8960
 4161TIP3    H233899   0.901   5.552   2.911  0.2602  0.9693  1.9507
 4162TIP3   OH233900   5.522   3.976  13.841  0.2031 -1.0894 -0.0282
 4162TIP3    H133901   5.578   4.053  13.844  0.8458 -1.4835 -1.2433
 4162TIP3    H233902   5.565   3.917  13.779 -0.1920 -2.4982  0.9831
 4163TIP3   OH233903   6.545   1.857  16.042 -0.1172 -0.5871 -0.4686
 4163TIP3    H133904   6.457   1.867  16.006  0.5099  0.3176 -1.8399
 4163TIP3    H233905   6.585   1.787  15.990  0.3673 -0.1748 -0.6597
 4164TIP3   OH233906   1.968   5.486  12.340 -0.0312 -0.4943  0.7353
 4164TIP3    H133907   2.026   5.443  12.277  1.1569  1.2228  0.5798
 4164TIP3    H233908   2.020   5.560  12.373 -2.4083  1.6580 -0.0582
 4165TIP3   OH233909   1.701   4.984   1.910  1.1542  0.4450 -0.0239
 4165TIP3    H133910   1.698   4.922   1.837  0.8948 -1.2217  1.3558
 4165TIP3    H233911   1.614   5.022   1.913  1.2049  0.6250 -0.6500
 4166TIP3   OH233912   2.204   1.736   2.333  0.0433 -0.0045  0.4275
 4166TIP3    H133913   2.237   1.825   2.319  0.6861 -0.2976  0.0447
 4166TIP3    H233914   2.186   1.732   2.427  0.8787  0.2407  0.6045
 4167TIP3   OH233915   2.747   5.478  13.754  0.0483  0.3151  0.1724
 4167TIP3    H133916   2.744   5.394  13.800 -1.6725 -0.0500 -0.5291
 4167TIP3    H233917   2.741   5.455  13.661  2.3558  1.0983 -0.2180
 4168TIP3   OH233918   3.618   3.713   1.215 -0.2002 -0.0473  0.0875
 4168TIP3    H133919   3.575   3.654   1.153 -0.4654 -0.0321  0.2548
 4168TIP3    H233920   3.575   3.798   1.201 -1.1436 -0.3263  1.1584
 4169TIP3   OH233921   5.026   6.473   3.735  0.2485  0.4216 -0.5568
 4169TIP3    H133922   5.016   6.478   3.830  4.4068 -1.2943  0.2229
 4169TIP3    H233923   4.961   6.409   3.707  0.8201 -1.3049  1.7089
 4170TIP3   OH233924   2.005   0.950  11.993 -0.1840  0.1203 -0.0151
 4170TIP3    H133925   1.988   0.921  12.082 -2.1095 -1.0536 -0.6890
 4170TIP3    H233926   2.052   0.877  11.953  1.9623  1.2075  0.3519
 4171TIP3   OH233927   2.065   5.885   2.141  0.0195  0.1931  0.6906
 4171TIP3    H133928   2.145   5.935   2.158 -0.6045  1.8199 -0.8227
 4171TIP3    H233929   1.996   5.950   2.138 -0.6978 -0.5209 -2.3483
 4172TIP3   OH233930   6.375   6.593   0.493 -0.8679 -0.2655 -0.6183
 4172TIP3    H133931   6.310   6.537   0.450 -1.9189  0.2622  0.2296
 4172TIP3    H233932   6.338   6.610   0.580  0.2284  0.3777 -0.2539
 4173TIP3   OH233933   5.443   3.779   4.849 -0.6734 -0.4470  0.0344
 4173TIP3    H133934   5.525   3.810   4.888 -1.2511 -0.3558  1.2373
 4173TIP3    H233935   5.387   3.857   4.848 -1.0843 -0.7410  0.1658
 4174TIP3   OH233936   2.817   2.992  13.467  0.4526  0.4185 -0.1960
 4174TIP3    H133937   2.881   3.058  13.494 -0.6878  1.1528  0.8097
 4174TIP3    H233938   2.737   3.041  13.450 -0.2500 -0.6317 -0.0361
 4175TIP3   OH233939   3.266   5.993   2.509  0.0277  0.1509 -0.6017
 4175TIP3    H133940   3.314   6.026   2.584 -1.3935 -0.5842  0.6937
 4175TIP3    H233941   3.303   5.906   2.493 -0.4689 -0.1969  0.0599
 4176TIP3   OH233942   2.566   1.233  17.041  0.1105  0.1276 -0.0321
 4176TIP3    H133943   2.580   1.139  17.046 -0.2137 -0.0075 -1.2594
 4176TIP3    H233944   2.489   1.243  16.985  0.1099  1.1166  0.1211
 4177TIP3   OH233945   1.032   2.537  16.427 -0.3461  0.3763  0.4843
 4177TIP3    H133946   1.043   2.445  16.449 -0.9560  0.2403  0.2390
 4177TIP3    H233947   0.955   2.540  16.370  0.3090  0.9045 -0.3968
 4178TIP3   OH233948   5.330   2.086  16.118  0.2013 -0.1984 -0.2044
 4178TIP3    H133949   5.276   2.094  16.039 -0.6413 -0.1256  0.3650
 4178TIP3    H233950   5.399   2.151  16.107  0.5463 -0.7153 -1.2328
 4179TIP3   OH233951   3.210   0.675   2.085 -0.0128 -0.7514  0.1096
 4179TIP3    H133952   3.120   0.645   2.080 -0.4086  0.3580  0.1832
 4179TIP3    H233953   3.259   0.615   2.029 -0.9402 -0.8546 -0.6209
 4180TIP3   OH233954   2.177   3.547  12.358  0.5977  0.1394  0.4662
 4180TIP3    H133955   2.159   3.604  12.432 -0.7843 -1.7068  1.6587
 4180TIP3    H233956   2.240   3.595  12.304  1.1275  1.8230  2.4754
 4181TIP3   OH233957   0.603   4.781  16.839 -0.1886  0.4290  0.1349
 4181TIP3    H133958   0.696   4.772  16.819 -0.4781 -0.6660 -0.7597
 4181TIP3    H233959   0.577   4.863  16.798 -0.0327 -0.1899 -1.2405
 4182TIP3   OH233960   6.729   3.449   4.488 -0.0314  0.3179 -0.5318
 4182TIP3    H133961   6.760   3.530   4.529  0.1102  0.6648 -1.3204
 4182TIP3    H233962   6.652   3.476   4.438  1.4990  0.5098 -2.9382
 4183TIP3   OH233963   0.432   5.539  14.894  0.3811 -1.0528 -0.2337
 4183TIP3    H133964   0.495   5.496  14.951  1.2510 -0.3762 -0.6646
 4183TIP3    H233965   0.485   5.597  14.838 -0.8149  2.3840  1.8409
 4184TIP3   OH233966   6.704   2.673   2.312 -0.1921  0.6209 -0.1245
 4184TIP3    H133967   6.745   2.649   2.396  0.4334 -0.6554 -0.7647
 4184TIP3    H233968   6.774   2.712   2.261 -0.9040  2.7551  0.4226
 4185TIP3   OH233969   1.235   3.214  12.099  0.3597  0.1966  0.2032
 4185TIP3    H133970   1.294   3.241  12.169  0.7531  0.0610 -0.0754
 4185TIP3    H233971   1.211   3.124  12.121  1.0283 -0.0872 -0.1955
 4186TIP3   OH233972   0.407   5.524   1.728  0.0296 -0.1448 -0.1263
 4186TIP3    H133973   0.379   5.448   1.676  0.4430 -2.0167  2.2240
 4186TIP3    H233974   0.339   5.589   1.711 -1.7257 -1.9108 -0.3596
 4187TIP3   OH233975   3.027   5.271   3.875 -0.4575 -0.1043  0.0819
 4187TIP3    H133976   3.110   5.317   3.860 -0.3318 -0.3776 -0.0834
 4187TIP3    H233977   3.051   5.178   3.871 -0.4828 -0.2093  1.6342
 4188TIP3   OH233978   5.968   2.766  11.526  0.0869 -0.4474  0.3560
 4188TIP3    H133979   6.009   2.853  11.533 -1.9127  0.6425 -0.4303
 4188TIP3    H233980   6.032   2.713  11.478  1.0142  0.8510  0.0992
 4189TIP3   OH233981   1.842   4.814   4.649 -0.3524 -0.0328  0.0820
 4189TIP3    H133982   1.823   4.721   4.659  1.2754 -0.3778  0.1285
 4189TIP3    H233983   1.855   4.845   4.739  2.1353 -0.4648 -0.0693
 4190TIP3   OH233984   6.194   4.866   2.856  0.5319 -0.0767 -0.8382
 4190TIP3    H133985   6.230   4.944   2.899  1.1017 -0.4938 -0.5263
 4190TIP3    H233986   6.127   4.834   2.917 -0.0176  0.4159 -1.1778
 4191TIP3   OH233987   1.861   5.254  15.340  0.6748 -0.2269 -0.3083
 4191TIP3    H133988   1.787   5.253  15.279  0.8401 -0.9739 -0.5035
 4191TIP3    H233989   1.893   5.164  15.341  0.3773 -0.3461  1.2672
 4192TIP3   OH233990   4.868   5.421  16.415  0.4217  0.0171  0.0006
 4192TIP3    H133991   4.914   5.396  16.495  0.9220 -0.4640 -0.4250
 4192TIP3    H233992   4.933   5.468  16.363 -0.2367  1.3798  0.3631
 4193TIP3   OH233993   5.954   0.561  13.472  0.3802  0.2449  0.0436
 4193TIP3    H133994   5.995   0.488  13.517  1.9208  0.6122 -0.6950
 4193TIP3    H233995   5.877   0.523  13.429 -0.3861 -0.3560  1.8632
 4194TIP3   OH233996   0.653   2.287  12.811  0.0999  0.2225  0.8293
 4194TIP3    H133997   0.715   2.260  12.743  1.6522  0.8278  1.9506
 4194TIP3    H233998   0.570   2.300  12.764  1.0819  0.4934 -0.9154
 4195TIP3   OH233999   0.777   4.747   5.040  0.1452  0.6254  0.1704
 4195TIP3    H134000   0.697   4.799   5.028 -0.5758  0.6249  3.7911
 4195TIP3    H234001   0.746   4.657   5.047  0.9063  0.1807 -1.5533
 4196TIP3   OH234002   1.558   3.391  15.244 -0.4926 -0.1918  0.3861
 4196TIP3    H134003   1.553   3.438  15.327  0.8752  1.0740 -0.1969
 4196TIP3    H234004   1.637   3.424  15.202 -1.1008 -0.8459 -1.3953
 4197TIP3   OH234005   1.769   4.315  12.275  0.7259 -0.0293  0.0548
 4197TIP3    H134006   1.839   4.341  12.335 -0.3369  0.6873  1.0241
 4197TIP3    H234007   1.748   4.226  12.302  1.4720 -0.3733 -0.4599
 4198TIP3   OH234008   4.602   5.635  14.376  0.1897 -0.1519 -0.4208
 4198TIP3    H134009   4.536   5.566  14.383 -0.0509 -0.1722 -2.2762
 4198TIP3    H234010   4.594   5.685  14.456  0.4509 -2.3401  1.0660
 4199TIP3   OH234011   2.825   2.218   0.743  0.3445 -0.2917  0.3472
 4199TIP3    H134012   2.765   2.165   0.690  0.1540  0.3449 -0.0807
 4199TIP3    H234013   2.828   2.173   0.828  0.3032 -1.0662 -0.0537
 4200TIP3   OH234014   2.255   3.185  17.177  0.4053 -0.3856 -0.1618
 4200TIP3    H134015   2.253   3.090  17.183  1.9631 -0.4703 -0.4199
 4200TIP3    H234016   2.165   3.210  17.157 -0.7908 -1.5177  3.1722
 4201TIP3   OH234017   1.410   1.811   3.991 -0.2719 -0.0524  0.3186
 4201TIP3    H134018   1.367   1.891   3.960  0.5789  0.3608  0.1870
 4201TIP3    H234019   1.451   1.836   4.073  0.5570 -0.1709 -0.0496
 4202TIP3   OH234020   4.265   3.554  16.089  0.3421 -0.0030 -0.5707
 4202TIP3    H134021   4.348   3.542  16.043 -0.3885  0.7103 -2.1601
 4202TIP3    H234022   4.218   3.619  16.036 -0.6643  0.6425  1.0589
 4203TIP3   OH234023   3.505   4.191  14.408 -0.0185 -0.2964 -0.3471
 4203TIP3    H134024   3.558   4.271  14.416  0.2482 -0.4065 -0.9904
 4203TIP3    H234025   3.502   4.174  14.314 -1.7618  0.0777 -0.3824
 4204TIP3   OH234026   0.467   2.518  13.695 -0.4628  0.4207  0.2222
 4204TIP3    H134027   0.382   2.543  13.660 -0.2151 -1.1526 -1.6887
 4204TIP3    H234028   0.483   2.580  13.766 -3.5788  0.2040  1.2639
 4205TIP3   OH234029   3.946   1.380   2.625  0.2189  0.3978 -0.0708
 4205TIP3    H134030   3.914   1.431   2.699  0.2078  1.1339 -0.5723
 4205TIP3    H234031   4.027   1.340   2.657 -0.6158 -0.5978  0.8509
 4206TIP3   OH234032   2.949   5.997   0.365 -0.4502 -0.8106  0.1479
 4206TIP3    H134033   2.891   5.951   0.306 -1.0388 -0.1299  0.1894
 4206TIP3    H234034   3.021   6.027   0.310 -1.0014 -0.1678 -0.2261
 4207TIP3   OH234035   1.914   6.676   0.458 -0.5071 -0.4014 -0.4642
 4207TIP3    H134036   1.926   6.679   0.552 -0.8944  1.7747 -0.4231
 4207TIP3    H234037   1.826   6.711   0.444 -0.3837 -0.5009 -1.6367
 4208TIP3   OH234038   2.742   6.241   3.640  0.3681  0.9815  0.5335
 4208TIP3    H134039   2.832   6.211   3.648 -0.4397 -3.0063 -2.4132
 4208TIP3    H234040   2.700   6.213   3.722  1.2998  0.7444  0.9394
 4209TIP3   OH234041   6.408   0.141   0.828 -0.4574  0.8140  0.3421
 4209TIP3    H134042   6.384   0.218   0.777 -1.2681  1.3148  1.4409
 4209TIP3    H234043   6.340   0.135   0.896  0.5324  0.1210  1.3046
 4210TIP3   OH234044   4.361   1.474  10.689 -0.7688 -0.1052  0.0434
 4210TIP3    H134045   4.365   1.504  10.780 -0.5898 -0.8736  0.2936
 4210TIP3    H234046   4.388   1.550  10.638 -0.2536  0.1466  0.6710
 4211TIP3   OH234047   5.331   5.276   2.720  0.2462  0.1483 -0.0575
 4211TIP3    H134048   5.291   5.358   2.749  2.7992  1.1999  0.7947
 4211TIP3    H234049   5.273   5.208   2.755 -1.2676  1.5415  0.2832
 4212TIP3   OH234050   1.886   0.547  16.430  0.0329 -0.4931 -0.1794
 4212TIP3    H134051   1.970   0.570  16.391 -1.6828  2.6592 -2.3509
 4212TIP3    H234052   1.887   0.590  16.516  1.3626 -2.2901  0.7882
 4213TIP3   OH234053   1.289   1.149   1.870  0.2647 -0.2047  0.2956
 4213TIP3    H134054   1.208   1.099   1.858 -1.3888  2.0988  0.9937
 4213TIP3    H234055   1.324   1.159   1.781 -0.6702 -0.5661 -0.1355
 4214TIP3   OH234056   0.596   1.740  11.331  0.3124  0.3028  0.6696
 4214TIP3    H134057   0.504   1.732  11.358  0.0320  1.5440  0.1290
 4214TIP3    H234058   0.618   1.831  11.347  0.6162  0.7029 -1.6918
 4215TIP3   OH234059   3.231   3.602  15.861  0.7168  0.1888 -0.1050
 4215TIP3    H134060   3.231   3.507  15.858  0.7486  0.1551  0.6673
 4215TIP3    H234061   3.218   3.630  15.771 -0.9519 -0.5562 -0.1228
 4216TIP3   OH234062   1.443   6.325   2.185 -0.3480  0.2814  0.3372
 4216TIP3    H134063   1.423   6.234   2.162 -0.1727  0.0636  0.9954
 4216TIP3    H234064   1.538   6.330   2.181 -0.4344  1.4314 -3.2131
 4217TIP3   OH234065   6.016   3.491  15.038  0.1298  0.1420  0.7923
 4217TIP3    H134066   6.095   3.497  14.985 -1.0744  2.1082 -0.9306
 4217TIP3    H234067   5.998   3.581  15.066 -1.9469 -0.0834  0.3862
 4218TIP3   OH234068   6.207   0.104  16.118  0.1214 -0.0115 -0.5531
 4218TIP3    H134069   6.248   0.147  16.193  0.2539  0.9959 -1.1848
 4218TIP3    H234070   6.237   0.013  16.122 -1.0059 -0.3416  1.4058
 4219TIP3   OH234071   2.763   1.794   5.530 -0.1826  0.4734  0.3140
 4219TIP3    H134072   2.804   1.820   5.613  0.6992  1.7268 -0.4833
 4219TIP3    H234073   2.813   1.717   5.502  1.2229  1.5678 -0.2991
 4220TIP3   OH234074   4.830   0.735  11.989 -0.3428  0.2218  0.0236
 4220TIP3    H134075   4.820   0.680  11.912 -0.5960  1.2310 -0.6935
 4220TIP3    H234076   4.904   0.698  12.036  0.6568  0.3328 -1.3920
 4221TIP3   OH234077   1.441   0.695   0.344 -0.0387 -0.2923 -0.0596
 4221TIP3    H134078   1.364   0.682   0.399 -0.3235  1.0106 -0.1313
 4221TIP3    H234079   1.480   0.608   0.336 -1.0680 -0.8246  0.6134
 4222TIP3   OH234080   6.289   4.143   5.257 -0.8319  0.4833  0.2623
 4222TIP3    H134081   6.271   4.109   5.345 -0.0462 -1.9455 -0.4303
 4222TIP3    H234082   6.208   4.130   5.209 -0.4219 -0.9502 -0.1086
 4223TIP3   OH234083   0.808   4.311  16.210  0.6587  0.0118 -0.6552
 4223TIP3    H134084   0.861   4.350  16.141 -0.2036 -0.8567 -1.8418
 4223TIP3    H234085   0.751   4.248  16.165  0.6773 -1.2197  0.9519
 4224TIP3   OH234086   2.105   4.632  14.603 -0.0029  0.5492 -0.2493
 4224TIP3    H134087   2.171   4.563  14.613 -1.7132 -1.3987 -1.4080
 4224TIP3    H234088   2.112   4.684  14.683  1.2660 -1.0882  0.7729
 4225TIP3   OH234089   5.134   5.610   0.463  0.2276  0.4835  0.1215
 4225TIP3    H134090   5.185   5.530   0.462 -1.5019 -0.6916 -1.3742
 4225TIP3    H234091   5.180   5.669   0.403  0.7904  0.1221  0.1902
 4226TIP3   OH234092   6.622   5.836   5.424 -0.0678  0.4295  0.5790
 4226TIP3    H134093   6.585   5.889   5.353 -3.1787 -0.5176  1.3353
 4226TIP3    H234094   6.674   5.770   5.378  0.1178  1.3729 -0.6416
 4227TIP3   OH234095   0.856   1.710  15.637  0.2408  0.5979 -0.0911
 4227TIP3    H134096   0.908   1.637  15.604 -1.4391 -0.9425  0.4494
 4227TIP3    H234097   0.805   1.739  15.561 -0.5774 -0.1822  0.1399
 4228TIP3   OH234098   5.018   0.401  13.009 -0.2148  0.0113  0.6551
 4228TIP3    H134099   4.983   0.482  12.971  1.5171  1.0452  1.1436
 4228TIP3    H234100   5.020   0.418  13.103  0.7480 -0.3401  0.7071
 4229TIP3   OH234101   0.160   5.229   3.737  0.1434 -0.5165  0.0779
 4229TIP3    H134102   0.166   5.158   3.673  0.3339 -0.8110  0.4211
 4229TIP3    H234103   0.078   5.211   3.784  0.9957 -1.4355  1.2554
 4230TIP3   OH234104   2.229   5.866  15.716  0.0726 -0.2563  0.0237
 4230TIP3    H134105   2.266   5.864  15.627 -2.4264  1.6405 -1.1716
 4230TIP3    H234106   2.147   5.819  15.709 -1.1037  1.5656  0.7757
 4231TIP3   OH234107   4.087   1.933  14.911  0.6090  0.1451 -0.6464
 4231TIP3    H134108   4.121   1.994  14.846  0.0371 -0.9934 -2.0620
 4231TIP3    H234109   3.992   1.946  14.910  0.4482 -0.9379 -1.1752
 4232TIP3   OH234110   5.903   5.337  16.918 -0.2799 -0.2102  0.4532
 4232TIP3    H134111   5.900   5.291  16.835 -0.9179  1.6617 -0.6348
 4232TIP3    H234112   5.996   5.339  16.941 -0.1298 -1.0063 -0.0447
 4233TIP3   OH234113   6.171   1.021  10.501 -0.2790 -0.2504  0.4269
 4233TIP3    H134114   6.081   1.014  10.470 -0.5321 -0.5412  1.1884
 4233TIP3    H234115   6.201   1.105  10.469 -0.1671 -0.9596 -1.4746
 4234TIP3   OH234116   6.661   0.210   4.629  0.3075 -0.0005 -0.1910
 4234TIP3    H134117   6.698   0.122   4.636  1.9164  0.6458 -0.1479
 4234TIP3    H234118   6.602   0.205   4.554 -0.9972 -1.5505  0.8557
 4235TIP3   OH234119   5.528   3.643  15.078  0.4132  0.1435  0.0068
 4235TIP3    H134120   5.534   3.668  15.170  0.4546  0.6403 -0.1283
 4235TIP3    H234121   5.619   3.632  15.050  0.3702 -1.2569  0.3531
 4236TIP3   OH234122   2.516   4.157  12.724  0.0396  0.3666  0.1036
 4236TIP3    H134123   2.580   4.136  12.792  0.0798 -0.3285 -0.1401
 4236TIP3    H234124   2.516   4.081  12.666 -1.6024 -0.0158  0.5435
 4237TIP3   OH234125   5.862   2.601   1.446 -0.9271 -0.2369  0.3048
 4237TIP3    H134126   5.900   2.514   1.455 -0.7483 -0.1595  0.3160
 4237TIP3    H234127   5.847   2.631   1.536  0.0875  0.2047  0.3400
 4238TIP3   OH234128   3.689   6.330   2.028  0.2904  0.5862  0.1871
 4238TIP3    H134129   3.646   6.314   1.944  1.1631  0.9837 -0.3604
 4238TIP3    H234130   3.630   6.388   2.075 -0.8040 -0.6540  0.3773
 4239TIP3   OH234131   1.593   6.169   1.235 -0.1820 -0.2493  0.0047
 4239TIP3    H134132   1.547   6.111   1.173  1.3175 -1.3762 -0.1082
 4239TIP3    H234133   1.677   6.187   1.193 -0.4687  1.7608  0.2148
 4240TIP3   OH234134   3.908   5.199  15.025 -0.3591 -0.3491  0.1133
 4240TIP3    H134135   3.970   5.142  14.980 -0.3461 -0.7008  0.5730
 4240TIP3    H234136   3.958   5.237  15.097 -0.9840 -1.5605  1.2178
 4241TIP3   OH234137   6.138   3.841  12.906 -0.0982  0.6750 -0.2146
 4241TIP3    H134138   6.051   3.802  12.897 -0.1580  0.3820  1.4207
 4241TIP3    H234139   6.122   3.935  12.915 -0.1283  0.8005 -1.4205
 4242TIP3   OH234140   3.145   4.386  16.928  0.3490  0.0951 -0.6929
 4242TIP3    H134141   3.153   4.456  16.992 -0.7308 -0.5670  0.2179
 4242TIP3    H234142   3.075   4.330  16.963 -0.8906  0.1696 -2.8801
 4243TIP3   OH234143   6.527   0.650  13.269 -0.5382  0.3382  0.3091
 4243TIP3    H134144   6.487   0.733  13.293 -0.6822  0.9225 -1.7727
 4243TIP3    H234145   6.475   0.618  13.196 -0.8014 -1.8857  1.3637
 4244TIP3   OH234146   1.994   0.868   0.265 -0.1178 -0.3438 -0.5243
 4244TIP3    H134147   1.923   0.871   0.330 -0.5143  0.6291 -0.9727
 4244TIP3    H234148   2.073   0.888   0.314 -0.2219 -0.9160 -0.1118
 4245TIP3   OH234149   4.244   5.867  11.920  0.1965  0.1739 -0.2999
 4245TIP3    H134150   4.295   5.921  11.859 -0.2180  0.1735 -0.6490
 4245TIP3    H234151   4.159   5.857  11.878  0.4681 -1.3229 -0.5779
 4246TIP3   OH234152   2.508   4.143   5.538  0.2835  0.1538  0.0782
 4246TIP3    H134153   2.472   4.059   5.509  0.5581  0.6169 -1.7447
 4246TIP3    H234154   2.489   4.146   5.632 -0.3676 -1.6156  0.0446
 4247TIP3   OH234155   6.040   0.153   2.117  0.4010 -0.2982  0.5561
 4247TIP3    H134156   6.115   0.101   2.088  0.3835  0.3664 -0.7518
 4247TIP3    H234157   5.964   0.107   2.083  0.1778 -1.0254  1.9658
 4248TIP3   OH234158   1.519   4.102  15.836  0.4549  0.2491 -0.4530
 4248TIP3    H134159   1.608   4.088  15.803  0.3444 -0.7337 -0.3767
 4248TIP3    H234160   1.515   4.195  15.857  0.7244  0.8006 -2.6326
 4249TIP3   OH234161   3.119   4.283   0.621 -0.1176  0.6884 -0.3812
 4249TIP3    H134162   3.210   4.305   0.642  0.0785  1.9969 -2.3229
 4249TIP3    H234163   3.111   4.190   0.642  2.0411  0.2485 -1.2406
 4250TIP3   OH234164   0.348   4.526  16.327 -0.1140  0.3879  0.2301
 4250TIP3    H134165   0.414   4.457  16.335  0.7371  1.1693  0.0345
 4250TIP3    H234166   0.273   4.493  16.377  0.3611 -0.5774  0.3259
 4251TIP3   OH234167   6.493   4.337   1.946 -0.2775 -0.1409  0.1275
 4251TIP3    H134168   6.490   4.392   2.024 -0.8134 -0.7464  0.5440
 4251TIP3    H234169   6.581   4.299   1.946  0.0233  0.5378 -0.0470
 4252TIP3   OH234170   6.657   3.310   6.817 -0.7036 -0.0227  0.3515
 4252TIP3    H134171   6.579   3.345   6.774 -1.3408 -2.4969 -0.6431
 4252TIP3    H234172   6.671   3.224   6.778  2.6606  0.3602  0.3624
 4253TIP3   OH234173   2.086   4.670   3.880 -0.4531  0.3286 -0.0821
 4253TIP3    H134174   2.168   4.657   3.928 -0.7617 -1.2818  0.0707
 4253TIP3    H234175   2.105   4.741   3.818  0.1332  2.0554  1.9595
 4254TIP3   OH234176   1.264   4.457   4.175 -0.3138  0.2047  0.3922
 4254TIP3    H134177   1.255   4.361   4.175 -0.7800  0.2458  0.7325
 4254TIP3    H234178   1.267   4.481   4.268 -0.5855  0.5558  0.3130
 4255TIP3   OH234179   3.617   5.108  13.574  0.6242  0.7212 -0.0908
 4255TIP3    H134180   3.550   5.104  13.506 -1.2360 -1.3911  1.6788
 4255TIP3    H234181   3.572   5.147  13.650  0.5237 -2.7093  1.8220
 4256TIP3   OH234182   2.020   6.005   2.502  0.4698  0.4277  0.5505
 4256TIP3    H134183   2.039   6.072   2.436  0.3944  0.8120  0.9180
 4256TIP3    H234184   1.983   6.054   2.576  2.7366  0.3487  1.8412
 4257TIP3   OH234185   4.829   3.760  13.701  0.4049  0.0572  0.3315
 4257TIP3    H134186   4.813   3.763  13.606  0.3163  0.1527  0.3490
 4257TIP3    H234187   4.753   3.804  13.739 -0.1822 -1.0670  0.5203
 4258TIP3   OH234188   0.384   4.887   2.004  0.1283 -0.5130 -0.1906
 4258TIP3    H134189   0.311   4.871   2.064  0.7681 -0.1679  0.7017
 4258TIP3    H234190   0.400   4.803   1.962 -0.2157 -0.8039  0.2526
 4259TIP3   OH234191   5.748   3.693   5.255 -0.0476 -0.7888 -0.8144
 4259TIP3    H134192   5.775   3.771   5.206 -0.8476  0.0608  0.0512
 4259TIP3    H234193   5.813   3.626   5.232  0.2580 -0.0772 -2.1104
 4260TIP3   OH234194   6.682   1.862   5.181  0.0246 -0.5766 -0.3997
 4260TIP3    H134195   6.694   1.795   5.248  3.2598 -0.8568 -1.1123
 4260TIP3    H234196   6.644   1.936   5.229  0.2917 -1.4788  1.2882
 4261TIP3   OH234197   0.045   0.123  15.078  0.4041  0.1156 -0.7362
 4261TIP3    H134198   0.102   0.185  15.123 -1.1365 -0.2790  1.9358
 4261TIP3    H234199   0.095   0.042  15.075 -0.4024 -0.6627  2.9395
 4262TIP3   OH234200   6.537   4.422   4.738 -0.1814  0.0851  0.1153
 4262TIP3    H134201   6.445   4.402   4.755  0.1102 -2.9564 -1.2926
 4262TIP3    H234202   6.586   4.372   4.803  0.5201 -1.3844 -1.4677
 4263TIP3   OH234203   5.077   1.579  12.977 -0.0171  0.2291  0.1140
 4263TIP3    H134204   5.018   1.526  12.923 -0.2650  0.1331  0.4751
 4263TIP3    H234205   5.046   1.668  12.967 -1.4757 -0.0378  1.8583
 4264TIP3   OH234206   3.761   3.743   3.075 -0.2351 -0.1499  0.1727
 4264TIP3    H134207   3.795   3.788   2.998  0.4378  0.8704  1.0300
 4264TIP3    H234208   3.778   3.651   3.059 -2.2146 -0.2365 -1.9201
 4265TIP3   OH234209   1.199   1.944  16.617  0.0034 -0.0040 -0.2149
 4265TIP3    H134210   1.127   1.933  16.555 -0.1867  2.1650 -0.4494
 4265TIP3    H234211   1.159   1.930  16.703 -1.3419  3.3124 -0.1565
 4266TIP3   OH234212   0.319   4.688  13.609 -0.0347 -0.1175  0.5873
 4266TIP3    H134213   0.314   4.766  13.553  1.4939 -0.2404  0.2123
 4266TIP3    H234214   0.350   4.721  13.693  1.5778 -0.3953  0.1410
 4267TIP3   OH234215   1.315   6.177  11.487  0.2145  0.1206  0.1744
 4267TIP3    H134216   1.384   6.201  11.549 -0.6271  1.9839  0.4406
 4267TIP3    H234217   1.357   6.187  11.401  1.0224 -1.3117  0.3658
 4268TIP3   OH234218   3.436   1.069  15.145 -0.0976 -0.1135 -0.2008
 4268TIP3    H134219   3.489   1.047  15.222 -0.7509 -0.9693  0.0171
 4268TIP3    H234220   3.473   1.015  15.075  1.3675  1.6371 -0.8605
 4269TIP3   OH234221   4.093   2.806   1.520 -0.3078  0.5767  0.0331
 4269TIP3    H134222   4.050   2.848   1.595 -0.9753  1.4344 -0.7999
 4269TIP3    H234223   4.186   2.806   1.543 -0.5939 -0.0742  1.2784
 4270TIP3   OH234224   1.875   0.238   1.133 -0.3260 -0.0106  0.1856
 4270TIP3    H134225   1.836   0.188   1.061 -0.6188 -0.2847  0.5362
 4270TIP3    H234226   1.803   0.288   1.170 -0.1169  0.3540  0.1088
 4271TIP3   OH234227   2.667   2.645  14.314  0.3792  0.1761 -0.0320
 4271TIP3    H134228   2.592   2.658  14.256 -1.3098 -1.8402  1.5482
 4271TIP3    H234229   2.704   2.562  14.285  0.5697  0.0080  0.6878
 4272TIP3   OH234230   0.731   3.904  14.792 -0.3838 -0.1489 -0.0607
 4272TIP3    H134231   0.821   3.892  14.763 -0.0999 -0.6621  0.9607
 4272TIP3    H234232   0.707   3.991  14.762  1.1376  0.8057  1.2901
 4273TIP3   OH234233   5.831   1.040  16.943 -0.1371  0.6168 -0.0116
 4273TIP3    H134234   5.799   1.082  16.863 -1.4860 -0.2973  0.0227
 4273TIP3    H234235   5.829   1.108  17.009 -2.4891  0.5108  0.0934
 4274TIP3   OH234236   3.191   2.583  14.927 -0.7090 -0.0882 -0.5745
 4274TIP3    H134237   3.214   2.662  14.878 -0.0822 -1.8493 -3.4071
 4274TIP3    H234238   3.255   2.578  14.997 -0.7467  1.8457 -0.3505
 4275TIP3   OH234239   3.846   0.671   1.024 -0.5164  0.2523  0.2457
 4275TIP3    H134240   3.784   0.730   0.982 -2.1142 -1.7620 -0.3996
 4275TIP3    H234241   3.829   0.681   1.118 -1.0380  0.5328  0.1265
 4276TIP3   OH234242   0.213   4.116  16.668  0.4936  0.0723 -0.0748
 4276TIP3    H134243   0.124   4.141  16.695  0.5358 -0.0905  0.2184
 4276TIP3    H234244   0.266   4.192  16.692  0.3257  0.4642 -0.9027
 4277TIP3   OH234245   0.327   4.859  16.071 -0.1465 -0.0664 -0.2153
 4277TIP3    H134246   0.280   4.924  16.018  2.5284  1.0156 -1.4308
 4277TIP3    H234247   0.416   4.894  16.079  0.5577 -2.0804  1.8073
 4278TIP3   OH234248   1.158   4.418   5.877 -0.2533 -0.1303  0.3882
 4278TIP3    H134249   1.145   4.329   5.910 -1.6461 -0.1975 -0.2730
 4278TIP3    H234250   1.094   4.471   5.925 -4.5217 -0.6896 -3.8976
 4279TIP3   OH234251   2.217   2.609  13.199  0.3121  0.6131 -0.0670
 4279TIP3    H134252   2.157   2.663  13.250 -0.7532  0.7942 -1.4378
 4279TIP3    H234253   2.166   2.532  13.175  1.4059 -0.4047  0.7606
 4280TIP3   OH234254   2.111   6.588  15.294  0.1054 -0.0230 -0.2953
 4280TIP3    H134255   2.195   6.630  15.275 -0.6297  1.8304  0.3028
 4280TIP3    H234256   2.129   6.529  15.366  0.5666  1.8635  1.2174
 4281TIP3   OH234257   3.593   3.948   6.368  0.0789 -0.1478  0.2060
 4281TIP3    H134258   3.576   4.042   6.381  0.6927  0.0119 -0.1073
 4281TIP3    H234259   3.507   3.910   6.350 -0.4107  0.0786  1.9399
 4282TIP3   OH234260   6.712   1.654  13.752  0.7231  0.2044  0.2665
 4282TIP3    H134261   6.691   1.676  13.661 -0.6024  1.0458  0.7562
 4282TIP3    H234262   6.801   1.618  13.747  0.2732 -0.8119 -1.5062
 4283TIP3   OH234263   6.339   5.014  16.278 -0.2456  0.2249  0.0352
 4283TIP3    H134264   6.285   4.980  16.349  0.7918  1.7441  1.6348
 4283TIP3    H234265   6.427   5.020  16.315  0.1429  1.9718 -1.0668
 4284TIP3   OH234266   0.959   1.603  16.866  0.1989  0.6233 -0.5989
 4284TIP3    H134267   0.939   1.647  16.948  0.2566  2.1811 -1.3845
 4284TIP3    H234268   1.036   1.549  16.885  0.1790  0.9298  0.3708
 4285TIP3   OH234269   4.220   6.185   2.011  0.7352 -0.0912 -0.1290
 4285TIP3    H134270   4.292   6.152   2.064  1.3752  1.1564 -0.1710
 4285TIP3    H234271   4.144   6.186   2.070  0.7682 -1.3112 -0.0556
 4286TIP3   OH234272   2.430   3.228   4.720  0.5052  0.5771 -0.5556
 4286TIP3    H134273   2.388   3.234   4.806  1.6015  1.2586 -0.0463
 4286TIP3    H234274   2.520   3.257   4.735  1.3015 -1.1826 -1.5217
 4287TIP3   OH234275   1.521   1.084  13.131  0.2422 -0.4345 -0.2169
 4287TIP3    H134276   1.526   1.116  13.041  0.0833 -0.4105 -0.2184
 4287TIP3    H234277   1.594   1.125  13.176  1.4240 -1.8374 -0.7588
 4288TIP3   OH234278   4.503   1.344  12.022  0.5675  0.0352 -0.2113
 4288TIP3    H134279   4.466   1.422  12.064  0.3620 -0.7414  1.1193
 4288TIP3    H234280   4.555   1.302  12.091  1.2949 -0.6031 -1.1292
 4289TIP3   OH234281   5.666   1.603  15.059  0.5161  0.3869  0.9776
 4289TIP3    H134282   5.598   1.544  15.091  0.8321  0.5220  1.9123
 4289TIP3    H234283   5.654   1.684  15.108 -0.1633  1.2787 -0.5723
 4290TIP3   OH234284   6.016   5.825   5.828 -1.2653  0.4532  0.0146
 4290TIP3    H134285   5.944   5.813   5.891 -0.5090 -0.0262  0.8216
 4290TIP3    H234286   6.095   5.801   5.878 -0.1076  4.0451  0.2100
 4291TIP3   OH234287   6.062   5.077   5.837  0.4029 -0.2466 -0.8201
 4291TIP3    H134288   6.017   5.005   5.794 -0.9454  0.7934 -1.2233
 4291TIP3    H234289   5.992   5.132   5.871  1.3493  1.5414 -1.6284
 4292TIP3   OH234290   3.977   3.110  12.608  0.7571 -0.4920  0.0331
 4292TIP3    H134291   4.061   3.156  12.611  0.3636  0.1972  0.8245
 4292TIP3    H234292   3.929   3.153  12.537  1.1076 -0.9659 -0.5002
 4293TIP3   OH234293   0.641   5.951   5.555  1.1179 -0.7989  0.2935
 4293TIP3    H134294   0.714   6.012   5.563 -0.0401  0.5944  0.6853
 4293TIP3    H234295   0.626   5.920   5.644  0.8527 -0.6119  0.3155
 4294TIP3   OH234296   5.554   1.968  13.741  0.0531  0.5651 -0.0097
 4294TIP3    H134297   5.504   1.886  13.743 -1.9326  1.7047 -0.3498
 4294TIP3    H234298   5.645   1.940  13.743 -0.5675 -1.6235  0.6784
 4295TIP3   OH234299   3.364   6.050  12.306 -0.5578  0.0618 -0.0871
 4295TIP3    H134300   3.410   5.976  12.268 -2.4154 -0.3633 -1.6390
 4295TIP3    H234301   3.294   6.011  12.358  0.7338  0.6960  2.3054
 4296TIP3   OH234302   0.909   3.678  12.374 -0.5539 -0.1045 -0.1597
 4296TIP3    H134303   0.993   3.659  12.333  0.3584  1.1423  1.0318
 4296TIP3    H234304   0.910   3.627  12.455 -0.4183  0.7812  0.4138
 4297TIP3   OH234305   6.224   1.232   1.234 -0.5336  0.3127 -0.4833
 4297TIP3    H134306   6.204   1.173   1.161 -0.8125 -0.1487 -0.0383
 4297TIP3    H234307   6.303   1.278   1.206 -1.4385  1.2113 -1.7130
 4298TIP3   OH234308   0.845   3.565   3.479 -0.4944  0.2203 -0.1281
 4298TIP3    H134309   0.831   3.640   3.422  1.1433  0.1851 -0.6492
 4298TIP3    H234310   0.912   3.594   3.541 -0.5231 -0.5035  0.2509
 4299TIP3   OH234311   3.064   2.801   6.323 -0.1559 -0.3236 -0.1776
 4299TIP3    H134312   3.057   2.764   6.411  1.6644  1.1420  0.6637
 4299TIP3    H234313   3.056   2.896   6.336  0.4436 -0.0558 -1.5303
 4300TIP3   OH234314   6.537   5.841   2.584 -0.0315  0.5360  0.6257
 4300TIP3    H134315   6.621   5.876   2.615  0.1959  0.7062 -0.1472
 4300TIP3    H234316   6.512   5.777   2.650 -0.2607  1.8660  1.8725
 4301TIP3   OH234317   5.069   4.620   4.803  0.2879 -0.4800  0.0713
 4301TIP3    H134318   4.994   4.564   4.788  1.1958 -2.2031  1.5406
 4301TIP3    H234319   5.047   4.669   4.883  0.8708 -1.3513  0.7924
 4302TIP3   OH234320   6.757   1.198  14.082 -0.2402  0.1104  0.2511
 4302TIP3    H134321   6.695   1.247  14.028  0.3421  0.5798  0.0055
 4302TIP3    H234322   6.740   1.106  14.061  0.3794  0.3050 -1.1664
 4303TIP3   OH234323   1.824   3.422   1.286 -0.5389  0.2840 -0.1032
 4303TIP3    H134324   1.874   3.496   1.252 -1.1707  0.0793 -1.5621
 4303TIP3    H234325   1.867   3.400   1.369  1.7803  0.1478 -1.2590
 4304TIP3   OH234326   1.074   6.745   4.991 -0.3531 -0.3390  0.0740
 4304TIP3    H134327   1.157   6.770   4.951 -0.8665 -0.9331 -1.4216
 4304TIP3    H234328   1.097   6.677   5.054  0.5314  0.9774  1.2546
 4305TIP3   OH234329   5.684   3.478   5.763 -0.0971  0.7297  0.1516
 4305TIP3    H134330   5.606   3.525   5.791 -2.4195 -2.4398 -0.3930
 4305TIP3    H234331   5.754   3.511   5.820 -1.8592  3.4233  0.9392
 4306TIP3   OH234332   2.046   4.943   0.703  0.5552  0.5434 -0.6153
 4306TIP3    H134333   2.079   4.895   0.626  1.5930  1.7737 -0.9714
 4306TIP3    H234334   2.106   4.919   0.773  0.3578  0.3917 -0.4993
 4307TIP3   OH234335   0.328   4.681   5.513 -0.4838  0.3387  0.3431
 4307TIP3    H134336   0.400   4.638   5.560  0.1582  0.6281 -0.3579
 4307TIP3    H234337   0.259   4.616   5.510  0.4082 -0.6064 -0.5634
 4308TIP3   OH234338   5.060   0.459  10.735  0.1573 -0.2967 -0.2855
 4308TIP3    H134339   5.098   0.371  10.726 -1.2619 -0.8417 -1.2069
 4308TIP3    H234340   5.009   0.472  10.655 -0.3644  1.0202  0.2311
 4309TIP3   OH234341   0.230   5.757   4.883 -0.3948  0.0775  0.5490
 4309TIP3    H134342   0.313   5.728   4.922 -0.2664 -0.7770 -0.3241
 4309TIP3    H234343   0.210   5.691   4.818 -0.4823  1.5729 -1.0113
 4310TIP3   OH234344   6.116   0.661   2.559 -0.2958  0.1673  0.1521
 4310TIP3    H134345   6.066   0.743   2.555  0.0989  0.4026  0.0565
 4310TIP3    H234346   6.171   0.663   2.481 -0.1099 -0.0761  0.2769
 4311TIP3   OH234347   5.058   2.411   0.239  1.0763 -0.3284 -0.4384
 4311TIP3    H134348   4.974   2.456   0.241  1.0835 -0.3362  0.2461
 4311TIP3    H234349   5.092   2.419   0.328  2.4340  0.8739 -1.0087
 4312TIP3   OH234350   5.947   1.243  11.226  0.2262  0.2536 -0.1867
 4312TIP3    H134351   5.855   1.255  11.203 -0.1125  0.1582  1.0337
 4312TIP3    H234352   5.989   1.327  11.205 -0.4387  0.7888  0.5748
 4313TIP3   OH234353   6.211   3.188   4.134  0.2424  0.4556  0.2838
 4313TIP3    H134354   6.297   3.153   4.107  0.6099 -0.0998  1.9801
 4313TIP3    H234355   6.194   3.261   4.075  0.2390 -1.5462 -2.3542
 4314TIP3   OH234356   4.547   1.328  15.177 -0.2416 -0.3798  0.0082
 4314TIP3    H134357   4.517   1.390  15.111  0.5620 -0.4900 -0.4805
 4314TIP3    H234358   4.580   1.253  15.127  2.9914  0.6696  0.3168
 4315TIP3   OH234359   0.743   6.596  14.355  0.4539 -0.1820  0.0609
 4315TIP3    H134360   0.750   6.678  14.307  0.2206  1.0881  2.0867
 4315TIP3    H234361   0.766   6.619  14.445 -1.9736 -1.7818  1.1955
 4316TIP3   OH234362   0.538   1.446   5.603  0.5516  0.1890  0.3114
 4316TIP3    H134363   0.483   1.410   5.534  0.9828  1.7865 -0.9375
 4316TIP3    H234364   0.540   1.379   5.671 -1.3025 -0.7101 -0.4742
 4317TIP3   OH234365   2.836   0.417  12.267 -0.1800 -0.2479  0.2575
 4317TIP3    H134366   2.756   0.436  12.217  0.6874  1.3027 -0.6347
 4317TIP3    H234367   2.826   0.466  12.348  0.5366  1.3718 -0.5715
 4318TIP3   OH234368   3.887   5.773   2.180 -0.3244  0.4601 -0.1335
 4318TIP3    H134369   3.839   5.848   2.145 -0.0142  1.5471  1.6169
 4318TIP3    H234370   3.909   5.799   2.270  0.0486 -1.6254  0.4317
 4319TIP3   OH234371   0.011   3.631  14.411 -0.7378 -0.3219  0.3728
 4319TIP3    H134372   0.063   3.574  14.355 -2.3342 -1.0528 -0.4014
 4319TIP3    H234373  -0.065   3.654  14.359 -0.7554  1.5207  1.1280
 4320TIP3   OH234374   4.197   5.953   4.252 -0.8530  0.6428 -0.1888
 4320TIP3    H134375   4.254   5.997   4.315 -1.6724  0.9172  0.3822
 4320TIP3    H234376   4.254   5.932   4.178  0.5568 -1.1297  1.2921
 4321TIP3   OH234377   5.708   0.369  10.768  0.5926  0.0248 -0.1982
 4321TIP3    H134378   5.705   0.364  10.672 -1.7500  0.9791 -0.2296
 4321TIP3    H234379   5.678   0.457  10.789 -0.1833 -0.5963  1.4611
 4322TIP3   OH234380   5.021   1.267  14.473  0.3078 -0.2037 -0.4685
 4322TIP3    H134381   4.993   1.305  14.390 -0.9840  4.0284  1.6313
 4322TIP3    H234382   5.115   1.284  14.477  0.1692  0.6403 -0.6020
 4323TIP3   OH234383   6.739   5.481   6.547 -0.0617 -0.1572  0.2879
 4323TIP3    H134384   6.778   5.560   6.509  1.1575 -0.6963  0.3793
 4323TIP3    H234385   6.726   5.502   6.639  0.8514 -0.2603  0.4523
 4324TIP3   OH234386   3.871   0.051  14.924 -0.6811  0.2027 -0.5254
 4324TIP3    H134387   3.838  -0.033  14.892  0.4550 -0.7692  0.7450
 4324TIP3    H234388   3.882   0.104  14.845 -0.4220 -1.2101 -1.4667
 4325TIP3   OH234389   1.276   6.182   4.083  0.1693 -0.2372  0.1099
 4325TIP3    H134390   1.199   6.143   4.042 -0.2159 -2.3235  2.5528
 4325TIP3    H234391   1.257   6.179   4.177  2.9759 -0.2842  0.7561
 4326TIP3   OH234392   2.271   2.945  13.086  0.2270  0.1341 -0.5141
 4326TIP3    H134393   2.308   2.994  13.159  0.1059  0.0474 -0.3916
 4326TIP3    H234394   2.206   2.887  13.127  0.0401  0.2028 -0.7095
 4327TIP3   OH234395   6.673   0.732  12.631  0.4129 -0.2974 -0.0128
 4327TIP3    H134396   6.601   0.670  12.620 -0.0457  0.3679 -0.8604
 4327TIP3    H234397   6.749   0.687  12.595 -0.1540  0.0568 -1.7462
 4328TIP3   OH234398   1.421   3.448   3.083  0.0148  0.4399  0.1737
 4328TIP3    H134399   1.494   3.504   3.054 -0.0391  0.4858  0.1271
 4328TIP3    H234400   1.443   3.361   3.049  0.4086  0.3002  0.7703
 4329TIP3   OH234401   0.894   0.803  14.201  0.0109  0.0676  0.4174
 4329TIP3    H134402   0.967   0.769  14.149 -0.7084 -1.0504  0.1053
 4329TIP3    H234403   0.926   0.886  14.235  1.1989 -0.0953 -0.2366
 4330TIP3   OH234404   6.313   3.803  13.087  0.2290  0.0925 -0.1754
 4330TIP3    H134405   6.246   3.816  13.020  0.4765 -0.5255 -0.5559
 4330TIP3    H234406   6.264   3.787  13.168 -0.1213 -1.4439 -0.6524
 4331TIP3   OH234407   0.020   6.749  12.052 -0.1875 -0.1155 -0.0631
 4331TIP3    H134408   0.050   6.693  11.980  1.0867 -0.1477  0.4685
 4331TIP3    H234409   0.099   6.796  12.080 -1.2080  1.8687 -0.4168
 4332TIP3   OH234410   5.770   2.672   5.259  0.1058  0.1272  0.3767
 4332TIP3    H134411   5.800   2.717   5.338  1.1617  0.0636  0.0329
 4332TIP3    H234412   5.779   2.579   5.279 -0.6480  0.0931  0.5592
 4333TIP3   OH234413   6.234   0.146  15.167 -0.2186  0.2804  0.0428
 4333TIP3    H134414   6.211   0.062  15.206 -1.1095  0.1874 -0.6353
 4333TIP3    H234415   6.289   0.189  15.232  1.4943 -1.4306 -0.2030
 4334TIP3   OH234416   1.531   3.207  12.512  0.8335 -0.4348  0.0938
 4334TIP3    H134417   1.556   3.190  12.421  0.1588  0.2642 -0.2387
 4334TIP3    H234418   1.605   3.254  12.549  0.5535  0.4909 -0.5015
 4335TIP3   OH234419   0.610   0.516   4.570  0.1972 -0.4531  0.0974
 4335TIP3    H134420   0.531   0.484   4.525  0.2256  1.2652 -1.3020
 4335TIP3    H234421   0.576   0.572   4.640  0.1428 -0.3059 -0.0435
 4336TIP3   OH234422   4.806   4.106  11.799  0.9538  0.4301  0.3422
 4336TIP3    H134423   4.827   4.013  11.796  2.0820  0.6867 -0.2490
 4336TIP3    H234424   4.891   4.150  11.806  0.4968  1.4501 -0.2135
 4337TIP3   OH234425   5.235   4.101  11.814 -0.6663 -0.2215 -0.0907
 4337TIP3    H134426   5.311   4.106  11.872 -0.5229 -0.4458 -0.2580
 4337TIP3    H234427   5.213   4.008  11.811 -2.1996  0.0205  1.5817
 4338TIP3   OH234428   2.410   2.108   1.737 -0.0512 -0.5541  0.6066
 4338TIP3    H134429   2.500   2.101   1.768  1.0171 -1.1854 -2.3267
 4338TIP3    H234430   2.400   2.035   1.676 -1.4406  1.3465 -1.5998
 4339TIP3   OH234431   6.245   2.718  13.173 -0.1137  0.2783 -0.0407
 4339TIP3    H134432   6.244   2.791  13.112  0.9501  1.7151  1.5524
 4339TIP3    H234433   6.189   2.746  13.245  0.8574 -0.1480  0.9081
 4340TIP3   OH234434   0.427   0.176   4.351  0.0408  0.5360  0.0822
 4340TIP3    H134435   0.456   0.119   4.279 -0.9520 -0.4536  0.4445
 4340TIP3    H234436   0.394   0.254   4.307 -0.2450  0.0886 -0.5240
 4341TIP3   OH234437   0.536   3.307   2.330 -0.7842  0.2405 -0.3708
 4341TIP3    H134438   0.443   3.302   2.310 -0.5846  1.9171 -1.9364
 4341TIP3    H234439   0.548   3.394   2.369  0.1440  0.0820 -0.2860
 4342TIP3   OH234440   0.848   3.260   4.978  0.0884  0.5798 -0.4410
 4342TIP3    H134441   0.787   3.292   4.912 -0.2601 -1.5691 -1.2227
 4342TIP3    H234442   0.798   3.263   5.060 -0.4246  0.6294 -0.7544
 4343TIP3   OH234443   4.481   1.552  15.014  0.0342  0.1112 -0.1564
 4343TIP3    H134444   4.422   1.595  14.953 -0.5219 -0.1662  0.1794
 4343TIP3    H234445   4.562   1.602  15.009 -0.5641  1.1195  0.1417
 4344TIP3   OH234446   2.923   5.491  16.565  0.7448 -0.2580  0.3753
 4344TIP3    H134447   2.911   5.529  16.478  1.5855  0.5703  0.6047
 4344TIP3    H234448   2.834   5.482  16.600  0.4464  0.0902 -0.2765
 4345TIP3   OH234449   3.848   5.761   2.853 -0.3148 -0.1692 -0.2942
 4345TIP3    H134450   3.925   5.780   2.800 -1.0406  0.1848 -1.2516
 4345TIP3    H234451   3.880   5.764   2.944  0.6801  0.4919 -0.6467
 4346TIP3   OH234452   3.648   3.665  12.922  0.0446 -0.0626  0.4802
 4346TIP3    H134453   3.662   3.575  12.952  1.2329 -0.5370 -1.3490
 4346TIP3    H234454   3.638   3.657  12.827 -2.3792  1.4845  0.5104
 4347TIP3   OH234455   2.194   5.216  13.177 -0.3001 -0.4819 -0.3038
 4347TIP3    H134456   2.154   5.239  13.260  0.4512 -0.2466  0.0036
 4347TIP3    H234457   2.182   5.121  13.170  1.9952 -0.9805  1.3942
 4348TIP3   OH234458   5.335   6.003  14.281 -0.1433 -0.5441 -0.4103
 4348TIP3    H134459   5.270   5.965  14.340  0.3475 -0.5177  0.1620
 4348TIP3    H234460   5.405   5.938  14.278  0.8298  0.4020  0.8035
 4349TIP3   OH234461   5.343   2.153  13.887 -0.5078 -0.5266 -0.8036
 4349TIP3    H134462   5.357   2.140  13.793 -3.5660 -0.7589 -1.3130
 4349TIP3    H234463   5.250   2.174  13.895  0.2550  2.4645  1.9256
 4350TIP3   OH234464   3.210   5.278  14.921 -0.3346 -0.5228  0.7998
 4350TIP3    H134465   3.261   5.316  14.849  0.2253  0.3909  1.6579
 4350TIP3    H234466   3.267   5.210  14.957 -0.6733 -1.0799  0.3069
 4351TIP3   OH234467   0.387   5.296   3.426  0.5166  0.4148  0.6055
 4351TIP3    H134468   0.436   5.248   3.360 -0.3041 -0.4494  0.6105
 4351TIP3    H234469   0.437   5.281   3.507  0.3499 -0.3238  0.5816
 4352TIP3   OH234470   6.204   5.121  14.552 -0.0029  0.5004 -0.0537
 4352TIP3    H134471   6.203   5.053  14.486  1.5923 -0.1249  0.5245
 4352TIP3    H234472   6.250   5.082  14.627  1.7053  2.4438 -0.0055
 4353TIP3   OH234473   2.065   2.255   1.446  0.2737  0.5571  0.2142
 4353TIP3    H134474   2.161   2.257   1.447  0.3453  3.1110  2.9485
 4353TIP3    H234475   2.041   2.229   1.535 -1.4815  2.3043  0.3218
 4354TIP3   OH234476   1.502   6.281  17.166  0.1948 -0.3825  0.0642
 4354TIP3    H134477   1.490   6.201  17.217 -1.5806 -0.1457  0.0820
 4354TIP3    H234478   1.430   6.280  17.102 -0.0728  1.3319  0.2744
 4355TIP3   OH234479   0.835   6.391  11.619 -0.3985 -0.1261  0.2142
 4355TIP3    H134480   0.803   6.345  11.697 -0.0470  1.8021  1.5648
 4355TIP3    H234481   0.928   6.407  11.636 -0.4596  0.8679 -0.2891
 4356TIP3   OH234482   3.013   2.218   3.590 -0.3682 -0.3819 -0.1539
 4356TIP3    H134483   3.093   2.270   3.581  0.1427 -0.9015  1.0567
 4356TIP3    H234484   2.944   2.282   3.605 -0.3939  0.1382 -2.2775
 4357TIP3   OH234485   5.389   6.625  16.142  0.0762 -0.1977 -0.1150
 4357TIP3    H134486   5.403   6.560  16.074  0.6216 -2.3339  1.8994
 4357TIP3    H234487   5.456   6.606  16.207 -0.3526  1.8154  1.0015
 4358TIP3   OH234488   5.423   1.681   0.847  0.0961  0.2860 -0.2482
 4358TIP3    H134489   5.479   1.747   0.808  1.6240 -1.5449 -1.3008
 4358TIP3    H234490   5.470   1.654   0.926 -0.6141  0.5514  0.2795
 4359TIP3   OH234491   5.741   3.236   3.984  0.5215  0.2955 -0.4995
 4359TIP3    H134492   5.761   3.318   4.028  0.3921  0.4874 -0.7909
 4359TIP3    H234493   5.652   3.248   3.951  0.3418 -0.1229 -0.1779
 4360TIP3   OH234494   1.770   6.028  15.729 -0.0400 -0.0070 -0.4598
 4360TIP3    H134495   1.770   5.989  15.816  2.2772 -0.2627 -0.5129
 4360TIP3    H234496   1.822   6.107  15.738 -0.8548  0.6467 -1.3518
 4361TIP3   OH234497   0.082   0.810   5.975  0.1990  0.0530 -0.0428
 4361TIP3    H134498   0.125   0.770   6.051  1.1853 -0.1856 -0.7095
 4361TIP3    H234499   0.039   0.888   6.011  0.2125 -0.3352  0.8527
 4362TIP3   OH234500   4.751   1.214   3.616  0.4339  0.0028  0.1670
 4362TIP3    H134501   4.837   1.224   3.576  0.7497 -0.8399  0.6171
 4362TIP3    H234502   4.759   1.137   3.673 -0.6911 -0.2650 -0.0000
 4363TIP3   OH234503   2.739   2.137  14.877 -0.7256  0.2474  0.5098
 4363TIP3    H134504   2.721   2.143  14.971 -2.5842  0.6913  0.1617
 4363TIP3    H234505   2.676   2.196  14.836 -2.4524 -2.5721 -1.2433
 4364TIP3   OH234506   4.018   0.614  13.554 -0.4098  0.0799 -0.3291
 4364TIP3    H134507   3.966   0.553  13.501  0.0146 -0.4835 -0.1002
 4364TIP3    H234508   4.091   0.561  13.587  1.5600  1.3090 -2.3857
 4365TIP3   OH234509   4.287   1.675   3.488  0.5486  0.0758 -0.9152
 4365TIP3    H134510   4.322   1.594   3.451  1.6281 -0.2755  0.7677
 4365TIP3    H234511   4.301   1.667   3.582  0.0022  1.9131 -0.6245
 4366TIP3   OH234512   1.871   5.597   4.858 -0.4657 -0.4301 -0.7465
 4366TIP3    H134513   1.785   5.639   4.847  0.0633  1.3178  1.2479
 4366TIP3    H234514   1.851   5.511   4.896 -1.3073  0.6452  1.3964
 4367TIP3   OH234515   0.048   3.714   3.274  0.0420 -0.2642  0.8045
 4367TIP3    H134516   0.116   3.706   3.207  0.6497  1.2635  1.1844
 4367TIP3    H234517   0.096   3.732   3.355 -0.7371 -0.8430  1.4106
 4368TIP3   OH234518   5.287   4.488   4.611 -0.0819  0.3380 -0.6440
 4368TIP3    H134519   5.359   4.439   4.570  0.2419  0.6174 -0.4184
 4368TIP3    H234520   5.291   4.575   4.571 -1.7869 -0.3141 -2.3794
 4369TIP3   OH234521   0.264   6.706   4.900  0.6794  0.1948  0.1776
 4369TIP3    H134522   0.318   6.772   4.941  0.3370 -0.7048  2.1892
 4369TIP3    H234523   0.304   6.691   4.814  2.5770  0.7835  0.9267
 4370TIP3   OH234524   5.389   1.276  15.571  0.5436 -0.5149 -0.1211
 4370TIP3    H134525   5.395   1.270  15.666 -0.7061  0.2217  0.0139
 4370TIP3    H234526   5.462   1.222  15.540  1.2969 -0.3323  1.2476
 4371TIP3   OH234527   4.351   4.938   0.665 -0.6316 -0.5784  0.4352
 4371TIP3    H134528   4.431   4.908   0.709 -0.3588  0.9930  1.0927
 4371TIP3    H234529   4.304   4.987   0.733 -0.7767  0.9054 -0.6997
 4372TIP3   OH234530   6.252   1.444  14.400 -0.0414 -0.2199 -0.2400
 4372TIP3    H134531   6.198   1.488  14.466  0.6565 -1.0174  0.9015
 4372TIP3    H234532   6.235   1.351  14.414  1.6780 -0.5036  0.2348
 4373TIP3   OH234533   4.898   1.037  16.086  0.5914 -0.1378 -0.0257
 4373TIP3    H134534   4.866   0.967  16.030  1.1196 -0.4582  0.0689
 4373TIP3    H234535   4.835   1.108  16.074  1.5445  0.4050 -2.2602
 4374TIP3   OH234536   1.258   2.895  10.176 -0.2765  0.4973  0.3506
 4374TIP3    H134537   1.229   2.968  10.230  2.2540  1.1441  0.9695
 4374TIP3    H234538   1.277   2.825  10.239 -3.4242 -1.1260 -0.2747
 4375TIP3   OH234539   2.112   4.126   1.738  0.0313  0.3234  0.2287
 4375TIP3    H134540   2.188   4.120   1.680  0.2062  0.5603  0.4326
 4375TIP3    H234541   2.038   4.103   1.682  0.0667  1.5334 -0.3573
 4376TIP3   OH234542   5.433   1.694  14.075 -0.0444 -0.0109 -0.2884
 4376TIP3    H134543   5.410   1.688  13.982  0.3970  0.2626 -0.4192
 4376TIP3    H234544   5.527   1.677  14.078  0.2008  1.2567 -0.0556
 4377TIP3   OH234545   4.936   0.713   1.145 -0.1033  0.8007  0.3805
 4377TIP3    H134546   4.859   0.673   1.105  2.1106 -3.4593 -0.2076
 4377TIP3    H234547   4.916   0.717   1.238 -0.5785 -1.9342  0.4907
 4378TIP3   OH234548   2.852   3.644   3.472 -0.7634  0.1902 -0.1499
 4378TIP3    H134549   2.796   3.646   3.395 -0.8227 -3.4921 -0.4012
 4378TIP3    H234550   2.938   3.670   3.440 -0.8312 -1.0984 -1.5045
 4379TIP3   OH234551   2.736   2.334  15.813  0.5748  0.0451 -0.1038
 4379TIP3    H134552   2.806   2.397  15.793  0.8921  0.2028  1.3812
 4379TIP3    H234553   2.772   2.249  15.786  1.4308  0.1056  0.7686
 4380TIP3   OH234554   3.613   5.911  11.160  0.0097 -0.0672 -0.0212
 4380TIP3    H134555   3.678   5.849  11.194  0.7106  0.9141  0.4707
 4380TIP3    H234556   3.534   5.858  11.147  0.9801 -1.3438 -0.9033
 4381TIP3   OH234557   4.912   1.725  16.253  0.2621 -0.1550 -0.3347
 4381TIP3    H134558   4.944   1.709  16.165  1.6855  0.2419  0.0842
 4381TIP3    H234559   4.964   1.668  16.309 -0.4614 -0.2357  0.2866
 4382TIP3   OH234560   4.061   1.849  13.691  0.4351  0.0333 -0.3626
 4382TIP3    H134561   4.124   1.900  13.641 -0.4535  2.5882  0.9330
 4382TIP3    H234562   3.987   1.908  13.706  0.1546 -0.9076  2.9176
 4383TIP3   OH234563   3.544   2.025  12.014 -0.0216  0.9324 -0.1931
 4383TIP3    H134564   3.538   1.932  11.992  4.2371  0.7540 -1.4644
 4383TIP3    H234565   3.532   2.070  11.931  0.4684  1.3162 -0.0596
 4384TIP3   OH234566   4.086   3.507  14.950 -0.0468  0.5328 -0.0366
 4384TIP3    H134567   4.048   3.591  14.977  0.3181  0.4353  0.8286
 4384TIP3    H234568   4.121   3.523  14.862 -1.2962  0.8643 -0.4828
 4385TIP3   OH234569   5.177   5.216   4.096  0.3278  0.2715  0.3307
 4385TIP3    H134570   5.207   5.130   4.127  1.1384  1.3042  2.6764
 4385TIP3    H234571   5.128   5.252   4.170  1.4013  2.4844  0.0394
 4386TIP3   OH234572   2.923   4.733  13.748  0.2482  0.1659 -0.3552
 4386TIP3    H134573   2.982   4.680  13.801  0.0258 -0.1923 -0.4628
 4386TIP3    H234574   2.957   4.726  13.659  0.4385  0.5133 -0.3122
 4387TIP3   OH234575   5.759   4.228  13.745 -0.8474  0.3818 -0.4935
 4387TIP3    H134576   5.819   4.301  13.760 -0.7543  0.1527  0.2947
 4387TIP3    H234577   5.796   4.156  13.797 -0.8901 -0.2559 -1.3144
 4388TIP3   OH234578   2.560   4.065   1.132 -0.3461 -0.4389  0.0762
 4388TIP3    H134579   2.574   4.155   1.105 -2.3016 -0.2473 -0.4493
 4388TIP3    H234580   2.472   4.065   1.170 -0.3787 -2.1201  0.0747
 4389TIP3   OH234581   0.204   5.984  11.984  0.2552  0.1173 -0.1514
 4389TIP3    H134582   0.262   6.028  11.922  2.0960 -0.6808  0.9158
 4389TIP3    H234583   0.177   5.904  11.939 -1.0929  1.0741 -1.1322
 4390TIP3   OH234584   2.880   1.738   5.055  0.0911  0.1602  0.4479
 4390TIP3    H134585   2.824   1.730   5.132 -0.7797  2.2465  0.1029
 4390TIP3    H234586   2.891   1.649   5.023 -0.5431 -0.6044  2.2727
 4391TIP3   OH234587   6.046   3.202  13.187  0.0979 -0.2572 -0.2549
 4391TIP3    H134588   6.117   3.188  13.124  0.4420 -0.0516  0.0856
 4391TIP3    H234589   6.015   3.114  13.208  0.0384 -0.3302 -0.6488
 4392TIP3   OH234590   1.252   5.411   0.981  0.7433 -0.1208 -0.2389
 4392TIP3    H134591   1.293   5.457   1.054  0.2151 -0.5225  0.3199
 4392TIP3    H234592   1.313   5.339   0.962  0.9610  0.0800 -0.2975
 4393TIP3   OH234593   2.634   3.845  12.285 -0.5399 -0.1705 -0.0332
 4393TIP3    H134594   2.656   3.819  12.195 -0.0214 -0.8607  0.2810
 4393TIP3    H234595   2.635   3.762  12.334 -0.1896  0.2858  0.7377
 4394TIP3   OH234596   5.106   3.607   5.008  0.4522 -0.0013  0.0484
 4394TIP3    H134597   5.127   3.699   5.029 -0.1309 -0.1017  1.1828
 4394TIP3    H234598   5.011   3.607   4.994  0.4759 -0.4017 -0.1199
 4395TIP3   OH234599   2.291   1.168   3.010 -0.0481 -0.7706  0.8113
 4395TIP3    H134600   2.219   1.155   3.072  0.3493 -2.2366  0.9990
 4395TIP3    H234601   2.249   1.162   2.924 -0.2150 -1.3391  0.9233
 4396TIP3   OH234602   3.606   4.345  15.226 -0.0881 -0.1613 -0.1226
 4396TIP3    H134603   3.658   4.280  15.273  0.7504  0.5830  0.0019
 4396TIP3    H234604   3.663   4.377  15.156  0.1942  1.6872  0.8701
 4397TIP3   OH234605   1.474   5.894  10.892 -0.1537  0.0116 -0.5818
 4397TIP3    H134606   1.416   5.830  10.851 -1.4343  1.8834 -1.8752
 4397TIP3    H234607   1.417   5.945  10.950  0.9824 -0.4451  1.0123
 4398TIP3   OH234608   2.832   0.407  11.620 -0.0867  0.5756 -0.1395
 4398TIP3    H134609   2.820   0.348  11.545 -1.8618 -0.1081  0.6119
 4398TIP3    H234610   2.924   0.432  11.616  0.4171 -1.2080 -1.2652
 4399TIP3   OH234611   2.702   1.426  14.829  0.0438 -0.0226 -0.0488
 4399TIP3    H134612   2.664   1.486  14.892 -0.8013  0.2583 -0.8050
 4399TIP3    H234613   2.707   1.342  14.875 -0.0541  0.3075  0.5636
 4400TIP3   OH234614   5.349   0.088  15.237 -0.3143  0.7134 -0.4047
 4400TIP3    H134615   5.430   0.094  15.287 -0.5385  0.3519  0.0125
 4400TIP3    H234616   5.317  -0.001  15.254 -1.5649  1.3321  0.6550
 4401TIP3   OH234617   3.146   5.945  13.953 -0.1421 -0.6366 -0.0813
 4401TIP3    H134618   3.135   5.999  13.875 -1.7868 -1.1468 -0.2486
 4401TIP3    H234619   3.197   6.000  14.014  0.4552  0.0740 -1.1923
 4402TIP3   OH234620   5.487   2.320   1.581 -0.2298 -0.0151 -0.5626
 4402TIP3    H134621   5.471   2.350   1.492 -0.5013 -2.0977 -1.2896
 4402TIP3    H234622   5.454   2.230   1.582  1.0085 -0.5171  1.2571
 4403TIP3   OH234623   1.010   0.943  15.104  0.2884 -0.1457  0.1614
 4403TIP3    H134624   0.969   0.950  15.190 -2.4014  2.1347 -1.1472
 4403TIP3    H234625   0.977   0.861  15.068  0.8716 -0.7647  1.0148
 4404TIP3   OH234626   1.363   2.660   5.707  0.4732 -0.0433 -0.4486
 4404TIP3    H134627   1.450   2.700   5.700 -0.1783  1.2721 -1.4141
 4404TIP3    H234628   1.314   2.693   5.632 -1.4627  0.7760  1.0642
 4405TIP3   OH234629   2.721   2.068  12.310  0.0227  0.2724 -0.4684
 4405TIP3    H134630   2.743   2.121  12.387  2.5091  1.3408 -1.7641
 4405TIP3    H234631   2.774   1.989  12.319  0.7844  0.6602 -1.2902
 4406TIP3   OH234632   2.282   3.263  14.909  0.1598 -1.0355 -0.5743
 4406TIP3    H134633   2.323   3.347  14.890 -2.0553  0.0473 -0.7833
 4406TIP3    H234634   2.206   3.259  14.852 -0.9137 -2.2643  0.8536
 4407TIP3   OH234635   4.828   5.580  11.658 -0.2265 -0.0268  0.2160
 4407TIP3    H134636   4.735   5.558  11.649 -0.0808 -0.1907 -1.0297
 4407TIP3    H234637   4.861   5.581  11.568  0.6612  1.4109  0.5313
 4408TIP3   OH234638   0.637   1.399  10.675 -0.0749 -0.8948  0.1869
 4408TIP3    H134639   0.716   1.452  10.684 -0.4476 -0.3031  0.0261
 4408TIP3    H234640   0.664   1.326  10.620 -0.4165  1.0390 -2.7912
 4409TIP3   OH234641   2.969   5.903   1.036  0.0998 -0.1606  0.5506
 4409TIP3    H134642   3.006   5.827   1.082 -0.1484  0.8757  2.6131
 4409TIP3    H234643   3.028   5.974   1.059 -1.9894  1.1366  2.3171
 4410TIP3   OH234644   4.356   0.439  14.608 -0.2990  0.0789  0.6237
 4410TIP3    H134645   4.326   0.399  14.527  0.5061 -0.4100  0.5589
 4410TIP3    H234646   4.430   0.385  14.636 -0.6051  0.1985  1.7212
 4411TIP3   OH234647   4.517   2.480  14.316 -0.1612 -0.2466 -0.3037
 4411TIP3    H134648   4.462   2.402  14.315  0.2434 -0.5318 -0.6133
 4411TIP3    H234649   4.595   2.456  14.265 -0.1519  0.4454 -0.6355
 4412TIP3   OH234650   4.061   2.672  13.395 -0.0653 -0.2221  0.2424
 4412TIP3    H134651   4.104   2.712  13.319  0.6427 -1.2666  0.0725
 4412TIP3    H234652   3.987   2.730  13.414  0.7168  0.9639 -0.2085
 4413TIP3   OH234653   3.901   6.556   2.003 -0.2255  0.3128  0.0695
 4413TIP3    H134654   3.986   6.518   1.982 -0.4426 -0.2257  0.1621
 4413TIP3    H234655   3.843   6.481   2.017 -0.5304  0.6705  0.7676
 4414TIP3   OH234656   6.733   3.468  15.353 -0.3980  0.2637  0.2937
 4414TIP3    H134657   6.672   3.394  15.360  0.1129 -0.0153  3.0600
 4414TIP3    H234658   6.811   3.438  15.400  0.4906  1.9396 -0.0679
 4415TIP3   OH234659   2.477   2.040   3.347 -0.6404  0.2296 -0.5562
 4415TIP3    H134660   2.446   2.074   3.431 -1.3095  0.7872 -1.0150
 4415TIP3    H234661   2.504   1.950   3.366 -2.8935 -0.4443 -0.1602
 4416TIP3   OH234662   5.808   4.041   4.690  0.4209 -0.3616 -0.2387
 4416TIP3    H134663   5.714   4.032   4.674  0.4816 -0.8325 -0.3539
 4416TIP3    H234664   5.816   4.117   4.748 -0.0196 -0.2467 -0.3286
 4417TIP3   OH234665   6.577   5.290   2.004 -0.3528  0.5685  0.1212
 4417TIP3    H134666   6.595   5.299   1.910 -0.3085  0.2535  0.0978
 4417TIP3    H234667   6.519   5.215   2.010  1.0953 -0.5805  0.4966
 4418TIP3   OH234668   2.011   1.858  15.329  0.3822  0.0169  0.4501
 4418TIP3    H134669   2.043   1.813  15.407  0.5409 -0.4723  0.1104
 4418TIP3    H234670   1.916   1.842  15.329  0.4455 -0.3685  0.3025
 4419TIP3   OH234671   4.750   5.781  16.548 -0.5797 -0.4693  0.6088
 4419TIP3    H134672   4.757   5.757  16.640  0.6324 -0.3066  0.5822
 4419TIP3    H234673   4.805   5.860  16.540 -0.5466 -0.5710 -0.2798
 4420TIP3   OH234674   0.145   2.700  13.124  0.1990  0.2000 -0.0547
 4420TIP3    H134675   0.054   2.726  13.132  0.0891 -0.7256  2.6799
 4420TIP3    H234676   0.154   2.624  13.180  2.2331 -1.0226 -1.8656
 4421TIP3   OH234677   3.353   5.155  16.377 -0.4576  0.8859  0.5873
 4421TIP3    H134678   3.417   5.085  16.385 -2.2209 -0.5579  3.9757
 4421TIP3    H234679   3.271   5.111  16.356 -1.0519  2.3451 -0.3666
 4422TIP3   OH234680   4.691   5.230   2.162 -0.5249  0.1063  0.5118
 4422TIP3    H134681   4.667   5.269   2.078 -1.5184 -0.2223  0.6225
 4422TIP3    H234682   4.786   5.218   2.158 -0.1415  2.6860  0.5501
 4423TIP3   OH234683   0.705   4.611   2.849 -0.4398  0.5481 -0.1514
 4423TIP3    H134684   0.652   4.662   2.788  0.7121  0.8645 -0.9384
 4423TIP3    H234685   0.692   4.520   2.822 -1.0069  0.5757  0.0212
 4424TIP3   OH234686   4.665   3.578   2.826 -0.0901  0.0958 -0.1686
 4424TIP3    H134687   4.594   3.527   2.866 -0.1693  0.7232  0.5196
 4424TIP3    H234688   4.642   3.669   2.846  0.8501  0.3094 -0.0518
 4425TIP3   OH234689   5.661   4.950   5.355 -0.1845  0.2242 -0.4140
 4425TIP3    H134690   5.617   4.866   5.365  0.7785 -0.5573 -2.2662
 4425TIP3    H234691   5.590   5.013   5.347 -0.9290 -0.2740  1.5613
 4426TIP3   OH234692   1.211   4.246   0.539  1.1201 -0.0558 -0.5231
 4426TIP3    H134693   1.159   4.224   0.461 -0.4454  0.8294  0.2194
 4426TIP3    H234694   1.201   4.170   0.597  1.4450 -0.2838 -0.7623
 4427TIP3   OH234695   4.356   4.482   4.323  0.1246  0.4245 -0.2657
 4427TIP3    H134696   4.447   4.489   4.353  0.4046  1.6073 -1.3191
 4427TIP3    H234697   4.316   4.421   4.384  2.3971 -2.6416 -1.5569
 4428TIP3   OH234698   2.799   2.138  10.797 -0.0726  0.1070  0.9596
 4428TIP3    H134699   2.890   2.112  10.785 -0.6182 -0.8132 -1.8229
 4428TIP3    H234700   2.758   2.061  10.838  0.1858  0.1182  1.2412
 4429TIP3   OH234701   3.649   0.946  13.827 -0.4745  0.8793  0.5107
 4429TIP3    H134702   3.624   0.957  13.735  0.2012  1.0199  0.3405
 4429TIP3    H234703   3.638   0.852  13.844 -2.1430  1.0986  0.7539
 4430TIP3   OH234704   5.332   3.720  13.009 -0.4374  0.1287 -0.0564
 4430TIP3    H134705   5.344   3.812  13.033  1.9198 -0.6356  2.1174
 4430TIP3    H234706   5.360   3.715  12.918 -1.5895  1.6976 -0.5414
 4431TIP3   OH234707   2.239   4.598   0.902 -0.1165 -0.8905 -0.8071
 4431TIP3    H134708   2.287   4.680   0.912 -0.8207 -0.6727  1.2956
 4431TIP3    H234709   2.203   4.602   0.814 -0.7016  1.3945 -0.5298
 4432TIP3   OH234710   5.657   0.710  13.722  0.1067  0.0130 -0.6539
 4432TIP3    H134711   5.704   0.663  13.791  0.5582  0.6224 -0.5411
 4432TIP3    H234712   5.600   0.644  13.683  1.6439 -0.9641 -1.3416
 4433TIP3   OH234713   3.429   5.292   6.168 -0.2830 -0.0477 -0.2924
 4433TIP3    H134714   3.438   5.267   6.260 -1.0308  0.2164 -0.1393
 4433TIP3    H234715   3.347   5.341   6.165 -0.7139 -0.8111 -1.2648
 4434TIP3   OH234716   1.639   4.126   0.110 -0.2034 -0.0893 -0.2461
 4434TIP3    H134717   1.714   4.181   0.086 -0.3601 -0.4774 -1.6979
 4434TIP3    H234718   1.571   4.189   0.134  0.1402  0.3043 -0.2843
 4435TIP3   OH234719   1.651   3.595   5.252 -0.1055 -0.6210 -0.5253
 4435TIP3    H134720   1.707   3.629   5.182 -0.2986  0.7895 -0.0377
 4435TIP3    H234721   1.562   3.622   5.227 -0.5702 -2.5468 -1.1209
 4436TIP3   OH234722   1.195   5.253  15.430  0.1219 -0.4536  0.0656
 4436TIP3    H134723   1.181   5.158  15.436 -0.6926 -0.2822  1.4602
 4436TIP3    H234724   1.157   5.278  15.346 -1.1675 -1.1398  0.4200
 4437TIP3   OH234725   6.404   5.209  16.935 -0.2245  0.0776 -0.5475
 4437TIP3    H134726   6.355   5.133  16.902  0.0004 -0.1634 -0.3292
 4437TIP3    H234727   6.495   5.189  16.915 -0.0732 -0.1082  0.2719
 4438TIP3   OH234728   4.421   3.962   5.067 -0.0861 -0.0294  0.3281
 4438TIP3    H134729   4.335   3.956   5.025 -0.2542  0.8304  0.5247
 4438TIP3    H234730   4.479   3.994   4.998 -0.6719  2.9185  1.0489
 4439TIP3   OH234731   6.722   5.386   0.222  0.6200  0.0897 -0.0444
 4439TIP3    H134732   6.654   5.361   0.284 -0.6345  1.3977 -0.8394
 4439TIP3    H234733   6.774   5.452   0.270 -1.1012  2.0502 -0.7001
 4440TIP3   OH234734   3.367   1.545   4.776 -0.2865 -0.4129  0.0619
 4440TIP3    H134735   3.412   1.628   4.791 -2.8048  1.1469 -0.4993
 4440TIP3    H234736   3.427   1.495   4.721  0.9713  1.3432 -0.2462
 4441TIP3   OH234737   0.531   2.847  13.660 -0.0342  0.0889 -0.3481
 4441TIP3    H134738   0.523   2.810  13.748  0.1614  1.9297  0.4869
 4441TIP3    H234739   0.440   2.865  13.634 -0.0828 -0.2954 -0.4397
 4442TIP3   OH234740   5.034   5.673   5.344  0.0951 -0.0418 -0.3467
 4442TIP3    H134741   5.002   5.663   5.434 -1.2237  0.6263 -0.7080
 4442TIP3    H234742   4.995   5.755   5.313  2.7832  1.2188 -0.6339
 4443TIP3   OH234743   2.307   4.662  12.380 -0.0609 -0.5100  0.2454
 4443TIP3    H134744   2.230   4.623  12.422 -0.4846  0.0579  0.0125
 4443TIP3    H234745   2.373   4.593  12.384 -0.7085 -1.1652  0.0724
 4444TIP3   OH234746   2.582   1.292   6.443  0.2848 -0.1921  0.0850
 4444TIP3    H134747   2.541   1.301   6.529  0.2117 -1.5613  0.2220
 4444TIP3    H234748   2.676   1.289   6.461  0.2488 -0.9589  0.1814
 4445TIP3   OH234749   1.603   4.531   0.377 -0.1566  0.4965  0.1584
 4445TIP3    H134750   1.618   4.448   0.422  1.2146  0.5284 -0.1799
 4445TIP3    H234751   1.568   4.590   0.445  1.7114  0.5026  1.1882
 4446TIP3   OH234752   2.450   1.243  11.187  0.0807 -0.4400  0.0414
 4446TIP3    H134753   2.532   1.292  11.190  0.8397 -1.7290  1.9183
 4446TIP3    H234754   2.475   1.154  11.163 -0.8396 -0.7472  0.1762
 4447TIP3   OH234755   1.365   4.628  12.384 -0.1376 -0.1973 -0.0735
 4447TIP3    H134756   1.289   4.593  12.431 -0.0028  2.1014  2.0301
 4447TIP3    H234757   1.423   4.660  12.453  2.3179 -0.9608 -1.6767
 4448TIP3   OH234758   5.441   5.224   5.897 -0.0252  0.3456 -0.0299
 4448TIP3    H134759   5.488   5.303   5.924 -0.9722  0.5861  0.9753
 4448TIP3    H234760   5.372   5.256   5.839  1.0473 -0.0155 -1.5653
 4449TIP3   OH234761   6.137   0.719   0.444 -0.2961 -0.0411  0.8800
 4449TIP3    H134762   6.196   0.793   0.458  0.8757 -0.3726 -1.6721
 4449TIP3    H234763   6.105   0.731   0.354  1.1177 -3.3138 -0.2114
 4450TIP3   OH234764   1.665   3.555  11.689 -0.3276 -0.0584 -0.5009
 4450TIP3    H134765   1.656   3.514  11.602 -0.4328 -1.9455  0.3351
 4450TIP3    H234766   1.705   3.640  11.672  0.2465 -0.6447 -2.3407
 4451TIP3   OH234767   6.248   1.559   0.367  0.4080  0.4291 -0.0398
 4451TIP3    H134768   6.304   1.511   0.306  2.7019  0.9905  1.4955
 4451TIP3    H234769   6.284   1.648   0.368 -0.3727  0.7542  1.1809
 4452TIP3   OH234770   6.302   4.638   3.657  0.3987  1.1132  0.1203
 4452TIP3    H134771   6.339   4.563   3.703 -1.1003  0.1752 -0.1702
 4452TIP3    H234772   6.334   4.630   3.567  0.2088  0.8073  0.0815
 4453TIP3   OH234773   4.162   0.080   4.040  0.2324  0.8806  0.2489
 4453TIP3    H134774   4.159   0.103   4.133  0.6618  0.0931  0.4692
 4453TIP3    H234775   4.102   0.006   4.032  0.8469  0.3889  0.0746
 4454TIP3   OH234776   1.666   0.880  17.242  0.4812 -0.3309  0.2411
 4454TIP3    H134777   1.575   0.910  17.237  0.4231 -0.2716  1.2995
 4454TIP3    H234778   1.677   0.854  17.334  2.0881  1.4296  0.6094
 4455TIP3   OH234779   3.608   1.875   2.939 -0.3567  0.9338  0.0609
 4455TIP3    H134780   3.649   1.927   3.008 -0.2978 -0.9041  1.4895
 4455TIP3    H234781   3.514   1.889   2.950 -0.5219 -1.1967  2.1900
 4456TIP3   OH234782   3.235   1.420  10.910  0.1521  0.1895 -0.4700
 4456TIP3    H134783   3.170   1.387  10.972 -0.1727 -0.4117 -1.1120
 4456TIP3    H234784   3.313   1.367  10.926  0.2810  0.4661 -0.1524
 4457TIP3   OH234785   6.292   4.064   4.901  0.3556 -0.0330 -0.3413
 4457TIP3    H134786   6.222   4.121   4.932  1.0879 -1.0665  3.7495
 4457TIP3    H234787   6.300   3.996   4.968  3.3884 -1.5984 -2.0597
 4458TIP3   OH234788   1.246   5.606  13.318  0.1099  0.4930  0.3186
 4458TIP3    H134789   1.220   5.597  13.410  0.9455 -0.5255  0.4718
 4458TIP3    H234790   1.262   5.517  13.289 -0.3588  0.7834 -0.9004
 4459TIP3   OH234791   2.538   4.571   3.529 -0.0600  0.2428  0.3003
 4459TIP3    H134792   2.616   4.561   3.474 -1.2424  1.8144 -1.8077
 4459TIP3    H234793   2.539   4.494   3.586  2.4665 -0.2989 -0.3423
 4460TIP3   OH234794   1.586   4.243   6.393 -0.7526 -0.1304 -0.0861
 4460TIP3    H134795   1.532   4.318   6.416 -2.5137 -0.9835 -1.2393
 4460TIP3    H234796   1.662   4.281   6.350 -1.9048  0.9973 -1.2103
 4461TIP3   OH234797   2.616   4.381   3.721  0.3122  0.3458 -0.5413
 4461TIP3    H134798   2.708   4.392   3.696  0.2096  3.2621 -0.0671
 4461TIP3    H234799   2.618   4.331   3.802  1.5203  0.7445 -0.3105
 4462TIP3   OH234800   6.395   5.460  13.117  0.8933  0.2367 -0.4335
 4462TIP3    H134801   6.333   5.387  13.127 -1.2666  2.2619  3.1271
 4462TIP3    H234802   6.341   5.532  13.085  2.2928  1.0972 -0.9313
 4463TIP3   OH234803   4.690   6.231  13.358 -0.2604 -0.2442 -0.1044
 4463TIP3    H134804   4.751   6.301  13.334 -1.2948  0.0330 -2.1679
 4463TIP3    H234805   4.631   6.272  13.421 -0.0730  0.3589 -0.3095
 4464TIP3   OH234806   1.503   0.692   4.516  0.7424 -0.9474  0.1368
 4464TIP3    H134807   1.527   0.759   4.452 -2.3407 -0.2156 -0.4249
 4464TIP3    H234808   1.511   0.737   4.601  0.7431 -0.5503 -0.0695
 4465TIP3   OH234809   0.511   3.671   2.092  0.2476  0.1197 -0.1309
 4465TIP3    H134810   0.487   3.579   2.085  0.9272 -0.0916  0.1807
 4465TIP3    H234811   0.430   3.715   2.118 -0.6445 -0.0407 -2.4360
 4466TIP3   OH234812   3.404   5.891   4.259 -0.2589 -0.0524 -0.5463
 4466TIP3    H134813   3.349   5.910   4.183 -1.5206  1.0938  0.6018
 4466TIP3    H234814   3.354   5.923   4.334  1.4477 -0.0801  0.6690
 4467TIP3   OH234815   5.169   4.367   3.638 -0.2672  0.7894 -0.1322
 4467TIP3    H134816   5.101   4.318   3.685  0.1612  0.3038 -0.0128
 4467TIP3    H234817   5.121   4.411   3.567 -0.9277  1.5819  0.7809
 4468TIP3   OH234818   4.737   1.852   2.056 -0.0901  0.0511 -0.6259
 4468TIP3    H134819   4.714   1.822   1.967 -0.1332 -1.1831 -0.2210
 4468TIP3    H234820   4.669   1.814   2.112  1.0406 -0.8602  0.1715
 4469TIP3   OH234821   1.750   0.105  14.968  0.2461  0.4387 -0.7546
 4469TIP3    H134822   1.676   0.154  15.003  1.4237  2.0398 -0.3786
 4469TIP3    H234823   1.781   0.053  15.042 -1.7213 -1.9085 -1.4553
 4470TIP3   OH234824   2.002   4.481   5.042 -0.1247  0.0083 -1.1619
 4470TIP3    H134825   2.018   4.395   5.081 -0.4939 -0.1675 -1.3922
 4470TIP3    H234826   1.976   4.536   5.116  0.5223  0.0378 -0.9457
 4471TIP3   OH234827   4.965   0.597   5.193 -0.8088 -1.0861 -0.3599
 4471TIP3    H134828   4.960   0.555   5.279 -0.5260  1.2268  0.8505
 4471TIP3    H234829   5.058   0.593   5.170 -0.8438 -1.4615 -0.4487
 4472TIP3   OH234830   5.549   4.650   0.374 -0.0314 -0.1932  0.0821
 4472TIP3    H134831   5.565   4.576   0.431  0.8284 -0.4780 -0.4991
 4472TIP3    H234832   5.635   4.671   0.337 -0.8863 -1.6774 -3.0909
 4473TIP3   OH234833   1.268   2.722  10.600 -0.4563 -0.0502 -0.4805
 4473TIP3    H134834   1.286   2.668  10.676 -1.1314 -1.4434 -1.2674
 4473TIP3    H234835   1.312   2.805  10.618  1.5277 -1.2010  0.3181
 4474TIP3   OH234836   4.039   0.741   1.303  0.9643 -0.4645 -0.2741
 4474TIP3    H134837   4.042   0.836   1.287  1.8448 -0.6091 -1.0865
 4474TIP3    H234838   4.059   0.732   1.396 -1.0062  0.2344  0.2724
 4475TIP3   OH234839   2.403   3.211  12.998 -0.1127 -1.1557  0.4188
 4475TIP3    H134840   2.344   3.142  13.028  0.6164 -1.8406  0.3172
 4475TIP3    H234841   2.381   3.223  12.906  0.3776 -1.9304  0.1857
 4476TIP3   OH234842   0.125   1.255   5.192 -0.3034 -0.3575 -0.2144
 4476TIP3    H134843   0.051   1.315   5.181  1.8897  2.2332 -3.0305
 4476TIP3    H234844   0.110   1.187   5.127 -0.6217 -0.3270 -0.1761
 4477TIP3   OH234845   1.931   3.722   4.523 -0.3530 -0.1620 -0.4688
 4477TIP3    H134846   1.960   3.681   4.604  0.6890  0.1914 -0.6484
 4477TIP3    H234847   1.845   3.683   4.506 -1.2487  0.7633  1.5318
 4478TIP3   OH234848   1.083   0.833  11.373 -0.1239  0.0562 -0.2131
 4478TIP3    H134849   1.015   0.887  11.413  1.0012  1.1794  0.2979
 4478TIP3    H234850   1.118   0.782  11.446 -1.4511 -1.7315 -0.7667
 4479TIP3   OH234851   5.051   0.656   3.193  0.2192  0.2415  0.1681
 4479TIP3    H134852   5.019   0.672   3.282  0.3960 -0.2547  0.3260
 4479TIP3    H234853   5.073   0.563   3.192 -0.9048 -0.0451 -0.7516
 4480TIP3   OH234854   5.357   2.636   2.283  0.2767 -0.0066 -0.1294
 4480TIP3    H134855   5.285   2.579   2.309  0.7018 -0.0943  0.9005
 4480TIP3    H234856   5.322   2.687   2.210  0.0732 -1.9687 -1.4977
 4481TIP3   OH234857   6.001   2.167  11.450 -0.1348 -0.4159  0.3720
 4481TIP3    H134858   6.037   2.219  11.378 -0.7354  0.6449  0.8278
 4481TIP3    H234859   6.057   2.187  11.525 -0.0222 -0.8813  0.4193
 4482TIP3   OH234860   3.072   5.672   5.977 -0.2304  0.0562 -0.4836
 4482TIP3    H134861   3.029   5.676   5.892 -2.1467  1.3453  0.4670
 4482TIP3    H234862   3.012   5.718   6.036  1.5204  0.1072  1.3615
 4483TIP3   OH234863   6.078   5.420  12.294  0.4479  0.1435  0.2624
 4483TIP3    H134864   6.072   5.446  12.202 -0.0365  2.8286  0.9547
 4483TIP3    H234865   6.159   5.461  12.324  1.1064 -1.5132  0.8450
 4484TIP3   OH234866   2.959   2.704  14.751 -0.1993  0.1079 -0.3082
 4484TIP3    H134867   2.901   2.755  14.807 -0.5168 -1.3808  0.7498
 4484TIP3    H234868   3.047   2.734  14.774 -0.2796 -0.9135  1.4856
 4485TIP3   OH234869   2.217   2.195   5.601  0.0678  0.1441 -0.0372
 4485TIP3    H134870   2.140   2.250   5.583  1.0332  0.7400 -2.9907
 4485TIP3    H234871   2.291   2.254   5.590  1.0362 -0.9024  0.6823
 4486TIP3   OH234872   2.890   4.246  11.096  0.0942 -0.6650  0.1378
 4486TIP3    H134873   2.902   4.249  11.191 -3.0373  0.8614  0.6063
 4486TIP3    H234874   2.869   4.336  11.071  0.9114 -1.0049 -2.0801
 4487TIP3   OH234875   2.862   0.605  16.561 -0.0558  0.0576 -0.2228
 4487TIP3    H134876   2.909   0.521  16.569  0.3246 -0.0510 -2.9388
 4487TIP3    H234877   2.770   0.582  16.576  0.1793 -0.6165  0.2712
 4488TIP3   OH234878   2.521   3.367  12.275  0.7117 -0.2040  0.0402
 4488TIP3    H134879   2.507   3.428  12.203  1.4484 -0.2585 -0.1557
 4488TIP3    H234880   2.452   3.301  12.264 -1.2840  1.5336  1.3408
 4489TIP3   OH234881   4.945   0.551  14.106 -0.1601 -0.2089 -0.4811
 4489TIP3    H134882   5.018   0.490  14.099 -0.7658 -0.9462 -0.6234
 4489TIP3    H234883   4.917   0.544  14.198  0.2032  0.3831 -0.3215
 4490TIP3   OH234884   6.173   6.597   1.424  0.2273 -0.0904 -0.0327
 4490TIP3    H134885   6.207   6.673   1.472  0.3246 -0.0211 -0.2104
 4490TIP3    H234886   6.116   6.553   1.486 -0.5014  0.5993 -0.1941
 4491TIP3   OH234887   2.699   0.411   4.303 -0.2319  0.3294  0.1536
 4491TIP3    H134888   2.773   0.458   4.263  0.7409  0.8943  2.4426
 4491TIP3    H234889   2.653   0.372   4.229  0.5738  2.5188 -1.6395
 4492TIP3   OH234890   3.868   5.036  12.194  0.4025 -0.0423  0.2002
 4492TIP3    H134891   3.900   5.024  12.105 -2.7723 -0.8248 -0.9609
 4492TIP3    H234892   3.905   4.962  12.243  1.3931 -0.1568 -0.6778
 4493TIP3   OH234893   6.435   1.889  12.791  0.2346 -0.3700  0.1092
 4493TIP3    H134894   6.521   1.920  12.761 -0.5516 -0.2880 -2.2514
 4493TIP3    H234895   6.449   1.796  12.808  1.1931 -0.0028  1.5360
 4494TIP3   OH234896   2.144   5.322   5.041 -0.3739  0.4448 -0.2907
 4494TIP3    H134897   2.189   5.343   4.960  0.0016 -1.7603 -0.7190
 4494TIP3    H234898   2.069   5.269   5.014 -1.1486  0.9966  0.6963
 4495TIP3   OH234899   5.112   6.179   4.953 -0.3672  0.4469  0.3405
 4495TIP3    H134900   5.152   6.136   5.029 -0.8662  0.7657  0.7953
 4495TIP3    H234901   5.032   6.129   4.936  0.3244 -0.3354 -0.7129
 4496TIP3   OH234902   2.010   5.258  14.431 -0.1402  0.0723  0.0070
 4496TIP3    H134903   2.043   5.172  14.404  0.6347  0.2873  0.2600
 4496TIP3    H234904   2.071   5.320  14.391 -0.6857  0.5109 -0.1548
 4497TIP3   OH234905   0.331   5.769   4.202  0.4404 -0.4293  0.5303
 4497TIP3    H134906   0.245   5.807   4.220  0.6814  0.7870 -0.6799
 4497TIP3    H234907   0.315   5.674   4.198 -0.9784 -0.1938 -0.2507
 4498TIP3   OH234908   4.434   1.387   4.757 -0.1307  0.5363 -0.0736
 4498TIP3    H134909   4.347   1.359   4.786 -0.6991  1.7637 -0.4985
 4498TIP3    H234910   4.448   1.340   4.675  0.3439 -0.9185  0.7976
 4499TIP3   OH234911   5.254   6.761   0.732  0.3693  0.4030 -0.0450
 4499TIP3    H134912   5.165   6.738   0.706  0.2126  1.2289 -0.2667
 4499TIP3    H234913   5.273   6.703   0.806 -0.0975 -0.2403 -0.4176
 4500TIP3   OH234914   3.264   4.451  12.704 -0.3541 -0.0972  0.1151
 4500TIP3    H134915   3.326   4.431  12.774 -1.0415  0.6906  0.9749
 4500TIP3    H234916   3.316   4.446  12.623  0.9147  0.8889  0.8338
 4501TIP3   OH234917   3.486   2.843  13.248  0.6627  0.3747  0.0423
 4501TIP3    H134918   3.503   2.780  13.318  1.7758 -0.3427 -0.8404
 4501TIP3    H234919   3.562   2.901  13.248  0.0531  1.1948  0.2768
 4502TIP3   OH234920   0.009   4.427  15.482 -0.2477 -0.5242  0.3190
 4502TIP3    H134921  -0.053   4.387  15.421 -2.4638  0.3240  1.8810
 4502TIP3    H234922  -0.003   4.521  15.471  2.2320 -0.2675 -0.6971
 4503TIP3   OH234923   0.098   5.951   4.748 -0.4512 -0.0478 -0.0149
 4503TIP3    H134924   0.084   6.024   4.808 -1.5530 -0.0274 -0.2733
 4503TIP3    H234925   0.151   5.889   4.797 -2.3693 -0.6116  1.4748
 4504TIP3   OH234926   0.530   1.148  15.609 -0.3256 -0.1381  0.1240
 4504TIP3    H134927   0.601   1.188  15.659 -1.6331  2.4581  0.0673
 4504TIP3    H234928   0.495   1.081  15.667  0.5017  0.3254  1.2006
 4505TIP3   OH234929   1.932   0.105   0.152  0.6159  0.5913 -0.0399
 4505TIP3    H134930   1.937   0.025   0.205 -0.6049 -0.9935 -2.1135
 4505TIP3    H234931   2.010   0.101   0.096  1.2642  1.6009  0.7756
 4506TIP3   OH234932   5.179   0.540   1.106  0.4114 -0.6615 -0.0219
 4506TIP3    H134933   5.255   0.570   1.057  1.5119  0.0344  1.9681
 4506TIP3    H234934   5.149   0.618   1.153 -1.2957 -1.0329 -0.4377
 4507TIP3   OH234935   3.044   3.057   0.445  0.6657  0.2708 -0.2956
 4507TIP3    H134936   3.013   2.986   0.389  1.1047 -1.3511  1.4325
 4507TIP3    H234937   2.973   3.071   0.508  0.1196  2.1698 -1.2363
 4508TIP3   OH234938   6.038   3.229  17.235 -0.4978 -0.6758 -0.6928
 4508TIP3    H134939   6.017   3.163  17.300  0.3225 -0.4569 -0.1912
 4508TIP3    H234940   6.077   3.179  17.162 -1.7809 -0.9644 -1.2076
 4509TIP3   OH234941   4.381   1.572  12.120  0.2542  0.1382 -0.1778
 4509TIP3    H134942   4.309   1.569  12.182  1.1634 -0.2039  0.9019
 4509TIP3    H234943   4.452   1.616  12.167  2.1362 -3.1421  0.3926
 4510TIP3   OH234944   2.256   4.215  15.153 -0.0221  0.3202 -0.2072
 4510TIP3    H134945   2.223   4.293  15.108 -2.1040 -0.6588 -0.5069
 4510TIP3    H234946   2.351   4.225  15.151 -0.1772  3.8012  1.4918
 4511TIP3   OH234947   1.595   3.315   2.841 -0.6171  0.3672 -0.2258
 4511TIP3    H134948   1.551   3.397   2.818 -0.4498  0.7246  0.6998
 4511TIP3    H234949   1.675   3.342   2.887 -1.1024 -0.3102  1.0668
 4512TIP3   OH234950   1.059   5.907  12.929  0.0632 -0.2239  0.2980
 4512TIP3    H134951   1.108   5.981  12.895 -0.4140 -0.3884 -0.7632
 4512TIP3    H234952   0.976   5.945  12.960  0.8084  0.0507  2.0707
 4513TIP3   OH234953   6.031   1.322   5.618  0.2699 -0.5800  0.7236
 4513TIP3    H134954   6.118   1.293   5.590 -1.3522 -1.3003 -4.9612
 4513TIP3    H234955   5.997   1.250   5.670  1.8473 -1.9714 -0.0647
 4514TIP3   OH234956   0.123   4.197   0.365 -0.6638  0.4573 -0.8400
 4514TIP3    H134957   0.152   4.141   0.437 -1.0220  0.7550 -0.4576
 4514TIP3    H234958   0.122   4.140   0.288 -1.1109 -0.0816 -0.4374
 4515TIP3   OH234959   3.631   1.599  13.727  0.2392  0.0990  0.3517
 4515TIP3    H134960   3.557   1.620  13.670  0.0158  0.7750  0.8741
 4515TIP3    H234961   3.704   1.586  13.667 -0.4782 -1.4658 -0.2473
 4516TIP3   OH234962   3.588   0.995   1.406 -0.5112 -0.2129  0.3634
 4516TIP3    H134963   3.639   0.952   1.337 -2.0165  1.5055 -1.9847
 4516TIP3    H234964   3.500   0.959   1.396 -1.1955  1.4698  0.0362
 4517TIP3   OH234965   1.761   5.565   1.684  0.1315 -0.1396 -0.7290
 4517TIP3    H134966   1.775   5.498   1.617 -0.0087  1.3024 -2.2660
 4517TIP3    H234967   1.764   5.647   1.636  0.3994  0.9739  1.1255
 4518TIP3   OH234968   1.140   2.823   3.016  0.1083 -0.2700  0.3424
 4518TIP3    H134969   1.132   2.918   3.014 -0.6898 -0.3474 -0.2152
 4518TIP3    H234970   1.197   2.806   3.092  1.6077  0.7269 -0.5005
 4519TIP3   OH234971   2.561   0.856   0.421 -0.3857  0.4056  0.6306
 4519TIP3    H134972   2.621   0.811   0.480 -0.3273  0.4500  0.6059
 4519TIP3    H234973   2.520   0.923   0.476 -1.7098 -0.7440  1.0892
 4520TIP3   OH234974   4.895   4.063  12.899  0.9030  0.4725 -0.1356
 4520TIP3    H134975   4.944   4.083  12.979  0.0496  0.4481  0.4044
 4520TIP3    H234976   4.931   3.979  12.869 -0.0985 -0.5349  1.3326
 4521TIP3   OH234977   0.944   6.680  16.266  0.3446 -0.2408  0.2005
 4521TIP3    H134978   0.922   6.589  16.244  0.3801 -0.2527  0.2138
 4521TIP3    H234979   1.039   6.684  16.258  0.3794 -0.3004  0.5610
 4522TIP3   OH234980   3.896   4.047  10.739 -0.0398 -0.1865  0.0497
 4522TIP3    H134981   3.828   4.114  10.743 -0.3808 -0.3289 -1.9178
 4522TIP3    H234982   3.971   4.091  10.699 -0.0449 -0.7850 -0.6444
 4523TIP3   OH234983   3.957   3.014   0.580  0.1491  0.7949 -0.0900
 4523TIP3    H134984   3.867   3.024   0.613  0.4905  0.0279  1.1388
 4523TIP3    H234985   3.953   2.940   0.520  0.6250 -1.8749  2.9108
 4524TIP3   OH234986   1.643   4.146   5.730  0.0837  0.2482 -0.4451
 4524TIP3    H134987   1.674   4.068   5.684  0.5073 -1.5015  2.5301
 4524TIP3    H234988   1.691   4.219   5.690  2.1219 -1.4123 -1.2159
 4525TIP3   OH234989   0.498   6.118   3.231  0.4776 -0.2129  0.6175
 4525TIP3    H134990   0.538   6.111   3.318 -0.4892 -1.7969  0.9682
 4525TIP3    H234991   0.570   6.100   3.171  0.8587 -0.4907  1.1441
 4526TIP3   OH234992   1.981   4.049   5.515 -0.6417 -0.2272 -0.1913
 4526TIP3    H134993   2.038   4.033   5.590 -0.7290  1.5347  0.2875
 4526TIP3    H234994   1.896   4.014   5.542 -0.5420 -0.0853  0.3232
 4527TIP3   OH234995   0.093   3.405  16.357 -0.0791 -0.0921  0.0391
 4527TIP3    H134996   0.036   3.402  16.434 -1.7900 -3.7875 -1.1747
 4527TIP3    H234997   0.050   3.469  16.299 -0.9560 -0.1527  0.5929
 4528TIP3   OH234998   5.899   1.078  13.475 -0.1153  0.0909  0.2237
 4528TIP3    H134999   5.896   0.984  13.493 -0.8995 -0.1775 -1.1340
 4528TIP3    H235000   5.937   1.117  13.554 -2.0526 -1.1007  1.8546
 4529TIP3   OH235001   1.115   6.538   3.574 -0.4203  0.1037 -0.0659
 4529TIP3    H135002   1.137   6.544   3.667  0.4282 -1.9252 -0.0794
 4529TIP3    H235003   1.119   6.628   3.542 -1.2461  0.9147  1.9502
 4530TIP3   OH235004   0.165   4.744   3.706  0.3824 -0.1150  1.2504
 4530TIP3    H135005   0.083   4.779   3.672  0.6984  0.4902  1.0831
 4530TIP3    H235006   0.195   4.682   3.638 -0.1293 -0.6369  1.4990
 4531TIP3   OH235007   3.336   4.960   1.526  0.1600 -0.3400  0.2640
 4531TIP3    H135008   3.367   4.963   1.616 -1.5717  1.8306  0.8905
 4531TIP3    H235009   3.317   4.868   1.509  0.3311 -0.7548  2.1817
 4532TIP3   OH235010   1.341   3.155  13.441 -0.0720  0.1845  0.0455
 4532TIP3    H135011   1.261   3.154  13.492 -0.4038  1.3065 -0.4304
 4532TIP3    H235012   1.408   3.123  13.501 -0.8052 -0.4504  0.5457
 4533TIP3   OH235013   1.145   6.543   0.018  0.3570  1.1054 -0.6326
 4533TIP3    H135014   1.217   6.597  -0.015  0.0840  2.5368  0.9796
 4533TIP3    H235015   1.188   6.463   0.051  1.0414  1.3628 -0.8787
 4534TIP3   OH235016   2.747   1.867  12.060 -0.2084  0.0101 -0.6323
 4534TIP3    H135017   2.661   1.828  12.048  0.0293 -0.6836 -0.0970
 4534TIP3    H235018   2.772   1.845  12.149 -0.9740  3.2033  0.4930
 4535TIP3   OH235019   2.250   6.400   1.430 -0.4040  0.3628  0.1075
 4535TIP3    H135020   2.222   6.351   1.507 -0.6564 -0.0611 -0.2506
 4535TIP3    H235021   2.195   6.479   1.431  0.6731  1.1267  1.2201
 4536TIP3   OH235022   1.483   1.567   2.765 -0.2617 -0.3748  0.7784
 4536TIP3    H135023   1.542   1.602   2.832 -1.9908  1.5048  1.4135
 4536TIP3    H235024   1.495   1.625   2.691 -1.0054 -0.2354  0.7651
 4537TIP3   OH235025   5.311   1.231  11.782 -0.1416 -0.9723  0.6761
 4537TIP3    H135026   5.327   1.169  11.711  2.2172  0.6750 -0.3864
 4537TIP3    H235027   5.232   1.200  11.825 -1.6505 -2.0921 -2.6309
 4538TIP3   OH235028   1.627   2.318   5.315 -0.0675 -0.1434  0.0097
 4538TIP3    H135029   1.719   2.291   5.318 -0.5955 -2.0362  0.6970
 4538TIP3    H235030   1.581   2.250   5.363 -1.8695  0.6685 -0.4902
 4539TIP3   OH235031   4.524   0.361  11.379 -0.4747  0.0004  0.2342
 4539TIP3    H135032   4.478   0.427  11.430 -0.2068 -0.0705  0.5718
 4539TIP3    H235033   4.538   0.402  11.294  0.6400  0.7985  0.7712
 4540TIP3   OH235034   0.957   0.235  17.188 -0.1340 -0.5562  0.1998
 4540TIP3    H135035   0.908   0.259  17.266  0.8853 -0.1748  0.7416
 4540TIP3    H235036   0.926   0.148  17.165 -1.0060 -0.3429  0.5610
 4541TIP3   OH235037   1.080   1.218  15.125  0.1951  0.1307  0.0165
 4541TIP3    H135038   1.067   1.130  15.090  1.2861  0.2785 -0.8227
 4541TIP3    H235039   1.137   1.261  15.060 -0.7645  1.6340  0.1194
 4542TIP3   OH235040   2.371   4.992   1.909 -0.3144  0.8234 -0.2622
 4542TIP3    H135041   2.330   5.069   1.869 -1.5436 -0.2186 -1.1022
 4542TIP3    H235042   2.454   5.024   1.945 -1.2642  2.7504  0.3456
 4543TIP3   OH235043   1.419   5.177   0.928  0.4340  0.0105  0.2267
 4543TIP3    H135044   1.425   5.084   0.908  1.4731 -0.1866  1.3865
 4543TIP3    H235045   1.508   5.211   0.917  0.0476  0.9055 -0.3166
 4544TIP3   OH235046   1.227   3.193   4.412  0.6521  0.1927 -0.2018
 4544TIP3    H135047   1.174   3.269   4.389  0.5585  0.2261  0.1159
 4544TIP3    H235048   1.163   3.122   4.422  0.8723 -0.2862 -1.9467
 4545TIP3   OH235049   5.935   1.844  10.888  0.6901 -0.2770 -0.4256
 4545TIP3    H135050   6.022   1.805  10.880  0.6816 -0.7874  1.4780
 4545TIP3    H235051   5.939   1.894  10.969 -0.1492  1.5148 -1.4341
 4546TIP3   OH235052   2.632   5.269   5.381  0.0807  0.1555  0.1357
 4546TIP3    H135053   2.695   5.325   5.427  0.5261 -0.7868  0.6834
 4546TIP3    H235054   2.667   5.264   5.292  0.7810 -0.3455  0.4298
 4547TIP3   OH235055   0.489   3.039  14.979  0.1766 -0.1481  0.1197
 4547TIP3    H135056   0.405   3.082  14.960  1.1335  1.7712 -0.0179
 4547TIP3    H235057   0.478   3.004  15.067 -0.8908 -0.2830 -0.0426
 4548TIP3   OH235058   4.311   4.307   4.834  0.5404 -0.1383 -0.4471
 4548TIP3    H135059   4.320   4.394   4.873 -0.4904 -0.3093  0.1881
 4548TIP3    H235060   4.274   4.253   4.904 -1.0972 -0.5087 -1.5606
 4549TIP3   OH235061   4.538   5.427  15.772 -0.5963 -0.1871 -0.2600
 4549TIP3    H135062   4.553   5.519  15.751 -0.8603 -0.5125 -2.1018
 4549TIP3    H235063   4.455   5.426  15.819  0.4528  0.6941  1.7018
 4550TIP3   OH235064   6.723   1.918  17.115 -0.1475  0.2662 -0.2316
 4550TIP3    H135065   6.716   2.003  17.157  1.6667  0.1260  0.4476
 4550TIP3    H235066   6.754   1.937  17.027  2.2253  0.2744  0.5323
 4551TIP3   OH235067   3.200   0.502   1.178 -0.0344 -0.1692  0.0153
 4551TIP3    H135068   3.295   0.514   1.189 -0.0571  0.5905 -0.5219
 4551TIP3    H235069   3.191   0.459   1.093 -0.1488 -0.6956  0.2921
 4552TIP3   OH235070   4.968   3.951  16.349 -0.4126 -1.1652  0.1317
 4552TIP3    H135071   4.888   4.003  16.357 -0.9592 -2.0935  0.8576
 4552TIP3    H235072   5.034   4.001  16.397  0.1149  0.8335 -2.4683
 4553TIP3   OH235073   4.091   5.988   2.791  0.1424 -0.0504 -0.0726
 4553TIP3    H135074   4.080   6.000   2.696 -1.6456 -1.1093 -0.0540
 4553TIP3    H235075   4.172   6.034   2.812  0.5158  0.3163 -2.0943
 4554TIP3   OH235076   0.225   0.320  15.237 -0.3061 -0.1852 -0.1026
 4554TIP3    H135077   0.308   0.365  15.254 -0.4625  0.3342 -0.6750
 4554TIP3    H235078   0.180   0.321  15.321 -0.6892  1.5566 -0.3016
 4555TIP3   OH235079   5.415   0.060  13.342 -0.1593  0.0093  0.3309
 4555TIP3    H135080   5.505   0.030  13.335 -0.5499 -0.8883 -1.3374
 4555TIP3    H235081   5.381   0.056  13.252 -0.8585  3.6426  0.2550
 4556TIP3   OH235082   2.824   1.283  14.178 -0.4443  0.0835 -0.4205
 4556TIP3    H135083   2.857   1.364  14.216  0.5741 -0.4812 -0.0774
 4556TIP3    H235084   2.766   1.246  14.244  1.7492 -1.1825  0.9262
 4557TIP3   OH235085   0.256   2.817   0.074  0.1857  0.3725  0.3111
 4557TIP3    H135086   0.202   2.740   0.091 -0.5007  1.3543  2.9921
 4557TIP3    H235087   0.344   2.782   0.063 -0.4216 -0.9421 -0.7691
 4558TIP3   OH235088   3.132   5.350  17.177 -0.6173  0.0402  0.8054
 4558TIP3    H135089   3.135   5.258  17.204 -2.1306 -0.1245  0.4905
 4558TIP3    H235090   3.081   5.393  17.246 -0.5250  0.5123  0.5836
 4559TIP3   OH235091   4.599   4.020  14.709  0.1690 -0.3307 -0.1647
 4559TIP3    H135092   4.558   3.934  14.723 -0.7177  0.4824  2.9947
 4559TIP3    H235093   4.530   4.072  14.668  0.0522 -0.5664 -0.2736
 4560TIP3   OH235094   2.933   3.831   0.259 -0.2990 -0.0203 -0.3346
 4560TIP3    H135095   2.883   3.819   0.178 -1.1711  3.2770 -0.4186
 4560TIP3    H235096   2.874   3.801   0.328 -0.5489 -0.5194 -0.7608
 4561TIP3   OH235097   4.511   6.714  15.973 -0.7473 -0.4998 -0.2298
 4561TIP3    H135098   4.544   6.654  16.040  1.3288  0.1239 -0.6235
 4561TIP3    H235099   4.416   6.702  15.975 -0.8668  0.0324  3.3277
 4562TIP3   OH235100   1.163   4.027  12.980 -0.5918 -0.4785 -0.3212
 4562TIP3    H135101   1.232   4.080  13.021 -0.6732 -0.6757  0.0771
 4562TIP3    H235102   1.154   3.951  13.037 -0.5559 -0.8674 -0.8334
 4563TIP3   OH235103   0.779   5.272  16.448 -0.1647 -0.1842  0.3371
 4563TIP3    H135104   0.696   5.293  16.491 -1.1160  1.8626 -2.2375
 4563TIP3    H235105   0.754   5.248  16.359  1.7631 -3.3819  0.5026
 4564TIP3   OH235106   3.687   5.107   0.024  0.1326 -0.3093 -0.2447
 4564TIP3    H135107   3.732   5.031  -0.013 -0.7688 -1.6277  1.2595
 4564TIP3    H235108   3.598   5.102  -0.012  0.4635  0.9010 -1.2940
 4565TIP3   OH235109   3.767   2.276   0.626  0.2252  0.1280  0.2171
 4565TIP3    H135110   3.792   2.286   0.534 -0.1665 -1.2471 -0.0533
 4565TIP3    H235111   3.831   2.214   0.661  0.4029  0.6842  0.8999
 4566TIP3   OH235112   0.248   4.063   1.894  0.2048  0.2819 -0.1399
 4566TIP3    H135113   0.219   4.137   1.948  1.5454  1.3807 -0.8310
 4566TIP3    H235114   0.338   4.086   1.871  0.7309 -1.7081 -0.1995
 4567TIP3   OH235115   4.752   1.147   4.620 -0.3970 -0.3675  0.3743
 4567TIP3    H135116   4.784   1.066   4.581 -0.2632  0.0219 -0.3626
 4567TIP3    H235117   4.802   1.157   4.700 -0.3531 -0.9692  0.4257
 4568TIP3   OH235118   3.221   1.638  17.003  0.2210 -0.4116 -0.2711
 4568TIP3    H135119   3.157   1.680  16.946  0.0858 -1.2885 -0.7768
 4568TIP3    H235120   3.296   1.619  16.946 -0.0950 -1.7050 -0.2762
 4569TIP3   OH235121   5.500   4.338   4.516 -0.2351 -0.1263 -0.5442
 4569TIP3    H135122   5.564   4.408   4.505  0.4040 -0.5179  0.5283
 4569TIP3    H235123   5.494   4.298   4.429 -0.5119  1.1481 -1.1341
 4570TIP3   OH235124   1.628   1.922   1.945 -0.3901 -0.7060 -0.8170
 4570TIP3    H135125   1.635   1.957   1.857 -0.2362 -0.2043 -0.6055
 4570TIP3    H235126   1.632   1.998   2.003 -0.8283 -0.9966 -0.3870
 4571TIP3   OH235127   4.221   2.016  13.963  0.6383 -0.2767 -0.4347
 4571TIP3    H135128   4.156   1.956  13.925  0.5853  0.4558 -1.5767
 4571TIP3    H235129   4.184   2.103  13.947  1.9628  0.1688 -1.2870
 4572TIP3   OH235130   1.498   6.249   6.282  0.4794 -0.1527  0.7435
 4572TIP3    H135131   1.492   6.338   6.317  1.2761  0.1518  0.1399
 4572TIP3    H235132   1.468   6.193   6.353 -1.3712  0.6686  0.6783
 4573TIP3   OH235133   1.176   0.983   4.363 -0.6366  0.2561 -0.0726
 4573TIP3    H135134   1.161   1.077   4.374  0.9408  0.3894  1.3193
 4573TIP3    H235135   1.213   0.955   4.447  0.9895 -1.1569 -1.2021
 4574TIP3   OH235136   3.337   4.659  16.196 -0.2118 -0.5128  0.1273
 4574TIP3    H135137   3.307   4.661  16.287  0.7038 -0.9770  0.4554
 4574TIP3    H235138   3.270   4.609  16.150 -0.2618 -1.0129  0.7227
 4575TIP3   OH235139   6.577   1.683   4.657  0.2237  0.5649 -0.2437
 4575TIP3    H135140   6.529   1.756   4.619 -0.2743  0.8655  0.9141
 4575TIP3    H235141   6.625   1.644   4.583 -1.6181  0.3936 -1.4189
 4576TIP3   OH235142   2.908   3.906   0.898  0.1063  0.0820 -0.1859
 4576TIP3    H135143   2.876   3.834   0.953 -0.0454 -2.1171 -2.9645
 4576TIP3    H235144   2.828   3.952   0.871 -0.0725 -0.5117 -0.7036
 4577TIP3   OH235145   3.085   5.728  13.790 -0.2825  0.0248 -0.5271
 4577TIP3    H135146   3.114   5.819  13.798 -0.4095  0.0110  0.1602
 4577TIP3    H235147   3.011   5.731  13.731  1.5517 -0.0301 -2.9987
 4578TIP3   OH235148   4.980   2.859   2.272  0.5536  0.5375  0.1857
 4578TIP3    H135149   5.049   2.924   2.285  3.3186 -2.1938  0.0484
 4578TIP3    H235150   4.969   2.818   2.358 -0.5242  0.5334  0.0586
 4579TIP3   OH235151   0.757   3.758   4.644  0.0898  0.2612  0.3645
 4579TIP3    H135152   0.794   3.708   4.571  1.5343 -0.4950  1.5431
 4579TIP3    H235153   0.686   3.702   4.677 -2.5763  1.8820 -2.1338
 4580TIP3   OH235154   0.608   5.339   0.562  0.1526  0.5047  0.1356
 4580TIP3    H135155   0.531   5.396   0.566  0.0359  0.5391 -1.8224
 4580TIP3    H235156   0.671   5.380   0.621  0.0434  2.6298 -1.1384
 4581TIP3   OH235157   2.567   3.046   4.258  0.4868  0.1104  0.1315
 4581TIP3    H135158   2.611   3.095   4.328  0.6572  1.7263 -1.0587
 4581TIP3    H235159   2.476   3.076   4.262  0.8482  1.5925 -1.4130
 4582TIP3   OH235160   2.598   5.599  15.156  0.2101 -0.3059 -0.3236
 4582TIP3    H135161   2.676   5.560  15.118 -0.6151 -0.4945 -1.9340
 4582TIP3    H235162   2.531   5.590  15.088 -0.7715  1.3517  0.3659
 4583TIP3   OH235163   3.930   5.695   3.725 -0.1402  0.4108  0.0755
 4583TIP3    H135164   3.988   5.649   3.664 -0.7805  0.0909 -0.3003
 4583TIP3    H235165   3.953   5.659   3.811  0.8442  0.9458  0.0489
 4584TIP3   OH235166   2.979   4.832  11.268  0.2454 -0.8388 -0.3905
 4584TIP3    H135167   3.050   4.896  11.274 -0.2305 -0.2808 -0.6251
 4584TIP3    H235168   2.903   4.876  11.304 -0.2638 -1.0051 -1.2228
 4585TIP3   OH235169   2.853   0.578  13.025  0.1996  0.0972 -0.1262
 4585TIP3    H135170   2.896   0.663  13.036 -0.2691  0.2231  0.8581
 4585TIP3    H235171   2.922   0.514  13.043  0.2176  0.2915  0.5440
 4586TIP3   OH235172   4.617   0.439  11.701 -0.1415 -0.5119 -0.4767
 4586TIP3    H135173   4.548   0.455  11.638  0.0008  0.7525 -0.3402
 4586TIP3    H235174   4.688   0.399  11.650  0.4712  1.6356 -1.4505
 4587TIP3   OH235175   0.351   2.303   3.099 -0.3306 -0.4649  0.4470
 4587TIP3    H135176   0.261   2.310   3.067 -0.1484  1.2055  0.2439
 4587TIP3    H235177   0.396   2.379   3.063  0.5755 -0.0015  2.4181
 4588TIP3   OH235178   3.999   6.751   6.687  0.1942  0.0143  0.0282
 4588TIP3    H135179   3.905   6.763   6.671 -0.0444 -0.0466  1.2797
 4588TIP3    H235180   4.022   6.672   6.639 -0.0061  0.9478 -1.6746
 4589TIP3   OH235181   1.613   4.310   4.087  0.2637 -0.5208  0.1049
 4589TIP3    H135182   1.655   4.383   4.134 -1.9771  1.2786 -0.5189
 4589TIP3    H235183   1.663   4.300   4.007  0.9127 -0.0247  0.4436
 4590TIP3   OH235184   3.972   3.385   5.466 -0.1634 -0.3710  0.1879
 4590TIP3    H135185   4.034   3.378   5.393  1.7344 -0.4577  1.7131
 4590TIP3    H235186   3.907   3.448   5.436  1.3374  0.6684 -1.0757
 4591TIP3   OH235187   3.495   5.883  16.123 -0.2287 -0.4009 -0.7385
 4591TIP3    H135188   3.458   5.924  16.045 -0.6376  1.1802  0.2457
 4591TIP3    H235189   3.569   5.938  16.147  1.1503 -1.9991 -1.1102
 4592TIP3   OH235190   5.183   0.661  10.275 -0.5997  0.0118 -0.0451
 4592TIP3    H135191   5.247   0.728  10.252 -0.2782 -0.0978  0.5257
 4592TIP3    H235192   5.100   0.694  10.239 -0.3999  0.6011  0.0252
 4593TIP3   OH235193   6.726   0.893   3.180  0.0382  0.3272  0.0078
 4593TIP3    H135194   6.800   0.918   3.124  0.8205 -1.5863  0.1312
 4593TIP3    H235195   6.661   0.857   3.120  1.2907 -2.7036  0.2884
 4594TIP3   OH235196   2.931   4.479   3.013 -0.0760  0.1194  0.0329
 4594TIP3    H135197   2.994   4.547   3.034  0.8445  0.3407 -3.0156
 4594TIP3    H235198   2.959   4.404   3.066  0.4962  1.2836  1.4489
 4595TIP3   OH235199   2.262   6.024  11.654 -0.2148 -0.8309 -0.1946
 4595TIP3    H135200   2.279   6.117  11.672 -0.5676 -1.1034  1.7951
 4595TIP3    H235201   2.349   5.986  11.639  0.0578 -0.4036  0.2696
 4596TIP3   OH235202   4.584   5.162   0.090  0.1995 -0.2327  0.6447
 4596TIP3    H135203   4.490   5.181   0.096  0.3011  1.3020 -1.4869
 4596TIP3    H235204   4.627   5.247   0.102  1.1086 -0.3178 -1.4672
 4597TIP3   OH235205   6.381   5.553  14.889  0.2488  0.1737 -0.1869
 4597TIP3    H135206   6.427   5.529  14.970 -0.7071 -0.8358  0.0769
 4597TIP3    H235207   6.368   5.470  14.843  0.0069  0.6355 -0.9597
 4598TIP3   OH235208   3.890   2.105   2.444 -0.1653  0.5223  0.4907
 4598TIP3    H135209   3.971   2.144   2.412  0.2643 -1.7000 -1.4861
 4598TIP3    H235210   3.914   2.015   2.467 -1.4498  0.7526  3.0382
 4599TIP3   OH235211   6.074   1.228   5.325 -0.2445 -0.1963  0.1457
 4599TIP3    H135212   6.028   1.293   5.377 -1.6646 -0.1404 -1.1056
 4599TIP3    H235213   6.144   1.197   5.382 -1.1339  0.5399  1.7091
 4600TIP3   OH235214   1.080   2.889  17.123 -0.5435  0.5341  0.3054
 4600TIP3    H135215   1.041   2.842  17.196 -0.5417 -0.5179 -0.3564
 4600TIP3    H235216   1.056   2.980  17.137 -2.6715  0.0179  0.2802
 4601TIP3   OH235217   1.715   1.124  11.236 -0.4778  0.0757  0.1179
 4601TIP3    H135218   1.715   1.057  11.167  0.5800 -0.5161  0.6807
 4601TIP3    H235219   1.622   1.146  11.247 -1.0294 -2.3045  0.8798
 4602TIP3   OH235220   0.721   3.107  13.061 -0.6135 -0.2209 -0.1312
 4602TIP3    H135221   0.720   3.050  13.138  1.9963  0.0053  0.1697
 4602TIP3    H235222   0.681   3.189  13.092  0.2427 -0.1931  0.9820
 4603TIP3   OH235223   2.796   1.087   3.566  0.3170 -0.3803 -0.0042
 4603TIP3    H135224   2.790   1.002   3.609 -0.9125  0.2522  1.1610
 4603TIP3    H235225   2.735   1.143   3.615  0.9487  1.1182 -0.8618
 4604TIP3   OH235226   1.156   0.191  14.677  0.0500 -0.9743  0.2033
 4604TIP3    H135227   1.117   0.146  14.752 -1.1014  1.6876  1.3584
 4604TIP3    H235228   1.238   0.228  14.712 -0.0993 -0.3821 -0.0597
 4605TIP3   OH235229   4.917   5.161  15.498 -0.4732  0.2559  0.5580
 4605TIP3    H135230   4.922   5.128  15.408  1.0758  1.2420  0.2368
 4605TIP3    H235231   4.950   5.090  15.552  4.2457  1.4897 -0.2495
 4606TIP3   OH235232   2.905   3.420   0.027  0.6005  0.1779 -0.1141
 4606TIP3    H135233   2.860   3.436  -0.056  0.0809 -0.6668  0.0019
 4606TIP3    H235234   2.982   3.368   0.003  0.7017  0.3317 -0.1235
 4607TIP3   OH235235   3.260   3.677   0.217  0.3272  0.1518  0.3432
 4607TIP3    H135236   3.329   3.620   0.252  2.2374  2.3176  0.3905
 4607TIP3    H235237   3.179   3.634   0.242  1.6159 -2.4857  0.4043
 4608TIP3   OH235238   1.724   1.535  11.832  0.2254 -0.1600  0.2914
 4608TIP3    H135239   1.664   1.573  11.768 -2.1966 -0.2386  2.3705
 4608TIP3    H235240   1.811   1.554  11.797 -0.9514  0.5573 -2.5278
 4609TIP3   OH235241   1.485   1.756   4.673 -0.5221 -0.7202  0.0827
 4609TIP3    H135242   1.464   1.715   4.757 -1.2586 -0.3239  0.1025
 4609TIP3    H235243   1.422   1.828   4.666  0.4575  0.1214 -0.1602
 4610TIP3   OH235244   5.584   1.125  10.512  0.5933 -0.4149 -0.5726
 4610TIP3    H135245   5.619   1.037  10.501  1.4098 -0.0156 -1.3090
 4610TIP3    H235246   5.640   1.180  10.457  0.0959  0.5631 -0.1258
 4611TIP3   OH235247   1.594   1.030   1.595 -0.3324 -0.5522 -0.0592
 4611TIP3    H135248   1.532   1.033   1.667 -1.1045  0.0333 -0.7204
 4611TIP3    H235249   1.657   1.099   1.614 -0.2236 -0.7533  0.3166
 4612TIP3   OH235250   5.115   1.913   3.519  0.3474 -0.1246  0.0528
 4612TIP3    H135251   5.082   1.996   3.555 -0.6087 -0.8142  0.7931
 4612TIP3    H235252   5.199   1.901   3.563  1.1279  1.0876 -1.0246
 4613TIP3   OH235253   5.854   3.817  13.409 -0.6276  0.1860 -0.5827
 4613TIP3    H135254   5.798   3.764  13.352  0.4881  0.1495 -1.6824
 4613TIP3    H235255   5.828   3.907  13.391  2.0097  0.4943 -3.9081
 4614TIP3   OH235256   4.352   3.265  11.795  0.1642 -0.3923  0.2080
 4614TIP3    H135257   4.340   3.320  11.718 -0.3730 -0.3885  0.2861
 4614TIP3    H235258   4.416   3.311  11.848 -1.8401  1.3161  1.2956
 4615TIP3   OH235259   6.546   5.252   6.090 -0.2370  0.3830 -0.7308
 4615TIP3    H135260   6.562   5.305   6.012 -2.3338  1.4239 -0.5259
 4615TIP3    H235261   6.468   5.201   6.068  0.2172 -0.6769  0.0504
 4616TIP3   OH235262   1.721   5.700   0.594 -0.1079 -0.2400  0.5038
 4616TIP3    H135263   1.672   5.777   0.622 -1.2978 -0.4145 -0.9669
 4616TIP3    H235264   1.758   5.725   0.509  1.0243 -0.6833  0.8440
 4617TIP3   OH235265   6.104   6.084  12.364  0.1573 -0.8461  0.0855
 4617TIP3    H135266   6.037   6.043  12.420 -1.1059  0.4248 -0.4154
 4617TIP3    H235267   6.060   6.096  12.280  0.5586  1.2394  0.1344
 4618TIP3   OH235268   5.889   3.316   2.130  0.3183  0.5430  1.2072
 4618TIP3    H135269   5.944   3.250   2.171 -0.5718  0.8612  3.0443
 4618TIP3    H235270   5.822   3.335   2.195  0.8904  3.7343  1.0372
 4619TIP3   OH235271   1.013   1.980   1.125 -0.0105 -0.4513 -0.1816
 4619TIP3    H135272   1.105   1.967   1.150 -0.1239 -0.4351  0.2421
 4619TIP3    H235273   1.018   2.005   1.032  0.3781 -0.9666 -0.3079
 4620TIP3   OH235274   0.956   5.977   5.825  0.2973 -0.1656  0.0380
 4620TIP3    H135275   1.008   5.954   5.748 -1.2012 -0.3087 -0.9593
 4620TIP3    H235276   0.997   5.928   5.897  0.9205 -1.0636 -0.9021
 4621TIP3   OH235277   3.862   5.702  14.207 -0.3571 -0.2001  0.1718
 4621TIP3    H135278   3.783   5.741  14.168 -0.4308  0.3880  0.8965
 4621TIP3    H235279   3.842   5.693  14.300 -0.9033 -3.3795 -0.1435
 4622TIP3   OH235280   0.882   1.007  15.656 -0.2772  0.4619  0.1076
 4622TIP3    H135281   0.832   1.089  15.660 -1.2966 -0.1828  1.2182
 4622TIP3    H235282   0.819   0.940  15.680  1.0653 -0.4210  1.3144
 4623TIP3   OH235283   0.946   3.118  12.904  0.6313  0.3449  0.2853
 4623TIP3    H135284   0.869   3.141  12.957  1.3451 -0.8630  1.9250
 4623TIP3    H235285   0.969   3.029  12.931  1.8076  0.1501 -1.1740
 4624TIP3   OH235286   6.623   6.362   2.118 -0.1638 -0.0857  0.1795
 4624TIP3    H135287   6.664   6.434   2.166  0.3061 -0.6496  0.6312
 4624TIP3    H235288   6.696   6.306   2.091 -0.5017 -0.2474 -0.4195
 4625TIP3   OH235289   6.312   5.550  14.154 -0.1412  0.0847  0.3986
 4625TIP3    H135290   6.348   5.461  14.150 -1.5587 -0.5052 -0.0231
 4625TIP3    H235291   6.346   5.593  14.075 -0.8716 -0.6772 -0.3493
 4626TIP3   OH235292   5.888   3.567   0.641  0.0635 -0.3526 -0.1973
 4626TIP3    H135293   5.822   3.576   0.709  0.9114  0.6377  0.5311
 4626TIP3    H235294   5.851   3.504   0.580 -0.5144 -1.6799  1.4403
 4627TIP3   OH235295   1.870   5.735  15.343 -0.9268  0.0665  1.0589
 4627TIP3    H135296   1.922   5.786  15.281 -0.2330 -0.6474  1.0377
 4627TIP3    H235297   1.904   5.645  15.335 -1.7069 -0.2825  1.5350
 4628TIP3   OH235298   2.251   1.085  14.828  0.2688  0.0586  0.2497
 4628TIP3    H135299   2.161   1.094  14.796  0.4410 -0.5316 -0.4237
 4628TIP3    H235300   2.305   1.124  14.759  0.4371  2.0980  1.4767
 4629TIP3   OH235301   6.462   5.277  16.614  0.3052  0.3980 -0.4644
 4629TIP3    H135302   6.493   5.315  16.697  1.0457  0.7933 -0.9090
 4629TIP3    H235303   6.455   5.184  16.633 -1.3694  0.7026  0.5914
 4630TIP3   OH235304   6.164   3.347   6.261 -0.5636 -0.9801  0.5185
 4630TIP3    H135305   6.235   3.375   6.319 -1.5475  0.3181  1.1446
 4630TIP3    H235306   6.155   3.419   6.198 -2.1384 -0.5160  1.2261
 4631TIP3   OH235307   2.299   4.059   2.138 -0.7160  0.0740  0.0423
 4631TIP3    H135308   2.374   4.112   2.164 -1.3618 -0.0588  2.3953
 4631TIP3    H235309   2.333   4.003   2.068 -0.1025  3.6989 -2.7991
 4632TIP3   OH235310   4.713   6.153  15.512  0.9530 -0.4955  0.1278
 4632TIP3    H135311   4.768   6.083  15.476  0.8895 -0.5050  0.0497
 4632TIP3    H235312   4.663   6.110  15.581  0.6386 -0.6159 -0.1708
 4633TIP3   OH235313   5.999   2.722  10.876 -0.1757 -0.6760 -0.3791
 4633TIP3    H135314   5.970   2.765  10.956 -0.3623  0.0000 -0.8042
 4633TIP3    H235315   6.087   2.756  10.860 -0.7692  0.4617 -1.3466
 4634TIP3   OH235316   3.238   3.844   3.576 -0.5447  0.2683  0.5052
 4634TIP3    H135317   3.189   3.795   3.642 -1.5888  1.2477  0.4789
 4634TIP3    H235318   3.174   3.861   3.507 -0.4399  2.3015  0.8507
 4635TIP3   OH235319   3.338   1.798   1.907 -0.2431  0.2730 -0.5890
 4635TIP3    H135320   3.392   1.875   1.891  1.1277 -0.2949  1.1040
 4635TIP3    H235321   3.350   1.778   2.000 -1.3459 -1.4072 -0.7577
 4636TIP3   OH235322   0.429   1.993   0.474 -0.0367 -0.1968 -0.0424
 4636TIP3    H135323   0.394   2.038   0.551  1.9874  3.4300 -1.0268
 4636TIP3    H235324   0.524   1.993   0.487  0.2740 -0.6806 -1.9333
 4637TIP3   OH235325   0.629   1.873   5.156  0.4790  0.3421 -0.2651
 4637TIP3    H135326   0.623   1.778   5.147 -2.7353  0.2966  0.9954
 4637TIP3    H235327   0.709   1.887   5.206 -0.2618 -1.9750  1.7882
 4638TIP3   OH235328   5.551   2.800   6.391  0.4309 -0.0194 -0.3574
 4638TIP3    H135329   5.490   2.872   6.409 -1.1378 -1.2924 -0.4018
 4638TIP3    H235330   5.564   2.803   6.296  1.6014  1.1322 -0.1858
 4639TIP3   OH235331   4.925   3.588   5.678 -0.6368 -0.4531  0.1969
 4639TIP3    H135332   4.975   3.667   5.698  0.1594 -0.8063 -0.3558
 4639TIP3    H235333   4.835   3.611   5.699 -0.5049  0.8171 -0.5547
 4640TIP3   OH235334   6.489   5.552  11.409  0.2214 -0.0719 -0.2107
 4640TIP3    H135335   6.532   5.482  11.458  1.4469 -0.4214 -1.7150
 4640TIP3    H235336   6.401   5.520  11.392  0.2507 -0.5491  0.5099
 4641TIP3   OH235337   2.627   1.924   0.170 -0.2618 -0.2385  0.0615
 4641TIP3    H135338   2.686   1.936   0.245 -1.0202 -2.6588  1.1135
 4641TIP3    H235339   2.646   1.999   0.114  1.7975  0.5706  1.6907
 4642TIP3   OH235340   4.508   2.896   2.578  0.1140 -0.0520  0.4325
 4642TIP3    H135341   4.431   2.849   2.546 -0.7338  1.6134 -0.0730
 4642TIP3    H235342   4.490   2.912   2.670 -0.0735  0.1705  0.3589
 4643TIP3   OH235343   4.343   5.196  16.627 -0.2671 -0.2966  0.2044
 4643TIP3    H135344   4.371   5.137  16.557 -1.1809 -0.4394 -0.0553
 4643TIP3    H235345   4.421   5.248  16.647 -0.2706  0.5786 -1.7402
 4644TIP3   OH235346   4.534   0.094  12.820 -0.2685  0.4268 -0.7460
 4644TIP3    H135347   4.514   0.158  12.888 -0.9793  0.4559 -0.9808
 4644TIP3    H235348   4.624   0.066  12.839 -0.5673  0.2106  0.3817
 4645TIP3   OH235349   6.191   6.220   1.204 -0.3443 -0.1657  0.2793
 4645TIP3    H135350   6.236   6.304   1.203 -0.6371  0.0446  1.9196
 4645TIP3    H235351   6.100   6.241   1.183 -0.6189  0.0948  1.6324
 4646TIP3   OH235352   1.948   2.136   2.906  0.0637  0.7211  0.4487
 4646TIP3    H135353   2.039   2.137   2.937  0.2705 -0.2750 -0.1096
 4646TIP3    H235354   1.951   2.175   2.819  0.4048 -1.6817 -0.6864
 4647TIP3   OH235355   1.238   1.476  14.600  0.6074  0.1884  0.1683
 4647TIP3    H135356   1.171   1.429  14.650  1.1821 -0.7037  0.1282
 4647TIP3    H235357   1.215   1.460  14.509  1.5331 -1.1665  0.1316
 4648TIP3   OH235358   6.224   2.507   2.144  0.8303 -0.1770  0.2383
 4648TIP3    H135359   6.193   2.430   2.097  0.9506 -0.6726  0.9561
 4648TIP3    H235360   6.312   2.483   2.173  2.1471  1.3534 -2.1237
 4649TIP3   OH235361   4.060   2.755  15.007  0.3216  0.5990  0.0521
 4649TIP3    H135362   3.998   2.765  14.935 -0.6579  0.2879  0.8322
 4649TIP3    H235363   4.068   2.660  15.019  2.6255  0.5053 -1.4117
 4650TIP3   OH235364   6.507   5.121   0.165  0.0165  0.2948  0.6341
 4650TIP3    H135365   6.522   5.028   0.184 -1.5080 -0.0705  0.2348
 4650TIP3    H235366   6.507   5.163   0.251  1.3794  0.0498  0.7689
 4651TIP3   OH235367   2.135   2.481   2.760 -0.6112 -0.1268  0.9486
 4651TIP3    H135368   2.139   2.492   2.855 -0.3773 -0.6903  1.0114
 4651TIP3    H235369   2.218   2.439   2.738 -1.4267 -1.7120  0.7464
 4652TIP3   OH235370   4.708   6.075  12.883 -0.2893  0.1076  0.2770
 4652TIP3    H135371   4.642   6.049  12.818  0.5401 -0.1387 -0.4813
 4652TIP3    H235372   4.772   6.004  12.882  0.2028  0.5429  0.7034
 4653TIP3   OH235373   4.946   6.519   4.446 -0.3745 -0.5095 -0.1955
 4653TIP3    H135374   5.039   6.538   4.437  0.2176 -2.8317  0.5049
 4653TIP3    H235375   4.938   6.479   4.533 -2.4112  1.5982  0.6966
 4654TIP3   OH235376   5.041   0.561  16.822  0.5257  0.6818  0.2939
 4654TIP3    H135377   5.072   0.472  16.802  0.6875  0.7048  0.4359
 4654TIP3    H235378   5.031   0.561  16.917 -1.3479  0.2089  0.1420
 4655TIP3   OH235379   0.085   1.415  11.125  0.2349  0.1738 -0.4100
 4655TIP3    H135380   0.072   1.380  11.037 -0.4395 -1.9885  0.4849
 4655TIP3    H235381   0.166   1.375  11.155  0.6047  1.1095 -0.1173
 4656TIP3   OH235382   2.999   6.770  14.011 -0.0905  0.3367  0.1428
 4656TIP3    H135383   3.035   6.842  14.063  0.5420 -0.4267  0.7725
 4656TIP3    H235384   3.068   6.705  14.009 -0.5193 -0.1013 -0.7521
 4657TIP3   OH235385   3.588   0.035   5.298  0.1914  0.1062  0.6294
 4657TIP3    H135386   3.585  -0.006   5.385 -0.3757  0.2932  0.7038
 4657TIP3    H235387   3.538   0.117   5.309 -0.7489 -0.3422 -0.1203
 4658TIP3   OH235388   2.712   1.048  11.235 -0.5784 -0.7615 -0.1445
 4658TIP3    H135389   2.638   1.024  11.178 -1.1432 -0.7560  0.5653
 4658TIP3    H235390   2.775   1.090  11.177 -1.4690 -0.0742 -0.6371
 4659TIP3   OH235391   4.968   1.104   1.825 -0.4202  0.0251 -0.1296
 4659TIP3    H135392   4.894   1.143   1.778 -1.5781 -0.4869  1.2173
 4659TIP3    H235393   4.935   1.087   1.913  0.6133 -2.2501 -0.1134
 4660TIP3   OH235394   1.415   6.509   0.489 -0.2855 -0.1656  0.1484
 4660TIP3    H135395   1.364   6.581   0.526 -1.3247 -0.2304 -1.1267
 4660TIP3    H235396   1.480   6.551   0.433 -0.0668 -0.1776  0.3865
 4661TIP3   OH235397   6.379   0.733   1.665  0.6112 -0.0747 -0.2649
 4661TIP3    H135398   6.371   0.667   1.734  0.5680  0.9147  0.6966
 4661TIP3    H235399   6.473   0.737   1.648  0.8268  0.8798  0.9747
 4662TIP3   OH235400   6.743   0.991   1.753 -0.4039 -0.1367 -0.1333
 4662TIP3    H135401   6.785   1.043   1.822 -0.2214 -0.8378  0.2857
 4662TIP3    H235402   6.816   0.953   1.704 -0.4918  1.2790 -1.4625
 4663TIP3   OH235403   2.492   4.674  14.659 -0.9136  0.2932 -0.1155
 4663TIP3    H135404   2.526   4.682  14.569 -2.1023  2.8565 -0.4150
 4663TIP3    H235405   2.450   4.588  14.661  1.3327 -0.9360 -1.1669
 4664TIP3   OH235406   5.955   4.739  15.895  0.3039  0.1766  0.4413
 4664TIP3    H135407   5.956   4.649  15.861  1.0566  0.4608 -0.3032
 4664TIP3    H235408   6.013   4.736  15.971  0.5908  0.1095  0.2191
 4665TIP3   OH235409   0.541   0.777  14.240  0.0444  0.6060  0.1775
 4665TIP3    H135410   0.629   0.779  14.278 -0.0268 -0.2817  0.4119
 4665TIP3    H235411   0.527   0.685  14.216 -0.6602  0.8107 -0.2330
 4666TIP3   OH235412   2.751   1.253   2.954 -1.0650 -0.2614  0.1715
 4666TIP3    H135413   2.767   1.216   2.867  1.0686 -0.5493  0.6348
 4666TIP3    H235414   2.755   1.348   2.941  2.6087 -0.2692  0.4078
 4667TIP3   OH235415   5.556   6.178   4.850  0.2457  0.3375  0.3034
 4667TIP3    H135416   5.646   6.171   4.880 -0.1623  0.0419  1.4927
 4667TIP3    H235417   5.546   6.106   4.787  0.7709  0.2539  0.3152
 4668TIP3   OH235418   1.988   5.631   2.142  0.3122 -0.7789  0.1892
 4668TIP3    H135419   1.993   5.722   2.113  2.6332 -1.3252 -1.4335
 4668TIP3    H235420   1.913   5.595   2.095  0.0954  0.0038 -0.0777
 4669TIP3   OH235421   4.492   2.026  15.085  0.4760  0.0988 -0.1947
 4669TIP3    H135422   4.533   2.087  15.024  2.3378  0.0438  0.8931
 4669TIP3    H235423   4.418   2.074  15.122 -0.6224  0.1648 -2.3484
 4670TIP3   OH235424   1.226   2.277  11.270  0.3953 -0.3226 -0.1952
 4670TIP3    H135425   1.222   2.370  11.247 -0.0984 -0.7304 -1.8680
 4670TIP3    H235426   1.209   2.275  11.364 -3.8553  1.0242 -0.7369
 4671TIP3   OH235427   3.022   0.819   1.829 -0.0535 -0.7746  0.5147
 4671TIP3    H135428   3.083   0.893   1.835 -0.2028 -0.5731 -0.3042
 4671TIP3    H235429   3.003   0.796   1.920  0.2726 -0.0323  0.7787
 4672TIP3   OH235430   4.459   0.494  13.837  0.5000 -0.2709 -1.0968
 4672TIP3    H135431   4.504   0.545  13.905  1.9364 -1.3465 -1.1915
 4672TIP3    H235432   4.459   0.552  13.761 -0.4385  0.6521 -0.4138
 4673TIP3   OH235433   5.508   5.027   4.268  0.7124 -0.4360  0.5707
 4673TIP3    H135434   5.495   5.034   4.362  0.9481  0.5305  0.5414
 4673TIP3    H235435   5.591   4.980   4.259  1.7302  1.2128  0.9017
 4674TIP3   OH235436   2.512   0.052   4.762  0.0118 -0.0695 -0.7287
 4674TIP3    H135437   2.537   0.060   4.854 -0.4281 -0.9500 -0.5208
 4674TIP3    H235438   2.545  -0.034   4.735  1.1014  0.6423 -1.7161
 4675TIP3   OH235439   6.674   3.780  12.080 -0.3276 -0.4459 -0.1803
 4675TIP3    H135440   6.690   3.790  12.174 -0.5184 -2.0949  0.0672
 4675TIP3    H235441   6.582   3.756  12.074  0.0627 -1.9207 -0.6293
 4676TIP3   OH235442   2.506   6.576  14.017  0.3067 -0.4518 -0.0431
 4676TIP3    H135443   2.556   6.534  14.087  0.7840  1.2521  0.6806
 4676TIP3    H235444   2.572   6.609  13.956 -0.0607 -0.6108 -0.5372
 4677TIP3   OH235445   5.802   1.808   2.490 -0.0697  0.3381 -0.8294
 4677TIP3    H135446   5.730   1.746   2.492  1.7644 -1.8813  0.1667
 4677TIP3    H235447   5.800   1.849   2.576  2.0062 -2.4820  0.7131
 4678TIP3   OH235448   3.711   5.052  16.479  0.4271 -0.0007 -0.3226
 4678TIP3    H135449   3.727   5.133  16.528 -0.2984  0.5733 -1.0010
 4678TIP3    H235450   3.734   4.982  16.540  0.5677  0.7112  0.4586
 4679TIP3   OH235451   6.416   6.495  12.902  0.0062 -0.3349  0.0130
 4679TIP3    H135452   6.347   6.491  12.835  2.1725  0.2267 -2.4460
 4679TIP3    H235453   6.414   6.586  12.932 -0.9270 -0.5650  0.6761
 4680TIP3   OH235454   1.608   4.774   0.212  0.2677 -0.3905 -0.0044
 4680TIP3    H135455   1.624   4.685   0.244 -0.7038 -0.3714  0.5584
 4680TIP3    H235456   1.691   4.799   0.170  0.8799 -1.1844  0.6869
 4681TIP3   OH235457   6.484   6.462  13.661  0.1157  0.1430 -0.0565
 4681TIP3    H135458   6.536   6.401  13.713 -0.0777  0.3426  0.3772
 4681TIP3    H235459   6.525   6.547  13.675 -1.1832  0.5703  1.5037
 4682TIP3   OH235460   0.483   2.742  13.910 -0.2675  0.3823 -0.2967
 4682TIP3    H135461   0.433   2.813  13.951 -0.0697  0.4893 -0.2383
 4682TIP3    H235462   0.543   2.713  13.979 -0.4332  0.0725 -0.2786
 4683TIP3   OH235463   3.096   3.816   5.697 -0.2315  0.3391 -0.1818
 4683TIP3    H135464   3.096   3.773   5.612 -1.3879 -0.2871  0.1046
 4683TIP3    H235465   3.147   3.896   5.685  0.7435 -0.4069 -1.1031
 4684TIP3   OH235466   4.926   1.698  11.973  0.3553  0.4857  0.5667
 4684TIP3    H135467   4.980   1.640  11.920  0.0082 -1.5102  2.2739
 4684TIP3    H235468   4.845   1.708  11.922  1.0095  0.7575 -0.4520
 4685TIP3   OH235469   1.005   6.707   2.196 -0.1280 -0.3442  0.0029
 4685TIP3    H135470   1.043   6.625   2.165 -1.4236 -1.0297  0.1549
 4685TIP3    H235471   0.934   6.725   2.133 -1.7772 -0.9291  1.6172
 4686TIP3   OH235472   4.334   0.510  12.695 -0.6886 -0.4614  0.1146
 4686TIP3    H135473   4.397   0.484  12.629  0.2283 -1.9498  1.5115
 4686TIP3    H235474   4.277   0.434  12.706 -1.8958  0.3723 -0.1278
 4687TIP3   OH235475   4.258   2.650  15.914  0.1830  0.4239 -0.5212
 4687TIP3    H135476   4.351   2.666  15.897  0.2046  0.0093 -0.8086
 4687TIP3    H235477   4.249   2.554  15.913 -0.3877  0.4708 -1.3037
 4688TIP3   OH235478   1.339   2.515  11.764  0.2845  0.0102 -0.0365
 4688TIP3    H135479   1.406   2.544  11.827  0.0109 -0.7269  0.6015
 4688TIP3    H235480   1.266   2.486  11.818  0.0023 -0.5350 -0.6979
 4689TIP3   OH235481   0.804   5.046  13.751 -0.5240  0.5167 -0.2695
 4689TIP3    H135482   0.747   5.117  13.721 -0.4513  0.9912  0.6667
 4689TIP3    H235483   0.888   5.064  13.707 -0.7392  0.5296 -0.6824
 4690TIP3   OH235484   2.061   0.400   2.001 -0.2183  0.1826  0.4811
 4690TIP3    H135485   1.987   0.340   1.991  0.2203 -0.4352  0.8511
 4690TIP3    H235486   2.028   0.469   2.058 -0.1514 -0.7300  1.6599
 4691TIP3   OH235487   0.314   3.098   2.966 -0.0512 -0.6301 -0.1114
 4691TIP3    H135488   0.350   3.094   3.055 -1.4508  1.8809  0.6801
 4691TIP3    H235489   0.271   3.013   2.954 -0.5211 -0.7451  1.9713
 4692TIP3   OH235490   4.250   1.332  15.728 -0.5073  0.5995  0.3229
 4692TIP3    H135491   4.177   1.389  15.752 -1.4217  0.0945 -1.1279
 4692TIP3    H235492   4.327   1.389  15.728 -1.3342  1.7626 -0.7318
 4693TIP3   OH235493   5.980   6.515  13.902  0.0947  0.2083 -0.3628
 4693TIP3    H135494   5.958   6.605  13.924  2.1171  0.6184  0.1543
 4693TIP3    H235495   6.075   6.509  13.913  0.1679 -1.6965 -1.4483
 4694TIP3   OH235496   5.031   3.008  13.207  0.1310  0.2736  0.3137
 4694TIP3    H135497   4.974   2.957  13.150 -0.9788  0.7407  0.9740
 4694TIP3    H235498   5.081   2.942  13.255 -0.3414 -0.1622  0.2152
 4695TIP3   OH235499   4.214   4.008   3.619 -0.3690 -0.4515 -0.4105
 4695TIP3    H135500   4.206   4.057   3.701  0.3185 -0.9069 -0.0617
 4695TIP3    H235501   4.168   3.926   3.636 -0.5246 -0.4047 -0.6019
 4696TIP3   OH235502   0.535   0.833  10.945 -0.3096  0.1781 -0.0818
 4696TIP3    H135503   0.541   0.901  10.879 -1.2053  0.1533 -0.2006
 4696TIP3    H235504   0.575   0.872  11.023  2.0220 -0.2777 -0.9629
 4697TIP3   OH235505   4.782   4.367   1.177 -0.1733  0.1964 -0.2498
 4697TIP3    H135506   4.869   4.383   1.213 -0.5470  0.3637  0.5798
 4697TIP3    H235507   4.799   4.334   1.088  0.7380 -0.0996  0.0261
 4698TIP3   OH235508   3.410   4.379   2.337  0.5471 -0.4999 -0.1188
 4698TIP3    H135509   3.370   4.303   2.378  0.3190 -0.6770 -0.6600
 4698TIP3    H235510   3.462   4.420   2.407 -1.4528  0.3859  0.9431
 4699TIP3   OH235511   2.632   4.411  14.957 -0.7787  0.1031 -0.2627
 4699TIP3    H135512   2.680   4.479  14.910 -0.2564 -0.2960 -0.3211
 4699TIP3    H235513   2.669   4.412  15.045 -1.2276  0.3356 -0.0757
 4700TIP3   OH235514   5.728   2.824  11.406 -0.4938  0.3868  0.4766
 4700TIP3    H135515   5.666   2.760  11.441  1.0289 -1.7145 -0.4658
 4700TIP3    H235516   5.809   2.808  11.455 -0.3809  2.4103  1.0152
 4701TIP3   OH235517   1.808   3.535   4.777 -0.5475  0.9295 -0.3079
 4701TIP3    H135518   1.832   3.522   4.869  0.6159 -1.7986 -0.9157
 4701TIP3    H235519   1.724   3.491   4.767 -0.3541  0.6408 -0.6917
 4702TIP3   OH235520   4.107   2.251   1.761  0.0547  0.3263 -0.4869
 4702TIP3    H135521   4.123   2.326   1.704  0.0572 -0.2803 -1.2926
 4702TIP3    H235522   4.025   2.272   1.806 -0.8484  0.0806 -1.9476
 4703TIP3   OH235523   3.830   1.340   3.648 -0.1557 -0.4342 -0.1285
 4703TIP3    H135524   3.812   1.338   3.742 -0.8038  0.8762 -0.2083
 4703TIP3    H235525   3.909   1.392   3.639 -0.9198  0.7278 -0.3968
 4704TIP3   OH235526   2.761   0.408  16.253 -0.0778 -0.1156  0.0730
 4704TIP3    H135527   2.698   0.344  16.286 -1.7454  0.4438 -1.7755
 4704TIP3    H235528   2.720   0.493  16.271  1.3293  0.4007  1.0160
 4705TIP3   OH235529   2.169   5.625   3.547  0.1529  0.3351  0.3123
 4705TIP3    H135530   2.212   5.699   3.504  0.7760  0.1311  0.5813
 4705TIP3    H235531   2.077   5.652   3.554  0.2719  0.8587 -0.0746
 4706TIP3   OH235532   5.465   1.834  15.541 -0.5322 -0.0210 -0.0906
 4706TIP3    H135533   5.554   1.853  15.572 -0.4425 -0.6366  0.0308
 4706TIP3    H235534   5.409   1.881  15.602 -0.2651  1.7520 -1.1359
 4707TIP3   OH235535   1.346   1.134   2.189 -0.2826  0.6748  0.2957
 4707TIP3    H135536   1.286   1.114   2.117 -0.1094  0.6135  0.1674
 4707TIP3    H235537   1.294   1.120   2.268 -0.0296 -0.7971  0.2337
 4708TIP3   OH235538   6.168   1.291  12.250 -0.6842  0.6174  0.3382
 4708TIP3    H135539   6.238   1.300  12.185 -0.4700  0.0865  0.4931
 4708TIP3    H235540   6.107   1.362  12.229 -1.1648 -0.1904 -1.1242
 4709TIP3   OH235541   2.561   1.783   1.291  0.0053  0.4972 -0.2888
 4709TIP3    H135542   2.520   1.862   1.326 -0.1744  0.3087 -0.0703
 4709TIP3    H235543   2.488   1.723   1.274  0.2686 -0.3218  1.3123
 4710TIP3   OH235544   6.059   4.849  13.056  0.1018 -0.0788 -0.0256
 4710TIP3    H135545   6.134   4.909  13.048 -0.9440  1.2609 -0.1347
 4710TIP3    H235546   5.983   4.906  13.053 -0.8946 -1.1417  2.4787
 4711TIP3   OH235547   6.314   2.929   1.108 -0.4372 -0.2302 -0.5244
 4711TIP3    H135548   6.366   2.852   1.127  0.4222  0.1582 -1.2410
 4711TIP3    H235549   6.224   2.897   1.101 -0.1455 -1.0855 -0.3931
 4712TIP3   OH235550   4.944   0.698   3.448  0.5380 -0.0733  0.2423
 4712TIP3    H135551   4.916   0.626   3.504  0.7345 -0.1738  0.2137
 4712TIP3    H235552   4.983   0.762   3.508 -0.3089  0.3511  0.3582
 4713TIP3   OH235553   3.687   1.706   4.202  0.5764 -0.2670  0.4165
 4713TIP3    H135554   3.720   1.621   4.232  0.1838 -0.3558  0.5905
 4713TIP3    H235555   3.761   1.744   4.154  0.2261 -1.4280 -1.1240
 4714TIP3   OH235556   6.501   0.304  12.654 -0.4130 -0.0104  0.1254
 4714TIP3    H135557   6.592   0.312  12.682 -0.6846 -0.5410  1.2508
 4714TIP3    H235558   6.455   0.373  12.702 -0.8870 -0.9233  1.0396
 4715TIP3   OH235559   5.495   5.981  15.316 -0.1473  0.1222 -0.3048
 4715TIP3    H135560   5.448   5.980  15.233  0.4350 -0.1226 -0.6401
 4715TIP3    H235561   5.437   5.937  15.378 -1.5462  2.1957 -0.0307
 4716TIP3   OH235562   5.504   6.702  14.254 -0.2669 -0.3328 -0.2639
 4716TIP3    H135563   5.499   6.736  14.343  0.0850 -0.4373 -0.2033
 4716TIP3    H235564   5.474   6.774  14.199  0.9173  0.2484 -0.1735
 4717TIP3   OH235565   6.599   1.311  13.871  0.3324  0.8455 -0.7184
 4717TIP3    H135566   6.537   1.384  13.869 -1.3605 -0.3251  2.2404
 4717TIP3    H235567   6.559   1.244  13.815 -1.7405 -0.2282  1.8341
 4718TIP3   OH235568   6.001   0.200  16.568  0.1718 -0.1300  0.3689
 4718TIP3    H135569   5.966   0.235  16.486  0.7448 -0.6009 -0.0888
 4718TIP3    H235570   6.022   0.109  16.548  1.7774  0.1716  0.5701
 4719TIP3   OH235571   6.622   4.098   0.977  0.4454 -0.1727 -0.5003
 4719TIP3    H135572   6.527   4.108   0.982  0.5398  0.2634  0.7763
 4719TIP3    H235573   6.655   4.186   0.958  0.6167 -0.2458 -0.5458
 4720TIP3   OH235574   2.550   6.569   4.724  0.0569  0.1513 -0.1249
 4720TIP3    H135575   2.458   6.543   4.723  0.1279 -0.1232 -1.3995
 4720TIP3    H235576   2.586   6.526   4.802 -0.4826 -1.3132 -0.6436
 4721TIP3   OH235577   6.453   2.148  14.363 -0.1955 -0.8339 -0.9011
 4721TIP3    H135578   6.437   2.070  14.417 -0.1628  0.2101  0.6835
 4721TIP3    H235579   6.393   2.214  14.398  1.1675  0.4455 -0.8654
 4722TIP3   OH235580   3.273   3.399   1.505 -0.4135 -0.0771 -0.1200
 4722TIP3    H135581   3.282   3.359   1.592 -1.6443  1.1889  0.6204
 4722TIP3    H235582   3.201   3.460   1.514 -1.1222 -0.5145 -2.2906
 4723TIP3   OH235583   6.672   1.324   4.308 -0.3469  0.0856  0.2821
 4723TIP3    H135584   6.623   1.244   4.287  1.0490 -0.4201 -1.2845
 4723TIP3    H235585   6.662   1.379   4.229  0.0843  0.7543  0.6866
 4724TIP3   OH235586   4.171   4.788   1.092 -0.8681  0.2634 -0.1464
 4724TIP3    H135587   4.206   4.740   1.167  0.7688  1.0201 -0.3780
 4724TIP3    H235588   4.107   4.848   1.129 -0.5806  0.1438  0.5592
 4725TIP3   OH235589   3.615   5.964   1.296 -0.3651 -0.3129  0.1489
 4725TIP3    H135590   3.646   5.888   1.247  0.6671  0.6321 -0.6996
 4725TIP3    H235591   3.534   5.933   1.338  0.3502 -2.0593  0.3424
 4726TIP3   OH235592   4.901   3.062   3.044  0.9995  0.4150 -0.3669
 4726TIP3    H135593   4.959   3.021   3.108  2.8045  0.6700 -1.7573
 4726TIP3    H235594   4.926   3.154   3.044 -0.0238  0.7097 -0.3820
 4727TIP3   OH235595   6.095   3.648   3.465 -0.6085  0.1972  0.6645
 4727TIP3    H135596   6.176   3.672   3.509 -0.3279 -0.0387  0.2824
 4727TIP3    H235597   6.026   3.680   3.523 -0.2736  2.9498 -0.3230
 4728TIP3   OH235598   2.852   6.127  13.469 -0.5455  0.1448  0.5047
 4728TIP3    H135599   2.822   6.207  13.513 -0.6184  0.4990 -0.1846
 4728TIP3    H235600   2.945   6.142  13.453 -0.7634  0.5099 -0.4987
 4729TIP3   OH235601   2.060   3.242   2.827 -0.8476  0.8318  0.3102
 4729TIP3    H135602   2.137   3.290   2.858 -0.4466  1.7008 -1.8509
 4729TIP3    H235603   2.096   3.168   2.778 -1.4126  0.4956  0.4030
 4730TIP3   OH235604   5.315   0.560  12.261 -0.2229 -0.3837 -0.1920
 4730TIP3    H135605   5.363   0.503  12.201  0.9599  0.4906 -0.1051
 4730TIP3    H235606   5.364   0.642  12.261 -0.3504 -0.2573  1.7307
 4731TIP3   OH235607   2.300   6.456  16.057  0.3245  0.4712 -0.9148
 4731TIP3    H135608   2.303   6.398  15.980  0.9027  2.1364 -2.2107
 4731TIP3    H235609   2.208   6.482  16.064 -0.0754 -1.0675  0.0936
 4732TIP3   OH235610   5.959   5.548  15.201  0.1740  0.3478 -0.1576
 4732TIP3    H135611   5.941   5.550  15.107  0.4999  1.4109 -0.2154
 4732TIP3    H235612   6.044   5.506  15.209  0.6580  1.2516 -0.4439
 4733TIP3   OH235613   2.184   6.350  12.241  0.0683 -0.0366 -0.0746
 4733TIP3    H135614   2.155   6.276  12.187 -1.4242 -0.0630  0.7253
 4733TIP3    H235615   2.272   6.325  12.270 -0.9199 -2.1874  1.3392
 4734TIP3   OH235616   1.558   3.936   5.068 -0.0445 -0.8470  0.3376
 4734TIP3    H135617   1.468   3.968   5.059  0.2328 -0.1589 -0.0209
 4734TIP3    H235618   1.574   3.938   5.163  0.3228  1.1348  0.2834
 4735TIP3   OH235619   3.576   1.199  12.857  0.1674 -0.8434  0.4424
 4735TIP3    H135620   3.635   1.136  12.898  1.5273 -0.2496 -0.5249
 4735TIP3    H235621   3.627   1.237  12.786 -2.2917 -2.3984 -2.4190
 4736TIP3   OH235622   5.942   1.881  11.690  0.0420 -0.2064 -0.1989
 4736TIP3    H135623   6.012   1.880  11.755  0.0208 -0.4006 -0.1789
 4736TIP3    H235624   5.915   1.789  11.682 -0.3990 -0.0954 -0.0027
 4737TIP3   OH235625   5.408   6.182  16.118 -0.1574  0.0487 -0.0566
 4737TIP3    H135626   5.488   6.163  16.166  0.2329  0.2536 -0.6167
 4737TIP3    H235627   5.397   6.108  16.059  0.2182  0.5263 -0.7450
 4738TIP3   OH235628   2.116   5.052  14.278  0.1934  0.6458 -0.0692
 4738TIP3    H135629   2.074   4.975  14.316 -1.1406  1.3584 -0.0064
 4738TIP3    H235630   2.204   5.024  14.256 -0.6085 -1.2157 -1.1072
 4739TIP3   OH235631   6.506   4.586  12.347  0.1887 -0.2206  0.0094
 4739TIP3    H135632   6.495   4.678  12.325 -2.0692 -0.9654 -2.3664
 4739TIP3    H235633   6.587   4.560  12.304  0.8969  0.6288  0.7865
 4740TIP3   OH235634   1.387   3.556   5.135 -0.1276 -0.6147 -0.1728
 4740TIP3    H135635   1.434   3.473   5.127 -0.0095 -0.6556  0.8745
 4740TIP3    H235636   1.295   3.531   5.147  0.0110 -0.6390  0.9725
 4741TIP3   OH235637   0.826   4.698  17.154 -0.2767 -0.0520 -0.2861
 4741TIP3    H135638   0.896   4.685  17.091  1.1702 -0.4056  1.3493
 4741TIP3    H235639   0.827   4.793  17.171  0.9530 -0.2750  0.9885
 4742TIP3   OH235640   2.596   2.327   1.632  0.4382  0.0498  0.2619
 4742TIP3    H135641   2.508   2.363   1.624  1.3449  2.7826  1.3261
 4742TIP3    H235642   2.591   2.267   1.706 -0.4223  0.7382  0.7812
 4743TIP3   OH235643   2.582   6.055  16.665  0.6262 -0.2900  0.4198
 4743TIP3    H135644   2.647   6.002  16.710 -0.1493 -0.4535  1.3695
 4743TIP3    H235645   2.604   6.146  16.687  0.3056 -0.3657  1.0578
 4744TIP3   OH235646   4.222   0.734  13.971 -0.4273 -0.5434  0.1291
 4744TIP3    H135647   4.292   0.799  13.967  0.2611 -1.1843  1.2235
 4744TIP3    H235648   4.172   0.757  14.049 -0.1628 -1.3306  0.5395
 4745TIP3   OH235649   3.503   1.474   3.182  0.2363  0.2168  0.0770
 4745TIP3    H135650   3.553   1.438   3.255 -0.5694 -1.0457  0.0539
 4745TIP3    H235651   3.411   1.465   3.209 -0.0768 -0.3011 -1.0732
 4746TIP3   OH235652   4.661   6.077  12.565 -0.4301 -0.2792 -0.0803
 4746TIP3    H135653   4.717   6.012  12.522 -1.6868 -1.2064 -0.3768
 4746TIP3    H235654   4.722   6.141  12.601  0.8469 -1.5853  0.1674
 4747TIP3   OH235655   3.813   1.567  16.111 -0.0042 -0.2978  0.6985
 4747TIP3    H135656   3.851   1.483  16.139 -0.2966 -1.0334 -0.9701
 4747TIP3    H235657   3.721   1.546  16.091  0.3570 -0.0324 -1.4658
 4748TIP3   OH235658   0.792   0.107   4.224 -0.4383  0.6128  0.7153
 4748TIP3    H135659   0.878   0.066   4.237 -0.1689  0.1616 -2.0152
 4748TIP3    H235660   0.811   0.201   4.221 -0.2791  0.6191  1.5327
 4749TIP3   OH235661   5.352   0.285   5.537  0.1924 -0.6169  0.2347
 4749TIP3    H135662   5.409   0.257   5.609  2.1537  0.8533 -0.6546
 4749TIP3    H235663   5.408   0.279   5.459 -1.1370  0.1431 -0.8098
 4750TIP3   OH235664   3.638   5.396   0.006 -0.0763 -0.0762  0.3399
 4750TIP3    H135665   3.620   5.304   0.029  0.0134  0.3658  2.3565
 4750TIP3    H235666   3.552   5.438   0.008 -0.1589 -0.1563 -0.9020
 4751TIP3   OH235667   3.444   0.679  14.852 -0.2053 -0.2805 -0.4977
 4751TIP3    H135668   3.447   0.773  14.869 -0.6506 -0.2671 -0.4907
 4751TIP3    H235669   3.485   0.640  14.929 -0.6817 -0.1272 -0.1614
 4752TIP3   OH235670   6.339   0.551  14.160 -0.0558  0.8301  0.1558
 4752TIP3    H135671   6.419   0.557  14.108 -1.4240 -1.6243 -2.4967
 4752TIP3    H235672   6.363   0.494  14.234  0.5132 -0.4991 -1.0112
 4753TIP3   OH235673   0.226   1.194  15.753 -0.6673  0.3232 -0.3232
 4753TIP3    H135674   0.236   1.239  15.837 -0.5061 -1.4703  0.6590
 4753TIP3    H235675   0.191   1.262  15.694 -0.2419  1.7686  1.0167
 4754TIP3   OH235676   3.652   5.805  14.073 -0.4520  0.2179  0.2742
 4754TIP3    H135677   3.579   5.847  14.118 -2.3868 -3.4176  0.8685
 4754TIP3    H235678   3.612   5.761  13.998  1.0444 -2.0617  0.7225
 4755TIP3   OH235679   3.544   3.733   2.710 -0.0625  0.5714 -0.2189
 4755TIP3    H135680   3.517   3.777   2.790 -0.4365  1.7428 -0.9563
 4755TIP3    H235681   3.602   3.662   2.739 -0.6082  0.6423  1.1009
 4756TIP3   OH235682   5.857   3.102   4.798  0.3143  0.3439 -0.1629
 4756TIP3    H135683   5.769   3.072   4.823 -0.2910  1.9142 -0.2773
 4756TIP3    H235684   5.864   3.081   4.705  0.3396 -0.4286  0.0144
 4757TIP3   OH235685   4.285   1.297  13.225 -0.1534 -1.0791 -0.2757
 4757TIP3    H135686   4.349   1.230  13.202 -1.2408 -2.0589 -0.5622
 4757TIP3    H235687   4.242   1.263  13.303  0.2288 -0.0368  0.4089
 4758TIP3   OH235688   0.410   0.302  15.576 -0.1645 -0.3572  0.2122
 4758TIP3    H135689   0.385   0.210  15.579  2.2225 -1.0747  0.0383
 4758TIP3    H235690   0.427   0.320  15.484  1.5692 -0.4313  0.4837
 4759TIP3   OH235691   1.712   0.953   4.162 -0.1476 -0.7415 -0.3089
 4759TIP3    H135692   1.629   0.975   4.119 -0.7408 -0.4957  0.9300
 4759TIP3    H235693   1.779   0.987   4.103 -0.9731  0.7102 -0.4591
 4760TIP3   OH235694   3.057   6.672  13.424 -0.3566  0.3150  0.0991
 4760TIP3    H135695   3.046   6.767  13.433  0.7325  0.4185  0.5004
 4760TIP3    H235696   3.026   6.636  13.507  0.9341  0.4918  0.6881
 4761TIP3   OH235697   6.379   3.600  15.372  0.6862 -0.2055 -0.0065
 4761TIP3    H135698   6.426   3.583  15.453  0.5882 -0.0739  0.0768
 4761TIP3    H235699   6.291   3.624  15.399  1.5615  3.4507  0.0620
 4762TIP3   OH235700   2.282   2.912  10.986  0.3850 -0.4424 -0.1181
 4762TIP3    H135701   2.243   2.874  10.907 -0.4200 -0.6224  0.3580
 4762TIP3    H235702   2.333   2.986  10.953 -0.6366  0.0178 -0.7413
 4763TIP3   OH235703   1.958   4.138  14.179  0.5768 -0.1989  0.6446
 4763TIP3    H135704   1.888   4.082  14.146  1.0607 -1.0756  1.0692
 4763TIP3    H235705   2.000   4.087  14.248  0.8463  0.8110  1.2634
 4764TIP3   OH235706   2.724   1.163   2.558  0.4530 -0.0004  0.3450
 4764TIP3    H135707   2.706   1.070   2.574  0.3215  0.2606  1.8086
 4764TIP3    H235708   2.818   1.172   2.574  0.7780 -0.1515 -1.2860
 4765TIP3   OH235709   2.674   0.816  16.962  0.0631 -0.2602 -0.2104
 4765TIP3    H135710   2.653   0.763  17.038 -0.3172  0.7791  0.4351
 4765TIP3    H235711   2.594   0.813  16.908 -0.2626  0.3134  0.2284
 4766TIP3   OH235712   1.395   2.068  11.382  0.4804  0.3345 -0.5827
 4766TIP3    H135713   1.412   1.975  11.366  2.9018  0.7574 -0.9186
 4766TIP3    H235714   1.392   2.107  11.295 -0.2910  0.6284 -0.4326
 4767TIP3   OH235715   4.810   1.139  11.893  0.0786  0.2023 -0.1882
 4767TIP3    H135716   4.761   1.203  11.841 -0.3425  1.8250  2.0500
 4767TIP3    H235717   4.902   1.155  11.870 -0.0508  1.3849  0.0413
 4768TIP3   OH235718   5.021   5.322  10.593 -0.5266 -0.6749  0.1517
 4768TIP3    H135719   4.989   5.272  10.518  1.9813 -1.0313 -0.7412
 4768TIP3    H235720   5.111   5.293  10.606 -0.5270  0.1866  2.6331
 4769TIP3   OH235721   5.601   2.983   4.825  0.3727 -0.0345  0.0613
 4769TIP3    H135722   5.570   3.026   4.745  3.5419  2.2645 -0.1415
 4769TIP3    H235723   5.623   2.894   4.797  0.5205  0.4281 -1.3977
 4770TIP3   OH235724   5.331   0.246   1.534  0.4955  0.0879  0.0543
 4770TIP3    H135725   5.360   0.336   1.519 -0.4858  0.4686  0.3364
 4770TIP3    H235726   5.240   0.255   1.564 -0.5897 -1.1291 -2.5705
 4771TIP3   OH235727   0.423   4.848  14.608  0.0053  0.0942 -0.0264
 4771TIP3    H135728   0.349   4.908  14.609 -0.5535 -0.5604 -1.2767
 4771TIP3    H235729   0.495   4.900  14.573 -0.4559  0.0752 -1.0244
 4772TIP3   OH235730   2.770   2.089   5.898 -0.2928  0.3284 -0.4203
 4772TIP3    H135731   2.847   2.085   5.841  1.3681  0.5807  1.6631
 4772TIP3    H235732   2.742   2.180   5.894  1.1848  0.8837  0.7720
 4773TIP3   OH235733   5.731   0.179   2.821 -0.5129  0.3957 -0.2998
 4773TIP3    H135734   5.655   0.123   2.815 -0.4438  0.2149  0.4174
 4773TIP3    H235735   5.719   0.228   2.903 -0.0600  0.6564 -0.3819
 4774TIP3   OH235736   1.539   6.353  15.421 -0.0751  0.1217 -0.0940
 4774TIP3    H135737   1.587   6.271  15.437 -0.0542  0.4534  1.8586
 4774TIP3    H235738   1.461   6.326  15.372 -1.0715 -1.4363  2.1586
 4775TIP3   OH235739   3.466   4.087  16.949 -0.4812  0.3966  0.4368
 4775TIP3    H135740   3.374   4.084  16.975 -0.5461  0.0736  0.1701
 4775TIP3    H235741   3.495   4.174  16.976 -1.1078  0.8516 -0.3086
 4776TIP3   OH235742   5.453   2.242   3.676 -0.3607 -0.4045 -0.2025
 4776TIP3    H135743   5.543   2.208   3.673  0.1029  0.6903  0.7960
 4776TIP3    H235744   5.424   2.238   3.584  0.3430 -1.6612 -0.4018
 4777TIP3   OH235745   2.328   5.684   0.039 -0.4571  0.2545  0.2824
 4777TIP3    H135746   2.382   5.752   0.079  0.2051 -0.0497 -0.0773
 4777TIP3    H235747   2.358   5.679  -0.052 -2.6186  1.6433 -0.5830
 4778TIP3   OH235748   4.937   2.148  13.717 -0.7683  0.0416 -0.2291
 4778TIP3    H135749   5.004   2.086  13.685  1.1323  1.1593  1.3318
 4778TIP3    H235750   4.906   2.193  13.639  1.7416  0.8016 -0.8801
 4779TIP3   OH235751   0.934   4.741  14.730  0.0576 -0.4530  0.0345
 4779TIP3    H135752   0.924   4.772  14.820  1.4540 -2.1642  0.8512
 4779TIP3    H235753   1.003   4.796  14.693 -0.5573  0.2895 -0.0076
 4780TIP3   OH235754   3.553   6.491   0.162  0.1138  0.4507  0.0050
 4780TIP3    H135755   3.569   6.397   0.164 -0.7296  0.2907 -0.2997
 4780TIP3    H235756   3.465   6.499   0.125  1.0436  1.4603 -2.1410
 4781TIP3   OH235757   1.376   0.638  16.946 -0.4330  0.3071 -0.7356
 4781TIP3    H135758   1.320   0.691  17.003  0.2948  1.0889 -0.7296
 4781TIP3    H235759   1.385   0.555  16.992  0.6680  1.1448  0.6237
 4782TIP3   OH235760   3.804   4.250  11.870  0.3289 -0.2814  0.0717
 4782TIP3    H135761   3.897   4.273  11.873  0.6320 -1.2654 -1.1345
 4782TIP3    H235762   3.782   4.228  11.961  1.2394  0.0650  0.3815
 4783TIP3   OH235763   2.109   5.315   0.825  0.7686  0.7150 -0.6125
 4783TIP3    H135764   2.173   5.258   0.782  1.8831  2.4693 -1.3830
 4783TIP3    H235765   2.030   5.307   0.771  0.9884  0.1115 -0.8562
 4784TIP3   OH235766   3.830   4.773   3.000 -0.1936  0.5536 -0.1345
 4784TIP3    H135767   3.899   4.770   2.934 -0.2855 -0.9618 -0.1878
 4784TIP3    H235768   3.800   4.682   3.008 -1.7362  1.0688  0.3461
 4785TIP3   OH235769   4.151   6.665  14.941  0.6552  0.1089 -0.3249
 4785TIP3    H135770   4.072   6.674  14.993  0.8395 -2.2920  0.5380
 4785TIP3    H235771   4.121   6.627  14.859  0.5848  2.2299 -1.3436
 4786TIP3   OH235772   4.681   3.645   0.447 -0.0675 -0.2636  0.4634
 4786TIP3    H135773   4.598   3.605   0.420  1.3861 -2.6454 -0.7890
 4786TIP3    H235774   4.701   3.709   0.379 -0.8971  0.4153  0.8383
 4787TIP3   OH235775   0.374   2.137   4.683  0.5484 -0.0641  0.0255
 4787TIP3    H135776   0.303   2.152   4.746  0.0967 -0.2146 -0.4395
 4787TIP3    H235777   0.379   2.042   4.675 -1.2544 -0.0642 -2.1930
 4788TIP3   OH235778   4.401   1.848   0.944  0.2311 -0.2417  0.3780
 4788TIP3    H135779   4.354   1.771   0.976 -0.7356  0.6383  1.1520
 4788TIP3    H235780   4.441   1.886   1.022  1.5404 -0.4989 -0.1495
 4789TIP3   OH235781   1.874   1.667   4.292  0.3150 -0.1623  0.2488
 4789TIP3    H135782   1.828   1.590   4.257 -2.1287  0.7871  1.1461
 4789TIP3    H235783   1.964   1.659   4.259 -0.6826 -1.6835 -2.3916
 4790TIP3   OH235784   2.632   3.556  12.682  0.0921  0.7225  0.0497
 4790TIP3    H135785   2.540   3.583  12.680 -0.1876  0.0465  1.7664
 4790TIP3    H235786   2.629   3.463  12.707  1.1278 -0.3647 -3.2606
 4791TIP3   OH235787   2.245   1.980  10.864  0.0789 -0.0408  0.2343
 4791TIP3    H135788   2.157   1.958  10.832  0.3217 -0.5978 -0.0535
 4791TIP3    H235789   2.264   2.065  10.824 -0.7167  0.5608  1.0687
 4792TIP3   OH235790   0.160   0.645  13.606 -0.5750  0.2941 -0.1697
 4792TIP3    H135791   0.238   0.589  13.602 -1.1933 -0.6078  0.1272
 4792TIP3    H235792   0.167   0.689  13.690  0.2383  1.1661 -0.6743
 4793TIP3   OH235793   2.282   2.550   0.124 -0.2295  0.1352 -0.8662
 4793TIP3    H135794   2.269   2.459   0.152  1.8723 -0.8964 -2.9015
 4793TIP3    H235795   2.219   2.563   0.053 -0.6080  0.3433 -0.5008
 4794TIP3   OH235796   3.000   3.225  15.960  0.0843  0.3142 -0.6351
 4794TIP3    H135797   3.088   3.237  15.925  1.1576 -3.3356  0.4145
 4794TIP3    H235798   2.975   3.137  15.932 -3.4538  1.3413 -1.1668
 4795TIP3   OH235799   4.914   2.359   1.316  0.3161 -0.1006 -0.0522
 4795TIP3    H135800   4.860   2.391   1.243  0.1389 -1.8307 -0.7129
 4795TIP3    H235801   4.900   2.423   1.386 -0.8418  0.6815 -0.9640
 4796TIP3   OH235802   5.380   4.270  14.040 -0.2072 -0.1988  0.2801
 4796TIP3    H135803   5.457   4.216  14.060  0.1380  0.3559  0.4758
 4796TIP3    H235804   5.321   4.256  14.113  0.4751  0.7610  1.0500
 4797TIP3   OH235805   4.022   2.403   2.544 -0.1669 -0.2069  0.4279
 4797TIP3    H135806   4.075   2.323   2.541 -1.5059 -1.1737  1.3923
 4797TIP3    H235807   3.993   2.415   2.453  1.1480 -0.0025  0.0068
 4798TIP3   OH235808   5.590   2.127  15.468  0.1103  0.0982  0.4399
 4798TIP3    H135809   5.516   2.082  15.509 -1.2548  2.1034  0.3477
 4798TIP3    H235810   5.554   2.165  15.388  0.6505  2.7621  1.3560
 4799TIP3   OH235811   0.054   5.755   6.509  0.0421 -0.0186  0.2168
 4799TIP3    H135812   0.042   5.798   6.425  0.2600 -2.3634 -1.0970
 4799TIP3    H235813   0.133   5.796   6.546 -0.4776  1.5419 -0.3555
 4800TIP3   OH235814   3.234   5.081  16.958 -0.0994  0.2080 -0.3086
 4800TIP3    H135815   3.289   5.023  16.905  0.3675 -1.0212  1.4279
 4800TIP3    H235816   3.150   5.085  16.910 -0.1282 -1.8727 -0.5275
 4801TIP3   OH235817   2.846   1.047   4.677 -0.0477 -0.4174  0.0748
 4801TIP3    H135818   2.933   1.087   4.670 -0.3434  0.5454  1.4731
 4801TIP3    H235819   2.788   1.108   4.631 -0.2684 -0.0411  0.8458
 4802TIP3   OH235820   1.262   5.249   1.632  0.4563 -0.6960 -0.2804
 4802TIP3    H135821   1.255   5.345   1.635  3.2619 -0.4192  1.0365
 4802TIP3    H235822   1.351   5.233   1.600 -0.8524 -2.9965 -3.1382
 4803TIP3   OH235823   3.142   1.023   3.202  0.5984 -0.6092 -0.2035
 4803TIP3    H135824   3.232   1.000   3.180  0.2319 -2.2445 -0.0994
 4803TIP3    H235825   3.095   1.019   3.119  0.2794 -1.5437  0.0079
 4804TIP3   OH235826   3.263   1.060  11.514  0.1084  0.1925 -0.7846
 4804TIP3    H135827   3.168   1.063  11.512  0.0099 -1.0739  0.4482
 4804TIP3    H235828   3.284   1.034  11.604  1.5806 -0.2939 -1.2395
 4805TIP3   OH235829   5.629   2.756   4.671 -0.1681  0.4505  0.2221
 4805TIP3    H135830   5.716   2.727   4.643 -0.5947  0.6398 -1.4092
 4805TIP3    H235831   5.572   2.680   4.655 -0.7240  1.1152 -1.0642
 4806TIP3   OH235832   3.950   0.773  13.749  0.2089 -0.1907 -0.4431
 4806TIP3    H135833   3.985   0.711  13.685  0.0719 -0.0874 -0.6189
 4806TIP3    H235834   3.945   0.724  13.831 -0.8231 -0.7075 -0.8031
 4807TIP3   OH235835   6.305   3.495   2.396  0.1788  0.7288 -0.1369
 4807TIP3    H135836   6.391   3.536   2.382  0.2306  0.8773  0.5984
 4807TIP3    H235837   6.244   3.549   2.345  0.9062 -1.2211 -3.4276
 4808TIP3   OH235838   2.825   6.572  16.025  0.0965  0.1536 -0.4530
 4808TIP3    H135839   2.746   6.522  16.042  0.7637 -0.7821  0.0216
 4808TIP3    H235840   2.811   6.657  16.066 -0.1166 -0.4903  0.8446
 4809TIP3   OH235841   3.041   0.655  15.461  0.2296  0.1976  0.2798
 4809TIP3    H135842   3.093   0.691  15.532 -0.9976 -1.8945  2.4036
 4809TIP3    H235843   3.100   0.593  15.417  0.5801  0.4830  0.3437
 4810TIP3   OH235844   3.461   0.902  17.115  0.2394  0.7285  0.5290
 4810TIP3    H135845   3.414   0.819  17.111  1.5790 -0.1386  1.8242
 4810TIP3    H235846   3.417   0.958  17.051  0.2271 -1.4213 -1.4332
 4811TIP3   OH235847   6.298   6.346  14.171 -0.6684  0.7388 -0.1413
 4811TIP3    H135848   6.340   6.360  14.255  0.0511  0.2759 -0.4082
 4811TIP3    H235849   6.247   6.425  14.155  0.4022  1.4859  0.0278
 4812TIP3   OH235850   5.972   1.579   2.464  0.3519  0.0130  0.1826
 4812TIP3    H135851   5.913   1.534   2.524  0.6138  0.7864  1.0315
 4812TIP3    H235852   5.935   1.667   2.454  0.5622  0.0406 -0.4352
 4813TIP3   OH235853   0.109   1.974  15.138 -0.3631  0.2719  0.2988
 4813TIP3    H135854   0.198   1.994  15.167 -0.7124  0.7451  1.0685
 4813TIP3    H235855   0.053   2.010  15.206 -1.1791  0.7307 -0.5895
 4814TIP3   OH235856   3.703   4.239  10.779  0.1937  0.1490  0.0248
 4814TIP3    H135857   3.635   4.235  10.712  0.0881 -1.8916  0.2111
 4814TIP3    H235858   3.671   4.305  10.841 -2.4411 -1.7833  0.9111
 4815TIP3   OH235859   4.225   4.907   4.229  0.5259 -0.2429 -0.1566
 4815TIP3    H135860   4.233   4.822   4.186  1.1202 -1.5526  2.3543
 4815TIP3    H235861   4.311   4.924   4.267 -0.4443 -0.2161  2.2470
 4816TIP3   OH235862   1.003   1.657  12.468  0.1538 -0.0441 -0.2384
 4816TIP3    H135863   1.072   1.606  12.510  0.6158 -0.3987 -1.3730
 4816TIP3    H235864   1.050   1.712  12.405 -0.5844 -0.2666 -1.0032
 4817TIP3   OH235865   1.432   3.234  15.085  0.2131  0.3145  0.1602
 4817TIP3    H135866   1.491   3.293  15.132  1.4471 -0.6545 -0.1093
 4817TIP3    H235867   1.491   3.171  15.043 -1.0433 -1.1436  0.5094
 4818TIP3   OH235868   4.001   5.820  11.860  0.1025  0.2239  0.3029
 4818TIP3    H135869   3.920   5.835  11.812 -0.1038 -0.8597  0.2797
 4818TIP3    H235870   3.982   5.851  11.949  0.4999  2.2608 -0.2888
 4819TIP3   OH235871   1.060   1.850  12.138  0.0075  0.3900  0.1505
 4819TIP3    H135872   1.079   1.938  12.103  0.6042 -0.0869 -0.7533
 4819TIP3    H235873   1.136   1.828  12.191  1.0217 -0.5659 -1.6039
 4820TIP3   OH235874   4.372   1.468  12.671  0.2230 -0.3566 -0.0625
 4820TIP3    H135875   4.403   1.540  12.617 -0.6631  1.1729  1.3746
 4820TIP3    H235876   4.280   1.458  12.648 -0.4131  0.9203  1.6942
 4821TIP3   OH235877   2.319   0.895   0.217  0.0346 -0.5939  0.1340
 4821TIP3    H135878   2.277   0.880   0.302  0.7891  0.8105  0.7727
 4821TIP3    H235879   2.413   0.895   0.236  0.3510 -2.6093 -1.1077
 4822TIP3   OH235880   2.865   2.122   0.238  1.1032  0.3541 -0.5028
 4822TIP3    H135881   2.881   2.038   0.280 -1.2460  0.8080  1.5636
 4822TIP3    H235882   2.953   2.158   0.221  2.1386 -1.8132 -0.0437
 4823TIP3   OH235883   2.289   6.311   3.171 -0.2111  0.1641  0.0588
 4823TIP3    H135884   2.277   6.393   3.219  1.3548  2.2165 -2.7882
 4823TIP3    H235885   2.209   6.302   3.118 -1.2549 -1.3030  1.7385
 4824TIP3   OH235886   3.008   0.512   4.898 -0.0045  0.1686  0.1309
 4824TIP3    H135887   3.080   0.497   4.836  2.1453  2.0231  1.9677
 4824TIP3    H235888   2.965   0.591   4.867  0.2428  0.3494  0.2352
 4825TIP3   OH235889   3.645   4.304   0.961 -0.2100  0.6436 -0.0624
 4825TIP3    H135890   3.614   4.388   0.997 -2.6457 -1.4055  3.2101
 4825TIP3    H235891   3.726   4.286   1.009 -0.5824  0.3820  0.4766
 4826TIP3   OH235892   1.432   1.040   0.809 -0.2180 -0.4037 -0.0576
 4826TIP3    H135893   1.450   1.134   0.814 -1.9029 -0.0817  0.8365
 4826TIP3    H235894   1.446   1.018   0.717 -0.2183  0.8227 -0.3738
 4827TIP3   OH235895   0.556   5.648   0.719  0.2485  0.1347  0.1584
 4827TIP3    H135896   0.588   5.667   0.630  0.0361  0.2819  0.1135
 4827TIP3    H235897   0.489   5.580   0.705 -0.7135  1.0766  0.0669
 4828TIP3   OH235898   3.851   5.458  14.065 -0.6424  0.0065  0.1136
 4828TIP3    H135899   3.812   5.480  13.980  2.1434 -0.0643 -1.3058
 4828TIP3    H235900   3.871   5.543  14.105 -0.6117  0.0357  0.0365
 4829TIP3   OH235901   4.418   6.067   2.963 -0.1040 -0.0672 -0.5416
 4829TIP3    H135902   4.463   6.139   3.007  0.2305  0.1436 -1.1957
 4829TIP3    H235903   4.386   6.011   3.033 -0.1903  0.6153 -0.0287
 4830TIP3   OH235904   3.422   3.405  15.652  0.4711 -0.0144 -0.2713
 4830TIP3    H135905   3.397   3.444  15.568 -0.9756 -0.0674  0.1151
 4830TIP3    H235906   3.482   3.469  15.691 -2.4186  2.3315  0.6940
 4831TIP3   OH235907   6.569   3.378   6.031 -0.3202 -0.0261  0.2350
 4831TIP3    H135908   6.652   3.332   6.035 -1.3270 -2.0795 -0.6587
 4831TIP3    H235909   6.584   3.460   6.078  2.1851 -0.2999  0.0390
 4832TIP3   OH235910   3.999   3.750  11.900  0.4123 -0.1922  0.0310
 4832TIP3    H135911   3.935   3.803  11.853 -1.0732 -0.7148  1.3909
 4832TIP3    H235912   3.949   3.675  11.932  1.7114 -0.6221  1.1269
 4833TIP3   OH235913   2.465   2.777   3.060 -0.1440 -0.1771  0.4909
 4833TIP3    H135914   2.378   2.816   3.050  0.3679  1.1776  1.1097
 4833TIP3    H235915   2.510   2.797   2.978 -0.1991 -0.3145  0.4268
 4834TIP3   OH235916   5.028   5.346   3.295 -1.1255 -0.5625 -0.1767
 4834TIP3    H135917   5.071   5.268   3.332  0.5363  1.4109  2.4436
 4834TIP3    H235918   5.097   5.388   3.243 -2.1564 -1.0222 -1.9793
 4835TIP3   OH235919   1.481   1.136   4.188 -0.0677 -0.4908  0.1338
 4835TIP3    H135920   1.525   1.219   4.168 -0.1101 -0.7677 -1.1763
 4835TIP3    H235921   1.398   1.141   4.141  0.5043 -1.8141 -1.0797
 4836TIP3   OH235922   5.776   5.230  14.032 -0.2206 -0.7924 -0.1545
 4836TIP3    H135923   5.694   5.240  14.079 -0.6951  3.0900 -1.4961
 4836TIP3    H235924   5.841   5.212  14.100 -1.6251 -0.4365  1.3334
 4837TIP3   OH235925   2.825   5.905  16.750  0.1353 -0.3933 -0.3014
 4837TIP3    H135926   2.890   5.880  16.685 -0.2549 -1.3569 -0.3392
 4837TIP3    H235927   2.765   5.831  16.754 -0.3476  0.0216  0.5172
 4838TIP3   OH235928   0.026   4.169  15.173 -0.1361 -0.1148  0.8029
 4838TIP3    H135929   0.007   4.076  15.166 -0.4094 -0.0472  0.6058
 4838TIP3    H235930  -0.059   4.210  15.189 -0.3781  0.3089 -1.2685
 4839TIP3   OH235931   0.211   2.420   0.945 -0.6638 -0.1345  0.0817
 4839TIP3    H135932   0.145   2.353   0.963 -2.5956  1.0174 -2.1345
 4839TIP3    H235933   0.182   2.462   0.864  1.9966  1.5093 -0.1693
 4840TIP3   OH235934   2.662   3.691  16.931  0.2336  0.1426 -0.4846
 4840TIP3    H135935   2.748   3.732  16.940  0.2772 -0.3403  1.9867
 4840TIP3    H235936   2.619   3.741  16.862  1.5516  2.0720 -0.0045
 4841TIP3   OH235937   2.082   6.423  13.709  0.5473 -0.5219  0.0271
 4841TIP3    H135938   2.020   6.435  13.781 -1.1733  2.3735 -1.7229
 4841TIP3    H235939   2.159   6.472  13.736  0.5641 -0.8518  0.5860
 4842TIP3   OH235940   0.203   1.258   1.234  0.2789 -0.2144 -0.3378
 4842TIP3    H135941   0.265   1.241   1.305 -1.2597  1.2420  1.4540
 4842TIP3    H235942   0.212   1.352   1.218 -2.1186  0.2541  0.6957
 4843TIP3   OH235943   0.139   1.426  11.417  0.4078 -0.6297 -0.1953
 4843TIP3    H135944   0.118   1.497  11.356  0.9914 -0.6789 -0.4663
 4843TIP3    H235945   0.159   1.351  11.361  0.9944 -0.6642  0.0469
 4844TIP3   OH235946   2.292   3.217   4.306  0.2044 -0.0052 -0.0017
 4844TIP3    H135947   2.214   3.257   4.344  0.6016 -0.0973  0.9498
 4844TIP3    H235948   2.272   3.209   4.213 -0.1220  1.8729 -0.1441
 4845TIP3   OH235949   4.455   0.688  10.674 -0.0759  0.1504 -0.2755
 4845TIP3    H135950   4.445   0.595  10.698  1.0805 -0.4535 -1.9516
 4845TIP3    H235951   4.403   0.735  10.739  0.0587 -1.6071  1.1875
 4846TIP3   OH235952   4.972   3.856   1.652  0.5255 -0.1758 -0.4895
 4846TIP3    H135953   4.946   3.791   1.717  1.7237 -1.0292 -0.8296
 4846TIP3    H235954   5.067   3.851   1.650  0.8295  3.0777  0.9525
 4847TIP3   OH235955   3.516   2.015  16.774  0.3471 -0.1005 -0.0510
 4847TIP3    H135956   3.500   2.009  16.680 -1.2853  0.6364  0.1490
 4847TIP3    H235957   3.596   2.067  16.782  0.0898  0.4605 -1.0129
 4848TIP3   OH235958   4.984   6.035   1.662 -0.2839 -0.4037 -0.8544
 4848TIP3    H135959   5.023   6.032   1.749 -0.4813  2.6036 -0.5617
 4848TIP3    H235960   5.056   6.010   1.603  0.2747 -0.9697  0.0379
 4849TIP3   OH235961   0.146   5.395  14.841  0.4925  0.3590  0.0051
 4849TIP3    H135962   0.188   5.351  14.767  2.4560 -0.2500  1.4047
 4849TIP3    H235963   0.146   5.488  14.815  1.8751  0.2606 -0.4713
 4850TIP3   OH235964   2.838   2.667  15.043  0.1565  0.3898 -0.5163
 4850TIP3    H135965   2.883   2.663  15.127  0.0397 -1.4836 -0.4861
 4850TIP3    H235966   2.827   2.760  15.025 -0.5174  0.8332  1.9072
 4851TIP3   OH235967   4.553   1.611   3.253 -0.0837 -0.0620 -0.0533
 4851TIP3    H135968   4.494   1.543   3.287  0.4137  0.1002  1.1852
 4851TIP3    H235969   4.610   1.632   3.327  1.3036  0.0316 -1.1151
 4852TIP3   OH235970   2.109   1.100  15.414 -0.2048  0.1365  0.2824
 4852TIP3    H135971   2.123   1.170  15.350  2.4613 -0.6208 -0.0608
 4852TIP3    H235972   2.152   1.131  15.494 -0.5427 -0.3828  0.6735
 4853TIP3   OH235973   0.234   6.210  12.956  0.0409  0.1576 -0.0111
 4853TIP3    H135974   0.185   6.217  12.875  1.7998 -0.2941 -1.1662
 4853TIP3    H235975   0.241   6.116  12.972  0.8000  0.2044 -0.0441
 4854TIP3   OH235976   6.507   2.695   2.866  0.5924 -0.4039 -0.3295
 4854TIP3    H135977   6.433   2.661   2.917  0.4276  0.2651 -0.1059
 4854TIP3    H235978   6.490   2.666   2.776 -0.2637  0.2238 -0.3870
 4855TIP3   OH235979   1.486   5.651   1.072  0.8475  0.0979 -0.0985
 4855TIP3    H135980   1.519   5.576   1.122  2.7799  0.0933 -1.2713
 4855TIP3    H235981   1.522   5.638   0.984  0.1130  1.7139 -0.6648
 4856TIP3   OH235982   2.831   1.995   3.972  0.2661  0.2715 -0.1676
 4856TIP3    H135983   2.900   2.024   3.912  0.9174  0.7537  0.7852
 4856TIP3    H235984   2.878   1.965   4.050 -0.4968 -1.6394 -0.4040
 4857TIP3   OH235985   3.866   6.619   1.116 -0.1962  0.4032  0.0284
 4857TIP3    H135986   3.840   6.550   1.055 -0.2529  1.0130 -0.6670
 4857TIP3    H235987   3.819   6.600   1.197 -0.0799 -0.4564 -0.0958
 4858TIP3   OH235988   3.609   5.144   0.762  0.0850  0.3636 -0.1654
 4858TIP3    H135989   3.590   5.057   0.729 -0.9767  0.9085 -1.0807
 4858TIP3    H235990   3.624   5.197   0.684  1.0406  0.9356  0.3920
 4859TIP3   OH235991   1.113   6.580   2.814  0.2132 -0.1001  0.5531
 4859TIP3    H135992   1.051   6.647   2.842  0.1066  1.0670 -2.1468
 4859TIP3    H235993   1.095   6.569   2.720  3.8219  0.0537 -0.2975
 4860TIP3   OH235994   5.612   1.569   2.214  0.3047  0.3157  0.2651
 4860TIP3    H135995   5.557   1.530   2.146  3.0111  0.4851 -2.1570
 4860TIP3    H235996   5.645   1.494   2.264 -0.9138  0.1370  0.8584
 4861TIP3   OH235997   5.565   4.402   4.965 -0.0154  0.1609  0.4130
 4861TIP3    H135998   5.483   4.451   4.965  0.1947  0.5397  1.4301
 4861TIP3    H235999   5.609   4.429   5.046  0.6183 -0.8619  0.4287
 4862TIP3   OH236000   0.206   0.248  16.302  0.3469  0.5325 -0.1372
 4862TIP3    H136001   0.193   0.205  16.387 -0.0317 -0.9613 -0.9245
 4862TIP3    H236002   0.292   0.291  16.310  1.0915 -0.9784  0.4541
 4863TIP3   OH236003   1.697   2.953   5.094 -0.3503  0.0508 -0.3518
 4863TIP3    H136004   1.628   3.002   5.138 -1.2471  0.0651 -1.7031
 4863TIP3    H236005   1.705   2.994   5.008  0.4002 -0.8088 -0.7191
 4864TIP3   OH236006   2.552   2.807   3.488 -0.1536  0.2046 -0.2600
 4864TIP3    H136007   2.474   2.861   3.497 -1.5177 -1.5882 -0.7281
 4864TIP3    H236008   2.605   2.828   3.564 -1.2822  1.1787  0.2845
 4865TIP3   OH236009   6.062   0.064  11.320  0.5480  0.1033 -0.1474
 4865TIP3    H136010   6.036  -0.023  11.350 -0.7915  0.9605  1.3142
 4865TIP3    H236011   5.982   0.116  11.325  2.0526  2.4617  2.9451
 4866TIP3   OH236012   3.411   5.715   5.626  0.4188  0.1767  0.1832
 4866TIP3    H136013   3.369   5.661   5.559  2.0550 -0.7850 -0.1383
 4866TIP3    H236014   3.384   5.676   5.709  0.8882 -0.6266 -0.0274
 4867TIP3   OH236015   2.108   5.292  12.676  0.2445 -0.2103  0.4783
 4867TIP3    H136016   2.138   5.363  12.620 -0.1800 -0.9841 -0.7601
 4867TIP3    H236017   2.099   5.332  12.763 -1.2364  1.5617 -0.4379
 4868TIP3   OH236018   4.380   5.420   2.397 -0.0594  0.2182  0.2603
 4868TIP3    H136019   4.341   5.423   2.484 -0.6829 -0.4321  0.0122
 4868TIP3    H236020   4.465   5.464   2.407 -0.6533  1.2689  0.9044
 4869TIP3   OH236021   6.624   4.369  14.025 -0.6092 -0.5818 -0.1653
 4869TIP3    H136022   6.664   4.282  14.021  1.4760  0.2672  0.3526
 4869TIP3    H236023   6.622   4.399  13.934  1.1619 -0.1866 -0.1174
 4870TIP3   OH236024   0.517   6.441   3.178 -0.8514 -0.4574  0.4190
 4870TIP3    H136025   0.551   6.389   3.251 -1.2379  0.3935  1.2362
 4870TIP3    H236026   0.449   6.495   3.218  0.3411  1.5424 -0.1129
 4871TIP3   OH236027   3.001   6.304   5.659 -0.1969 -0.0884  0.8612
 4871TIP3    H136028   2.917   6.258   5.652  0.4526 -1.0913 -0.7714
 4871TIP3    H236029   2.977   6.393   5.687 -1.7609 -0.4868  0.8698
 4872TIP3   OH236030   2.397   0.924   1.041 -0.4516 -0.9018 -0.1230
 4872TIP3    H136031   2.373   0.837   1.009  2.3100 -1.0102 -2.2704
 4872TIP3    H236032   2.466   0.908   1.105 -1.7328 -0.3307  1.4861
 4873TIP3   OH236033   4.663   0.763  14.788 -0.1341 -0.3912  0.2502
 4873TIP3    H136034   4.731   0.696  14.791  0.7812  0.5150  0.2525
 4873TIP3    H236035   4.633   0.771  14.878 -1.2502 -1.7671  0.0374
 4874TIP3   OH236036   0.440   1.729   3.107  0.1604  0.4261 -0.2702
 4874TIP3    H136037   0.457   1.783   3.184  0.0164  0.8681 -0.5413
 4874TIP3    H236038   0.385   1.784   3.051 -1.2828 -0.5683  0.1249
 4875TIP3   OH236039   4.139   5.450  11.726 -0.3236 -0.1870 -0.6160
 4875TIP3    H136040   4.192   5.529  11.717 -1.8459  0.7774 -1.5122
 4875TIP3    H236041   4.083   5.467  11.802  0.1871 -0.9329 -0.0586
 4876TIP3   OH236042   0.933   3.950  16.213  0.7291  0.1898  0.0344
 4876TIP3    H136043   0.923   3.857  16.232  0.3492  0.2074 -0.0603
 4876TIP3    H236044   0.864   3.992  16.264  0.1074  0.2973 -0.8558
 4877TIP3   OH236045   2.321   2.242   4.379 -0.3159  0.4038 -1.1003
 4877TIP3    H136046   2.316   2.265   4.286  3.1442  1.2180 -1.2238
 4877TIP3    H236047   2.400   2.188   4.386  0.1158  1.2362  1.4820
 4878TIP3   OH236048   4.910   0.279   4.644 -0.2576 -0.0784  0.7916
 4878TIP3    H136049   4.923   0.185   4.633 -0.4901 -0.1042  0.7272
 4878TIP3    H236050   4.982   0.319   4.596  1.2669 -0.2454  2.8139
 4879TIP3   OH236051   3.568   5.273  15.331  0.5418 -0.1281 -0.1854
 4879TIP3    H136052   3.526   5.349  15.291 -0.4313 -0.4477  0.2104
 4879TIP3    H236053   3.530   5.198  15.286 -0.3661 -0.4808  1.1238
 4880TIP3   OH236054   2.790   0.622   1.881 -0.1099  0.1553  0.0138
 4880TIP3    H136055   2.854   0.564   1.921 -1.3158 -1.1895  0.0564
 4880TIP3    H236056   2.715   0.566   1.862 -1.8039  1.9127  1.1414
 4881TIP3   OH236057   0.354   5.364   1.479  0.4637  0.0294 -0.6328
 4881TIP3    H136058   0.270   5.408   1.468  1.2068  1.4503 -0.7759
 4881TIP3    H236059   0.363   5.310   1.400 -0.5791 -0.6356 -0.3178
 4882TIP3   OH236060   0.800   4.646   4.225  0.1167  0.3823  0.0723
 4882TIP3    H136061   0.720   4.698   4.230 -0.4398 -0.5203  0.8351
 4882TIP3    H236062   0.864   4.696   4.275 -0.0233  0.9852 -0.3340
 4883TIP3   OH236063   6.686   4.294   4.921 -0.4068 -0.3854 -0.3382
 4883TIP3    H136064   6.725   4.234   4.984  0.7040  0.3401 -0.3167
 4883TIP3    H236065   6.681   4.378   4.967 -1.1933 -0.2614 -0.6387
 4884TIP3   OH236066   2.344   0.379  15.330 -1.0156 -0.2739  0.2472
 4884TIP3    H136067   2.263   0.428  15.343 -1.5170  0.7806 -4.7098
 4884TIP3    H236068   2.412   0.446  15.321  1.2735 -1.1142  6.2050
 4885TIP3   OH236069   2.004   3.263  15.171  0.2383  0.6376 -0.2042
 4885TIP3    H136070   2.082   3.209  15.157 -0.1457 -0.4071  1.4107
 4885TIP3    H236071   1.957   3.219  15.242 -1.0794  2.0574 -0.1505
 4886TIP3   OH236072   4.692   6.739   4.167 -0.0585  0.4074 -0.1392
 4886TIP3    H136073   4.610   6.759   4.123 -0.0583  1.9797  0.5161
 4886TIP3    H236074   4.682   6.648   4.196 -1.0325  0.1549 -1.1854
 4887TIP3   OH236075   1.689   3.716  16.527 -0.0980 -0.0576  0.3038
 4887TIP3    H136076   1.731   3.799  16.504  0.9597 -0.6287  0.0526
 4887TIP3    H236077   1.762   3.653  16.530 -1.0196 -1.2307 -0.7706
 4888TIP3   OH236078   1.921   4.469   1.486 -0.1472  0.4730  0.4730
 4888TIP3    H136079   1.927   4.525   1.564  0.2563  1.9178 -0.5529
 4888TIP3    H236080   1.918   4.531   1.413  2.4868 -0.8289 -0.8853
 4889TIP3   OH236081   6.350   2.030  13.025  0.5771  0.3780 -0.2575
 4889TIP3    H136082   6.377   1.980  12.948  0.1343  0.6404 -0.5855
 4889TIP3    H236083   6.262   2.062  13.004 -0.3636 -1.1417  1.0921
 4890TIP3   OH236084   6.696   1.746   3.400  0.3674 -0.1644 -0.2293
 4890TIP3    H136085   6.756   1.764   3.472 -0.0402  1.6556 -0.3218
 4890TIP3    H236086   6.658   1.830   3.377 -0.5149 -0.9122 -1.7071
 4891TIP3   OH236087   1.444   0.483  11.540 -0.1379 -0.0325 -0.6211
 4891TIP3    H136088   1.369   0.506  11.485 -0.6785 -0.6180 -0.1317
 4891TIP3    H236089   1.436   0.388  11.553  1.3479 -0.3174 -1.5469
 4892TIP3   OH236090   2.181   2.247   6.519  0.4322 -0.2629 -0.0574
 4892TIP3    H136091   2.167   2.175   6.458 -0.2021 -1.1575  1.1088
 4892TIP3    H236092   2.117   2.313   6.492  0.8910 -0.1914 -1.0200
 4893TIP3   OH236093   3.579   6.118   4.685  0.1582  0.2551 -0.3168
 4893TIP3    H136094   3.613   6.045   4.633 -2.1515 -0.8343 -0.4396
 4893TIP3    H236095   3.554   6.078   4.768 -1.1888  0.8692 -0.4036
 4894TIP3   OH236096   5.721   1.706   4.950  0.2945 -0.1610  0.0218
 4894TIP3    H136097   5.670   1.688   5.029  0.3883  0.7839  0.3121
 4894TIP3    H236098   5.697   1.795   4.925  1.0774 -0.0504 -0.3862
 4895TIP3   OH236099   4.866   2.705  16.804  0.2139 -0.1432  0.1801
 4895TIP3    H136100   4.956   2.733  16.822  0.4332 -0.7417  0.0511
 4895TIP3    H236101   4.830   2.774  16.748  0.1806  0.7209  1.2294
 4896TIP3   OH236102   6.684   2.163   0.008 -0.6042 -0.0481 -0.3292
 4896TIP3    H136103   6.689   2.249  -0.035  1.4215 -0.4083 -0.8942
 4896TIP3    H236104   6.590   2.144   0.011 -1.0268  1.6272 -1.3077
 4897TIP3   OH236105   0.368   6.365  16.713 -0.3855  0.0688  0.2243
 4897TIP3    H136106   0.347   6.297  16.649 -2.3709 -1.0926  1.9908
 4897TIP3    H236107   0.287   6.416  16.722  0.5617  1.6642  0.1672
 4898TIP3   OH236108   5.360   0.047   3.029  0.2504 -0.1294  0.1605
 4898TIP3    H136109   5.396   0.014   3.111 -1.1746 -0.2257  0.7841
 4898TIP3    H236110   5.433   0.044   2.968  1.3667 -0.0150  1.4259
 4899TIP3   OH236111   2.458   5.330   6.463 -0.1701 -0.5054 -0.5112
 4899TIP3    H136112   2.434   5.246   6.503  0.2279 -0.7852 -0.8445
 4899TIP3    H236113   2.387   5.350   6.402  1.4901 -2.5574 -3.3511
 4900TIP3   OH236114   2.309   1.340  12.869 -0.2964 -0.5024 -0.4308
 4900TIP3    H136115   2.328   1.395  12.794  0.3720 -1.9742 -1.3810
 4900TIP3    H236116   2.238   1.283  12.840  0.0547 -1.1685 -0.0121
 4901TIP3   OH236117   5.528   4.395  14.805  0.5445  0.0861  0.0088
 4901TIP3    H136118   5.604   4.403  14.748  0.2058 -0.4129 -0.5215
 4901TIP3    H236119   5.510   4.485  14.833 -0.0135  0.5278 -1.6385
 4902TIP3   OH236120   4.586   2.094  14.559  0.4546  0.6233 -0.0394
 4902TIP3    H136121   4.645   2.150  14.510  1.0917 -0.2772 -0.3256
 4902TIP3    H236122   4.642   2.052  14.625 -0.6878  3.3609  2.9550
 4903TIP3   OH236123   6.066   3.066  17.004  0.3728  0.4366  0.0545
 4903TIP3    H136124   5.984   3.079  16.956  0.0050  1.9114  1.0271
 4903TIP3    H236125   6.132   3.052  16.936 -0.7587 -1.4211 -0.7351
 4904TIP3   OH236126   0.392   5.040   5.296 -0.0356  0.0930 -0.3537
 4904TIP3    H136127   0.476   5.028   5.340 -0.0989  1.2390  0.1018
 4904TIP3    H236128   0.327   5.009   5.359  0.0701 -1.9304 -1.1540
 4905TIP3   OH236129   3.706   2.054  17.191  0.0257 -0.4164 -0.1359
 4905TIP3    H136130   3.694   2.087  17.102  0.8614  2.1525  0.6313
 4905TIP3    H236131   3.766   2.116  17.233  1.2883 -2.6694  1.6442
 4906TIP3   OH236132   3.492   2.457  15.495 -0.0135 -0.3087  0.0361
 4906TIP3    H136133   3.529   2.530  15.545 -1.1772  0.5885 -0.3724
 4906TIP3    H236134   3.545   2.382  15.521  2.1664  0.9175 -0.6268
 4907TIP3   OH236135   3.789   6.626   3.879  0.3727  0.0272 -0.2132
 4907TIP3    H136136   3.702   6.586   3.884  0.8577 -0.9512  0.9341
 4907TIP3    H236137   3.807   6.633   3.786 -1.7452  2.0980 -0.5459
 4908TIP3   OH236138   3.315   2.463  14.697  0.7691  0.0372 -0.7051
 4908TIP3    H136139   3.330   2.494  14.786  0.0312  0.5611 -0.7501
 4908TIP3    H236140   3.377   2.513  14.643  1.4232 -0.4955 -0.4572
 4909TIP3   OH236141   5.861   2.010   2.975 -0.0889  0.0353 -0.3276
 4909TIP3    H136142   5.808   2.062   3.036  0.0092  0.2384 -0.4167
 4909TIP3    H236143   5.950   2.017   3.009  0.0280  0.4760 -0.7237
 4910TIP3   OH236144   4.341   6.092  13.292  0.6298 -0.4778 -0.0646
 4910TIP3    H136145   4.436   6.098  13.290  0.6620 -1.0908 -0.5644
 4910TIP3    H236146   4.311   6.183  13.282  1.1542 -0.3768 -0.8011
 4911TIP3   OH236147   5.983   3.755  14.490 -0.1600 -0.2749 -0.3531
 4911TIP3    H136148   6.001   3.670  14.450  1.2697  0.0706 -0.4973
 4911TIP3    H236149   5.889   3.769  14.476 -0.9224 -2.8164  1.6286
 4912TIP3   OH236150   6.052   3.070  14.227  0.1386 -0.5127  0.3424
 4912TIP3    H136151   6.103   3.080  14.307 -1.3579  1.0427  1.1448
 4912TIP3    H236152   6.114   3.089  14.157  0.9718  0.1455  1.2326
 4913TIP3   OH236153   2.723   1.480  15.816  0.3163  0.0248 -0.3299
 4913TIP3    H136154   2.712   1.435  15.900  0.8222  0.7806  0.1600
 4913TIP3    H236155   2.639   1.524  15.801  0.3900  0.3038  0.0443
 4914TIP3   OH236156   2.015   6.050   0.874 -0.7170 -0.4771  0.3216
 4914TIP3    H136157   2.096   6.004   0.852 -0.5065 -0.9685  1.9595
 4914TIP3    H236158   2.042   6.141   0.888 -0.8236 -0.2011 -1.1444
 4915TIP3   OH236159   3.351   0.651   4.161 -0.2297 -0.0797  0.1105
 4915TIP3    H136160   3.296   0.601   4.223  0.5468 -0.0324  0.8569
 4915TIP3    H236161   3.430   0.599   4.153 -0.3672 -0.1327 -0.9480
 4916TIP3   OH236162   5.928   5.975   1.998 -0.2793  0.8189 -0.7672
 4916TIP3    H136163   5.892   6.062   2.016 -1.1565  0.2512  0.3979
 4916TIP3    H236164   5.918   5.964   1.904  3.2556  3.4222 -1.6654
 4917TIP3   OH236165   0.366   1.668  15.872  0.1664 -0.3223  0.0567
 4917TIP3    H136166   0.455   1.702  15.857 -0.2388 -0.2635 -2.8541
 4917TIP3    H236167   0.371   1.576  15.844 -0.3132 -0.8307  1.5634
 4918TIP3   OH236168   5.222   0.922  14.755 -0.4078  0.7423 -0.4791
 4918TIP3    H136169   5.191   0.931  14.664  0.1036  0.5544 -0.6710
 4918TIP3    H236170   5.182   0.996  14.801 -4.4171 -1.5468  0.2039
 4919TIP3   OH236171   0.208   0.437  11.200  0.5974 -0.0231 -0.6700
 4919TIP3    H136172   0.212   0.391  11.117  1.4249  0.5559 -0.9552
 4919TIP3    H236173   0.160   0.378  11.258  0.4758 -0.6507 -1.4046
 4920TIP3   OH236174   4.846   4.097   5.939 -0.0436 -0.0091 -0.0444
 4920TIP3    H136175   4.886   4.092   6.025 -1.2012  2.2329  0.6945
 4920TIP3    H236176   4.807   4.184   5.935 -0.2331 -0.1304 -2.7525
 4921TIP3   OH236177   6.320   2.393  15.404  0.1006  0.0738  0.3769
 4921TIP3    H136178   6.280   2.479  15.389  1.4985  0.9420  1.4620
 4921TIP3    H236179   6.324   2.353  15.316  0.3760  1.5346 -0.2979
 4922TIP3   OH236180   0.500   3.213  11.407 -0.2141  0.4598  0.2486
 4922TIP3    H136181   0.572   3.276  11.401  0.4522 -0.2026  1.0424
 4922TIP3    H236182   0.465   3.225  11.496  0.4228 -0.7974  0.6966
 4923TIP3   OH236183   2.768   2.644  13.985  0.5212  0.1124  0.1546
 4923TIP3    H136184   2.832   2.616  14.050  2.1235  2.2358 -0.3922
 4923TIP3    H236185   2.726   2.721  14.024  0.5803  0.6304 -0.7569
 4924TIP3   OH236186   5.251   4.813  14.328  0.2457  0.3338  0.2063
 4924TIP3    H136187   5.159   4.787  14.321  1.0613 -2.3238 -2.4412
 4924TIP3    H236188   5.254   4.900  14.287 -0.8091 -0.4256 -1.6064
 4925TIP3   OH236189   5.837   4.652   3.973  0.0884 -0.0529  0.2168
 4925TIP3    H136190   5.927   4.667   3.943 -0.0084 -2.1427 -1.3700
 4925TIP3    H236191   5.782   4.691   3.905 -0.1503 -1.4146 -0.4100
 4926TIP3   OH236192   3.956   2.837  13.882 -0.4227  0.0878  0.1319
 4926TIP3    H136193   3.910   2.811  13.803 -1.2026  2.1717 -0.1830
 4926TIP3    H236194   4.034   2.883  13.851 -1.1745  1.6941  0.4762
 4927TIP3   OH236195   5.677   5.616  14.570  0.1277 -0.8024  0.1269
 4927TIP3    H136196   5.664   5.557  14.495  3.2091  0.9949 -2.0271
 4927TIP3    H236197   5.759   5.587  14.609  2.1088  2.2304 -1.4018
 4928TIP3   OH236198   2.494   4.108  16.939 -0.5029 -0.2160 -0.1429
 4928TIP3    H136199   2.500   4.147  17.026  0.7674  2.5602 -1.3504
 4928TIP3    H236200   2.428   4.040  16.948  0.4207 -0.8369  3.2379
 4929TIP3   OH236201   4.203   4.214   5.091 -0.5561  0.1503 -0.0307
 4929TIP3    H136202   4.116   4.198   5.128 -0.1659 -0.3729  0.6834
 4929TIP3    H236203   4.255   4.244   5.166 -0.8752  3.5415 -1.0028
 4930TIP3   OH236204   6.609   3.935   0.609  0.3683  0.4320 -0.4808
 4930TIP3    H136205   6.612   4.028   0.584 -2.1347  0.3186 -1.4642
 4930TIP3    H236206   6.621   3.887   0.528  1.2620 -0.1135 -0.0367
 4931TIP3   OH236207   4.278   2.360  16.370  0.1626  0.0752 -0.3800
 4931TIP3    H136208   4.265   2.455  16.377 -1.6704 -0.0733 -1.1572
 4931TIP3    H236209   4.222   2.323  16.438 -0.7431 -0.4981 -1.3990
 4932TIP3   OH236210   2.724   4.882  15.217 -0.1703  0.4425  0.3263
 4932TIP3    H136211   2.634   4.857  15.198 -0.3615  0.5563  1.0702
 4932TIP3    H236212   2.721   4.976  15.229 -0.0919  0.3560  1.0852
 4933TIP3   OH236213   0.560   3.592   4.746 -0.1376  0.0104  0.5075
 4933TIP3    H136214   0.529   3.659   4.807  0.7662  1.1304 -0.2038
 4933TIP3    H236215   0.482   3.546   4.717 -0.8106  0.9599  0.7941
 4934TIP3   OH236216   1.205   2.595   4.289  0.2000  0.1886  0.2292
 4934TIP3    H136217   1.193   2.513   4.242  0.5125  0.8263 -1.0166
 4934TIP3    H236218   1.124   2.644   4.271  0.1412  0.2700  0.7161
 4935TIP3   OH236219   6.746   6.462  12.247  0.7040 -0.5828 -0.5957
 4935TIP3    H136220   6.716   6.468  12.338  0.9008  2.3459 -0.6316
 4935TIP3    H236221   6.807   6.388  12.246  1.9011  0.2825  2.0136
 4936TIP3   OH236222   3.504   5.151  12.601  0.2095  0.5606 -0.2927
 4936TIP3    H136223   3.430   5.203  12.633 -1.3985 -2.2444  0.9280
 4936TIP3    H236224   3.578   5.181  12.654 -1.5538 -1.1429  3.5112
 4937TIP3   OH236225   1.484   0.436   2.843 -0.0983  0.0233  0.6195
 4937TIP3    H136226   1.540   0.443   2.766 -0.3719 -1.0507  0.2955
 4937TIP3    H236227   1.394   0.440   2.809 -0.2227 -0.6919  0.8398
 4938TIP3   OH236228   0.266   6.142  15.459  0.2001  0.0696  0.6237
 4938TIP3    H136229   0.216   6.192  15.394  0.2952 -0.6395 -0.0074
 4938TIP3    H236230   0.334   6.203  15.488  0.2941  0.3287 -0.1102
 4939TIP3   OH236231   2.050   5.333   6.487 -0.0956  0.0073 -0.3225
 4939TIP3    H136232   2.053   5.241   6.511 -0.1307 -0.4360 -1.8795
 4939TIP3    H236233   2.132   5.348   6.439  0.5633  1.1653  1.0677
 4940TIP3   OH236234   1.599   2.131  11.600  0.2043  0.1877 -0.5931
 4940TIP3    H136235   1.665   2.099  11.538  0.1759 -1.0957  0.0257
 4940TIP3    H236236   1.525   2.156  11.545 -0.0666 -1.5454 -1.0653
 4941TIP3   OH236237   0.344   4.322  11.871 -0.4841 -0.2119  0.6262
 4941TIP3    H136238   0.318   4.383  11.940 -0.9964  0.0166  0.2368
 4941TIP3    H236239   0.389   4.377  11.806 -1.2264 -0.1817  0.1228
 4942TIP3   OH236240   6.257   3.212   3.178 -0.3826  0.7128 -0.1972
 4942TIP3    H136241   6.250   3.294   3.227  0.0860  1.4539 -1.3179
 4942TIP3    H236242   6.273   3.240   3.088  2.1603 -0.6081 -0.2362
 4943TIP3   OH236243   3.341   4.908   5.193 -0.1575  0.0192 -0.3363
 4943TIP3    H136244   3.337   4.941   5.283  0.9196 -1.0315  0.1077
 4943TIP3    H236245   3.389   4.976   5.145 -0.8682  0.6559 -0.1833
 4944TIP3   OH236246   2.543   3.349   3.114 -0.5473 -0.4010  0.1827
 4944TIP3    H136247   2.625   3.398   3.121 -0.2071 -0.6765 -1.4441
 4944TIP3    H236248   2.563   3.262   3.146 -0.4334 -0.2318  0.5738
 4945TIP3   OH236249   2.310   4.038   1.520  0.4359 -0.2776  0.0262
 4945TIP3    H136250   2.285   3.981   1.447  2.3551  0.7626 -1.5804
 4945TIP3    H236251   2.290   4.127   1.488  1.3598  0.1961  0.7193
 4946TIP3   OH236252   2.444   2.636  13.884  0.8323 -0.0431 -0.6629
 4946TIP3    H136253   2.435   2.555  13.934  0.2503  0.9123  0.8331
 4946TIP3    H236254   2.358   2.648  13.843  0.9788 -0.2814 -1.0406
 4947TIP3   OH236255   2.776   4.714  11.659 -0.2742  0.1421  0.5971
 4947TIP3    H136256   2.818   4.770  11.724  1.4414 -1.1536  0.6778
 4947TIP3    H236257   2.748   4.637  11.707 -2.2772  0.7205  0.4210
 4948TIP3   OH236258   5.221   5.033  13.712  0.5530  0.2274  0.3495
 4948TIP3    H136259   5.248   4.977  13.785  0.9500 -1.1342 -0.7944
 4948TIP3    H236260   5.160   4.979  13.662  0.1331  1.2147 -0.2294
 4949TIP3   OH236261   2.192   2.040  16.934  0.1253  0.5863  0.1623
 4949TIP3    H136262   2.203   2.016  16.842  0.9005  1.8530 -0.1019
 4949TIP3    H236263   2.268   2.094  16.954  0.7904 -0.9071  2.0089
 4950TIP3   OH236264   1.309   1.609  12.902  0.4425  0.7374  0.2220
 4950TIP3    H136265   1.269   1.527  12.929  2.4989  0.2459  2.0104
 4950TIP3    H236266   1.301   1.610  12.807 -0.5551 -1.0055  0.2620
 4951TIP3   OH236267   6.648   2.824  13.074 -0.0645 -0.3495 -0.1261
 4951TIP3    H136268   6.600   2.805  12.994 -0.0913 -1.5135  0.1496
 4951TIP3    H236269   6.589   2.796  13.144  0.9583 -1.7362  0.2189
 4952TIP3   OH236270   2.272   1.676  16.488 -0.1257 -0.4913  0.1091
 4952TIP3    H136271   2.255   1.592  16.531  0.0418 -0.1934  0.7767
 4952TIP3    H236272   2.368   1.684  16.489 -0.1856  0.4133  1.4762
 4953TIP3   OH236273   1.957   2.358  17.143 -0.1958 -0.6807  0.4284
 4953TIP3    H136274   1.963   2.264  17.158  1.7617 -0.7968 -0.7197
 4953TIP3    H236275   1.867   2.372  17.114 -0.0357 -2.5229 -1.1775
 4954TIP3   OH236276   5.744   0.177  11.058 -0.1214 -0.6208  0.0749
 4954TIP3    H136277   5.681   0.130  11.112 -0.6785  1.3564  1.2373
 4954TIP3    H236278   5.759   0.259  11.104  2.0723 -0.3288 -1.0145
 4955TIP3   OH236279   0.655   4.918  16.291 -0.2899 -0.0090 -0.1045
 4955TIP3    H136280   0.736   4.877  16.261 -0.7160 -1.0534  0.1233
 4955TIP3    H236281   0.624   4.968  16.216  1.4848  1.9117  0.3537
 4956TIP3   OH236282   5.995   2.359   1.918 -0.8051  0.8244 -0.5422
 4956TIP3    H136283   6.036   2.438   1.883 -1.3232  0.8589 -1.0847
 4956TIP3    H236284   6.000   2.295   1.846  1.2559 -0.2706  0.4735
 4957TIP3   OH236285   1.583   6.737  14.605  0.0759 -0.0480 -0.1159
 4957TIP3    H136286   1.562   6.767  14.693  0.9977 -1.9839  0.8335
 4957TIP3    H236287   1.513   6.675  14.583 -0.5542  0.9803 -1.0723
 4958TIP3   OH236288   1.306   2.930  10.957  0.0528 -0.2644 -0.0096
 4958TIP3    H136289   1.245   2.857  10.945 -2.0238  1.4663 -0.5418
 4958TIP3    H236290   1.353   2.936  10.874 -0.1538 -0.6475 -0.1588
 4959TIP3   OH236291   4.949   2.400   4.634  0.3246 -0.0366 -0.0374
 4959TIP3    H136292   4.961   2.459   4.559  0.6017  1.0659  0.8406
 4959TIP3    H236293   4.922   2.458   4.706 -2.1016 -1.3255  0.2037
 4960TIP3   OH236294   3.518   3.552   0.269  0.3899 -0.1514 -0.5608
 4960TIP3    H136295   3.590   3.540   0.207 -0.0050  2.2214 -1.5631
 4960TIP3    H236296   3.544   3.626   0.323  0.4286 -1.7653  1.7734
 4961TIP3   OH236297   5.195   1.262   1.833  0.0118  0.2870  0.4445
 4961TIP3    H136298   5.130   1.192   1.845 -0.4211  0.7839  1.0810
 4961TIP3    H236299   5.148   1.330   1.784  1.0377 -0.6937 -2.0615
 4962TIP3   OH236300   0.521   3.286  16.098 -0.0939  0.0770  0.4181
 4962TIP3    H136301   0.477   3.258  16.018 -0.2426  0.6214  0.3046
 4962TIP3    H236302   0.454   3.334  16.147  0.8592  2.6660 -0.6673
 4963TIP3   OH236303   6.446   0.577  13.021 -0.4673 -0.3795  0.3455
 4963TIP3    H136304   6.407   0.620  12.945  0.1726  0.4259  0.4544
 4963TIP3    H236305   6.532   0.547  12.990 -0.3943 -0.4527  0.6192
 4964TIP3   OH236306   0.623   2.061   1.283  0.2500  0.4648 -0.3779
 4964TIP3    H136307   0.705   2.035   1.325 -0.2021 -1.8340 -0.7639
 4964TIP3    H236308   0.556   2.045   1.350  0.1403  3.5285  0.3900
 4965TIP3   OH236309   2.402   1.679  12.944 -0.0488  0.1828 -0.4034
 4965TIP3    H136310   2.456   1.692  12.867 -0.6040  1.4403 -0.6081
 4965TIP3    H236311   2.464   1.666  13.016  0.4645 -1.0498 -1.0483
 4966TIP3   OH236312   1.775   4.918   3.518  0.0920 -0.0551 -0.1372
 4966TIP3    H136313   1.735   4.971   3.587  0.8439 -0.5086  0.6656
 4966TIP3    H236314   1.839   4.977   3.477 -1.4236  0.7052 -1.4947
 4967TIP3   OH236315   4.251   1.531  16.489 -0.5066 -0.3037  0.1780
 4967TIP3    H136316   4.289   1.538  16.401 -0.8189  3.1908  0.1579
 4967TIP3    H236317   4.181   1.467  16.480  1.6942 -2.7297 -1.1310
 4968TIP3   OH236318   1.076   2.851  11.538 -0.1994 -0.4346  0.4899
 4968TIP3    H136319   1.039   2.879  11.622  0.0561  0.8731  0.1974
 4968TIP3    H236320   1.055   2.922  11.477 -1.6418 -1.9915 -0.9356
 4969TIP3   OH236321   2.956   1.990  14.323  0.1298  0.0866  0.2254
 4969TIP3    H136322   3.009   1.916  14.291 -1.7171 -0.2154 -2.4657
 4969TIP3    H236323   3.003   2.021  14.400  3.5577 -0.8991 -1.2670
 4970TIP3   OH236324   6.134   4.724   4.423  0.3584 -0.7699  0.0514
 4970TIP3    H136325   6.202   4.748   4.486  1.0394 -3.6148  0.5345
 4970TIP3    H236326   6.092   4.807   4.400  1.5173  0.6152  2.5656
 4971TIP3   OH236327   5.457   5.442   0.006  0.2508 -0.5097  0.2711
 4971TIP3    H136328   5.551   5.460   0.009  0.2169 -0.0458 -1.1148
 4971TIP3    H236329   5.446   5.381  -0.066 -0.6749  0.5930 -0.5694
 4972TIP3   OH236330   2.947   1.351   3.478 -0.0469  0.1192  0.4937
 4972TIP3    H136331   3.020   1.402   3.444  1.1833 -0.9407  1.4605
 4972TIP3    H236332   2.980   1.262   3.483 -2.1381 -0.8421 -1.1577
 4973TIP3   OH236333   4.047   3.492  15.391 -0.2400 -0.1681  0.0071
 4973TIP3    H136334   3.955   3.498  15.363 -0.0689  0.2914 -0.4706
 4973TIP3    H236335   4.090   3.443  15.321 -0.4432 -1.9091  1.0430
 4974TIP3   OH236336   1.025   4.625  10.667  0.6250  0.1723  0.7376
 4974TIP3    H136337   1.061   4.596  10.751 -1.0846  1.7912  2.1251
 4974TIP3    H236338   1.022   4.721  10.674 -0.6895  0.2712 -0.6790
 4975TIP3   OH236339   6.740   4.392   0.314  0.1543 -0.0961 -0.2384
 4975TIP3    H136340   6.690   4.358   0.241  0.3987  0.4498 -0.6684
 4975TIP3    H236341   6.811   4.329   0.327  0.9385  0.4972 -1.3948
 4976TIP3   OH236342   0.290   5.108   0.750  0.4816  0.4844 -0.0208
 4976TIP3    H136343   0.210   5.144   0.787  0.6299  0.9585 -0.1586
 4976TIP3    H236344   0.290   5.016   0.778 -0.4194  0.3146 -0.5320
 4977TIP3   OH236345   3.476   1.609  10.894  0.7400 -0.2570  0.2622
 4977TIP3    H136346   3.395   1.568  10.926  1.0594 -1.8295 -0.7968
 4977TIP3    H236347   3.543   1.583  10.957  0.6689 -0.0538  0.4240
 4978TIP3   OH236348   3.483   4.134   3.339 -0.2967 -0.6165  0.0322
 4978TIP3    H136349   3.512   4.219   3.373 -0.3147  0.1322 -1.7082
 4978TIP3    H236350   3.563   4.093   3.306 -0.1579 -1.6596  1.5869
 4979TIP3   OH236351   5.500   1.251   1.050  0.2081 -0.2893  0.0996
 4979TIP3    H136352   5.434   1.302   1.097  0.2388  1.0898 -1.2991
 4979TIP3    H236353   5.573   1.311   1.038  1.1810 -1.3715  0.3819
 4980TIP3   OH236354   0.640   4.723  12.561 -0.2335 -0.6060 -0.0818
 4980TIP3    H136355   0.662   4.776  12.638 -1.2757 -1.5947  0.9362
 4980TIP3    H236356   0.565   4.768  12.523  0.3137 -0.0877 -0.5755
 4981TIP3   OH236357   3.079   1.851   1.955  0.1577 -0.1238 -0.2444
 4981TIP3    H136358   3.171   1.841   1.931  0.6106  1.5304  0.6185
 4981TIP3    H236359   3.080   1.906   2.034 -1.5265 -0.9017  0.3852
 4982TIP3   OH236360   6.535   0.754   5.331 -0.0433 -0.4210  0.3486
 4982TIP3    H136361   6.487   0.815   5.275  0.1295 -0.5988  0.0050
 4982TIP3    H236362   6.485   0.673   5.327  0.9589 -1.0088 -1.0426
 4983TIP3   OH236363   1.109   1.828  13.317 -0.0112 -0.5491 -0.2082
 4983TIP3    H136364   1.157   1.863  13.241 -2.0151 -0.1777 -1.3650
 4983TIP3    H236365   1.123   1.893  13.386  1.2526 -0.5367 -0.4399
 4984TIP3   OH236366   0.647   6.769   6.069  0.4294 -0.1423 -0.1470
 4984TIP3    H136367   0.690   6.684   6.077 -0.5029 -0.4994  1.8948
 4984TIP3    H236368   0.569   6.761   6.124  0.1062  1.8912 -0.2308
 4985TIP3   OH236369   6.461   0.971  13.786 -0.0624  0.2583  0.4576
 4985TIP3    H136370   6.554   0.953  13.775 -0.3252  0.6246 -3.8095
 4985TIP3    H236371   6.426   0.891  13.827  1.8781 -0.4369  0.8458
 4986TIP3   OH236372   5.624   5.282  11.694  0.1976 -0.2000 -0.1557
 4986TIP3    H136373   5.610   5.188  11.704 -0.1047 -0.2568 -1.0478
 4986TIP3    H236374   5.711   5.288  11.653 -0.6033 -0.1958 -1.9393
 4987TIP3   OH236375   6.725   0.139  13.965 -0.0485  0.1423  0.1779
 4987TIP3    H136376   6.742   0.050  13.932 -1.5608 -0.6665  1.4372
 4987TIP3    H236377   6.723   0.129  14.060 -0.7574  1.4283  0.3123
 4988TIP3   OH236378   0.663   0.343  14.139  0.6097 -0.2595 -0.2102
 4988TIP3    H136379   0.646   0.334  14.045 -0.9918 -0.9062  0.1094
 4988TIP3    H236380   0.733   0.408  14.144  2.2083 -1.7368 -1.9456
 4989TIP3   OH236381   6.657   3.816  13.616  0.5591  0.1040 -0.7125
 4989TIP3    H136382   6.666   3.739  13.671 -1.8331 -1.2413 -2.0419
 4989TIP3    H236383   6.617   3.882  13.673  0.9546 -0.2197 -0.0456
 4990TIP3   OH236384   3.570   5.578  15.673  0.2984  0.3123 -0.3906
 4990TIP3    H136385   3.565   5.662  15.627  1.2538  1.3286  1.2616
 4990TIP3    H236386   3.651   5.583  15.723 -1.2425 -0.2157  2.3152
 4991TIP3   OH236387   6.292   1.102  11.613  0.1525 -0.0312  0.5266
 4991TIP3    H136388   6.219   1.143  11.567 -0.9198 -0.9464  1.3602
 4991TIP3    H236389   6.298   1.014  11.577 -1.0327 -0.9413  2.4111
 4992TIP3   OH236390   5.563   3.282  10.628 -0.2571  0.0672  0.0952
 4992TIP3    H136391   5.600   3.194  10.626  1.4386  0.7556 -0.5404
 4992TIP3    H236392   5.533   3.297  10.538  0.8745  0.6828 -0.1991
 4993TIP3   OH236393   1.634   5.923  10.644 -0.0078  0.0345  0.5910
 4993TIP3    H136394   1.563   5.886  10.592 -1.0783  1.0133  1.3212
 4993TIP3    H236395   1.608   5.908  10.735  0.6027  0.6109  0.8710
 4994TIP3   OH236396   5.360   5.053  11.453  0.9748 -0.1955  0.0831
 4994TIP3    H136397   5.330   5.031  11.365 -0.2263  0.0196  0.4170
 4994TIP3    H236398   5.315   5.135  11.475  1.2124 -0.2703  0.9207
 4995TIP3   OH236399   4.074   3.409   3.225 -0.2701 -0.0178  0.6149
 4995TIP3    H136400   4.075   3.394   3.320 -0.3205 -1.1863  0.4417
 4995TIP3    H236401   4.158   3.452   3.207 -0.8356  1.4709  1.3629
 4996TIP3   OH236402   5.939   1.881  13.083  0.4134  0.6127  0.2504
 4996TIP3    H136403   5.921   1.974  13.073  0.2169  0.6762  1.0616
 4996TIP3    H236404   5.881   1.853  13.154  1.1231  0.0859  0.6444
 4997TIP3   OH236405   3.710   0.781  16.633  0.6515  0.1086  0.0197
 4997TIP3    H136406   3.707   0.867  16.675 -0.9899  0.2097 -0.2297
 4997TIP3    H236407   3.761   0.795  16.553 -0.5360  1.1731 -0.6068
 4998TIP3   OH236408   0.273   4.058  12.273  0.0714  0.1221 -0.5363
 4998TIP3    H136409   0.353   4.069  12.325 -0.5752 -0.9079  0.7388
 4998TIP3    H236410   0.305   4.037  12.185  1.1903  0.7468 -0.3063
 4999TIP3   OH236411   0.915   4.543  15.762  0.3407 -0.3524 -0.2010
 4999TIP3    H136412   0.896   4.633  15.736  0.5939 -0.5589 -1.1545
 4999TIP3    H236413   0.845   4.491  15.723 -0.3163 -0.4823  1.1103
 5000TIP3   OH236414   2.509   2.367   5.233 -0.0443  0.1155  0.4422
 5000TIP3    H136415   2.437   2.314   5.268  0.0974  0.8424  1.9297
 5000TIP3    H236416   2.467   2.449   5.206  0.0498  0.0752  0.1764
 5001TIP3   OH236417   0.016   6.693   2.672 -0.1563  0.5393  0.2326
 5001TIP3    H136418   0.008   6.718   2.764  3.3393  0.0255  0.7924
 5001TIP3    H236419   0.091   6.743   2.640 -1.5020  0.9683 -2.4975
 5002TIP3   OH236420   3.300   6.193   4.294 -0.6340  0.2858  0.0817
 5002TIP3    H136421   3.339   6.278   4.271 -0.4132 -0.1808 -1.3388
 5002TIP3    H236422   3.216   6.216   4.335 -0.3475  1.2046  0.1772
 5003TIP3   OH236423   2.061   1.367   2.159 -0.1255  0.4890  0.7967
 5003TIP3    H136424   2.068   1.293   2.220 -1.0295 -1.0861 -0.9031
 5003TIP3    H236425   2.144   1.413   2.167  0.4574 -0.6996  1.9262
 5004TIP3   OH236426   4.589   3.171   3.639 -0.2735  0.0230 -0.3300
 5004TIP3    H136427   4.640   3.246   3.609  0.7867  0.3845  2.1532
 5004TIP3    H236428   4.563   3.194   3.729 -1.1237 -1.9957 -0.0103
 5005TIP3   OH236429   3.428   5.271  12.300  0.0315 -0.3178  0.0329
 5005TIP3    H136430   3.410   5.183  12.332 -2.1193 -0.5936 -1.6461
 5005TIP3    H236431   3.481   5.257  12.221  2.7335  0.1854  1.6141
 5006TIP3   OH236432   3.361   0.840  14.576 -0.5872 -0.7147  0.6263
 5006TIP3    H136433   3.440   0.850  14.628  0.5490 -0.5711 -1.0387
 5006TIP3    H236434   3.310   0.772  14.620 -0.1991  0.1396  2.4726
 5007TIP3   OH236435   1.664   0.627  14.380  0.1041  0.3821 -0.0046
 5007TIP3    H136436   1.711   0.546  14.358 -0.5267 -1.0780  3.3635
 5007TIP3    H236437   1.607   0.642  14.305  0.5812 -2.0436 -0.9702
 5008TIP3   OH236438   1.707   0.572   1.201 -0.2906 -0.1663 -0.0876
 5008TIP3    H136439   1.772   0.519   1.246 -0.9925 -0.4791  0.5822
 5008TIP3    H236440   1.698   0.650   1.257  0.6395  0.6251 -0.9945
 5009TIP3   OH236441   3.971   2.944   2.707  0.5640 -0.0697  0.1988
 5009TIP3    H136442   4.007   2.881   2.769 -2.1500 -2.1884 -0.1884
 5009TIP3    H236443   3.918   3.003   2.761  1.0873  0.3394  0.2730
 5010TIP3   OH236444   6.326   6.258  15.856  0.4344 -0.1215  0.0154
 5010TIP3    H136445   6.244   6.211  15.840  0.0722  0.5933 -0.2886
 5010TIP3    H236446   6.307   6.313  15.932  1.2772 -1.4292  1.2262
 5011TIP3   OH236447   4.749   5.537  15.291 -0.2085  0.2824  0.3195
 5011TIP3    H136448   4.732   5.461  15.347 -0.0192  1.0182  1.4025
 5011TIP3    H236449   4.807   5.503  15.223  0.1547 -0.4771  0.9871
 5012TIP3   OH236450   1.765   6.392   3.317  0.2197 -0.5218 -0.1479
 5012TIP3    H136451   1.704   6.366   3.247 -0.8316 -2.5804  1.4152
 5012TIP3    H236452   1.730   6.474   3.351 -1.7288 -1.6288  0.6667
 5013TIP3   OH236453   1.007   1.136   1.645 -0.7910 -0.7084 -0.4388
 5013TIP3    H136454   0.947   1.128   1.570 -2.1481 -0.5474  0.5927
 5013TIP3    H236455   0.953   1.174   1.714  1.2059  2.1669 -0.2772
 5014TIP3   OH236456   6.607   4.223   0.594  0.0929  0.1089 -0.3532
 5014TIP3    H136457   6.547   4.289   0.630  0.2105  0.4372 -0.7539
 5014TIP3    H236458   6.667   4.273   0.538  1.8370  0.0295  1.3738
 5015TIP3   OH236459   0.781   2.963   3.712 -0.2262  0.4001  0.5323
 5015TIP3    H136460   0.843   3.031   3.686  1.0505 -0.9954 -0.2609
 5015TIP3    H236461   0.761   2.917   3.630  0.3359 -1.2478  1.2647
 5016TIP3   OH236462   3.467   1.658   4.442 -0.1975 -0.5924 -0.3424
 5016TIP3    H136463   3.376   1.688   4.448 -0.0267  1.1840 -3.8546
 5016TIP3    H236464   3.471   1.614   4.357  2.3512 -0.0628 -0.5639
 5017TIP3   OH236465   3.780   5.080   0.443 -0.1175 -0.4808 -0.1560
 5017TIP3    H136466   3.720   5.024   0.395 -1.6695 -1.6683  2.8889
 5017TIP3    H236467   3.855   5.024   0.462  0.0521 -0.3229 -0.3579
 5018TIP3   OH236468   6.328   4.664   6.354  0.6926  0.5140 -0.5738
 5018TIP3    H136469   6.347   4.582   6.400 -1.6568 -0.2166 -0.7830
 5018TIP3    H236470   6.273   4.713   6.415  0.9461  1.3432 -0.9986
 5019TIP3   OH236471   1.784   4.844   4.254 -0.1995  0.2051  0.8160
 5019TIP3    H136472   1.820   4.861   4.167  0.6128 -1.8074  0.6839
 5019TIP3    H236473   1.834   4.901   4.312  0.8242 -0.0158  0.1975
 5020TIP3   OH236474   0.945   5.612   5.124  0.0548  0.0328 -0.1799
 5020TIP3    H136475   0.898   5.570   5.196  2.0945 -1.4218  0.3613
 5020TIP3    H236476   0.898   5.584   5.045 -2.2049  1.6417  0.4545
 5021TIP3   OH236477   4.013   4.491   5.073 -0.0555 -0.1950 -0.4318
 5021TIP3    H136478   4.055   4.534   4.998  0.0923  1.5672  0.5830
 5021TIP3    H236479   4.085   4.479   5.136 -0.8665  2.5208  1.1833
 5022TIP3   OH236480   2.178   4.068   2.399  0.4505  0.4228 -0.0534
 5022TIP3    H136481   2.253   4.046   2.343  0.5744  0.9110 -0.0773
 5022TIP3    H236482   2.185   4.162   2.413 -0.1093  0.4566  0.0181
 5023TIP3   OH236483   1.992   3.080   5.115  0.0673 -0.2468  0.0450
 5023TIP3    H136484   1.929   3.151   5.130  1.1693  0.4682  1.6287
 5023TIP3    H236485   2.001   3.075   5.020 -1.6540  0.2506 -0.1798
 5024TIP3   OH236486   3.891   2.268   4.319 -0.2077 -0.7710  0.2533
 5024TIP3    H136487   3.863   2.307   4.402  0.4725 -0.9624  0.5841
 5024TIP3    H236488   3.892   2.340   4.257  0.0428 -0.4692  0.6065
 5025TIP3   OH236489   1.327   3.847  12.762 -0.3777 -0.3893 -0.4064
 5025TIP3    H136490   1.389   3.869  12.832 -0.0044 -0.1749 -0.7962
 5025TIP3    H236491   1.244   3.884  12.790 -0.1976 -0.1873 -0.1367
 5026TIP3   OH236492   2.435   1.299  15.444  0.0770  0.1193 -0.7044
 5026TIP3    H136493   2.490   1.224  15.468  0.8416  0.7272 -0.5501
 5026TIP3    H236494   2.364   1.260  15.393  0.5670 -0.6945 -0.7899
 5027TIP3   OH236495   1.205   6.343  17.019  0.4761  0.0467  0.5078
 5027TIP3    H136496   1.144   6.271  17.035 -0.2849  0.4834 -0.3434
 5027TIP3    H236497   1.273   6.304  16.965  0.8300 -0.3783  1.2409
 5028TIP3   OH236498   5.073   0.457  12.368  0.1629  0.7174  0.5449
 5028TIP3    H136499   5.120   0.495  12.442 -0.0629  1.0650  0.5116
 5028TIP3    H236500   5.136   0.457  12.296 -0.2829  2.4972  0.0880
 5029TIP3   OH236501   4.225   4.206   0.699  0.2611  0.5042  0.0946
 5029TIP3    H136502   4.251   4.209   0.607  1.8510  0.7136  0.5124
 5029TIP3    H236503   4.225   4.113   0.721 -0.5826  0.4225 -0.2284
 5030TIP3   OH236504   3.413   0.213   3.084  0.5349  0.0929 -0.2784
 5030TIP3    H136505   3.325   0.183   3.063  0.5808 -0.9025  0.8667
 5030TIP3    H236506   3.409   0.308   3.073 -0.5298  0.0027 -0.7742
 5031TIP3   OH236507   1.095   3.970  14.366 -0.2254 -0.2440  0.6326
 5031TIP3    H136508   1.164   3.907  14.344 -0.5219 -1.6324  3.2748
 5031TIP3    H236509   1.097   4.034  14.294  1.4453 -2.1366 -1.1439
 5032TIP3   OH236510   1.653   2.498  12.192  0.9924  0.3088 -0.4782
 5032TIP3    H136511   1.608   2.527  12.271  1.6132  0.1215 -0.0450
 5032TIP3    H236512   1.739   2.540  12.197  1.0539  0.2506 -1.0277
 5033TIP3   OH236513   3.100   5.679  15.586 -0.4301 -0.8555 -0.0721
 5033TIP3    H136514   3.096   5.774  15.594 -0.4849 -0.8039 -0.6232
 5033TIP3    H236515   3.057   5.661  15.502  1.1424 -1.2067 -0.8553
 5034TIP3   OH236516   1.659   0.466  10.672 -0.0126 -0.2315  0.7559
 5034TIP3    H136517   1.607   0.475  10.752 -0.5468 -0.0177  0.3870
 5034TIP3    H236518   1.612   0.401  10.620 -0.8693  1.2090 -0.3238
 5035TIP3   OH236519   1.353   2.399   1.072 -0.0482  0.1320  0.8462
 5035TIP3    H136520   1.435   2.438   1.104  0.0006  1.1540 -0.4538
 5035TIP3    H236521   1.375   2.365   0.985 -0.8904  0.0363  0.6620
 5036TIP3   OH236522   4.872   6.249   3.711 -0.6159  0.2717 -0.4370
 5036TIP3    H136523   4.891   6.185   3.643  0.0462  1.6006 -1.5583
 5036TIP3    H236524   4.778   6.263   3.706 -0.3180  1.9176 -2.5859
 5037TIP3   OH236525   6.183   0.517   6.657 -0.0190 -0.4068  0.2858
 5037TIP3    H136526   6.199   0.422   6.654  0.1634 -0.3630 -1.3208
 5037TIP3    H236527   6.252   0.552   6.713 -0.1411 -1.2230  0.9678
 5038TIP3   OH236528   5.389   3.497   4.410  0.5243  0.3086  0.4301
 5038TIP3    H136529   5.429   3.521   4.327  0.0792  1.8425  0.6224
 5038TIP3    H236530   5.297   3.481   4.390  0.8788 -1.7070  0.2465
 5039TIP3   OH236531   2.989   0.453   0.581 -0.4499  0.3698  0.3845
 5039TIP3    H136532   2.961   0.528   0.634  1.1842  2.0342 -0.9662
 5039TIP3    H236533   2.935   0.381   0.612 -0.1014  1.3810  3.7549
 5040TIP3   OH236534   4.326   0.362   4.738  0.3704 -0.1703 -0.2441
 5040TIP3    H136535   4.342   0.392   4.828  0.2266  1.1021 -0.6287
 5040TIP3    H236536   4.360   0.272   4.737 -0.5153 -0.5631  1.3494
 5041TIP3   OH236537   3.683   4.636   4.073 -0.0077  0.2834 -0.1848
 5041TIP3    H136538   3.685   4.566   4.139 -0.3642 -1.4404 -1.8998
 5041TIP3    H236539   3.632   4.706   4.114 -1.0521 -1.1099  1.0064
 5042TIP3   OH236540   6.469   0.864  10.534 -0.0902 -0.2172  0.7095
 5042TIP3    H136541   6.470   0.898  10.444  0.0240  0.5833  1.0033
 5042TIP3    H236542   6.410   0.789  10.530  1.9051 -1.8369 -0.6019
 5043TIP3   OH236543   4.405   3.979  16.115 -0.9266 -0.2643  0.0695
 5043TIP3    H136544   4.484   4.026  16.089 -2.3499  0.6799 -3.0217
 5043TIP3    H236545   4.374   4.024  16.193  0.4529  0.7339  0.0648
 5044TIP3   OH236546   0.683   6.410   4.102 -0.1526  0.2009 -0.6500
 5044TIP3    H136547   0.640   6.397   4.186 -0.4092 -3.0072 -1.1408
 5044TIP3    H236548   0.774   6.388   4.118 -0.1072  0.0584 -1.0819
 5045TIP3   OH236549   2.523   0.463   1.260 -0.1959  0.1481  0.3323
 5045TIP3    H136550   2.446   0.407   1.263  0.4354 -0.7159  1.5507
 5045TIP3    H236551   2.581   0.419   1.198 -0.5007  0.5543 -0.2432
 5046TIP3   OH236552   4.790   0.826   2.493 -0.5978 -0.3030  0.5188
 5046TIP3    H136553   4.783   0.917   2.522  0.9507  0.3249 -0.9264
 5046TIP3    H236554   4.783   0.831   2.397  1.1713 -1.4652  0.2841
 5047TIP3   OH236555   4.165   1.833   1.443 -0.3832 -0.3430 -0.0989
 5047TIP3    H136556   4.185   1.784   1.523 -0.6927 -2.3681 -1.2175
 5047TIP3    H236557   4.083   1.796   1.412 -1.6816  2.2242 -0.0148
 5048TIP3   OH236558   4.473   5.857   4.363  0.1134  0.2711  0.6027
 5048TIP3    H136559   4.513   5.805   4.293  0.7189  0.4866  0.7819
 5048TIP3    H236560   4.539   5.923   4.384 -0.6073  1.0537  0.4511
 5049TIP3   OH236561   4.979   5.505  12.466 -0.0203 -0.2699 -0.1439
 5049TIP3    H136562   4.925   5.427  12.458 -1.4270  0.6024  0.4737
 5049TIP3    H236563   4.928   5.574  12.423 -0.6344  1.1307  2.5999
 5050TIP3   OH236564   5.717   4.062   3.277  0.4628 -0.5578 -0.2541
 5050TIP3    H136565   5.738   3.982   3.229 -0.0185  0.2049 -1.8176
 5050TIP3    H236566   5.659   4.111   3.218  0.7664  0.9531  0.6420
 5051TIP3   OH236567   3.798   0.558  12.541 -0.7712  0.0793 -0.0437
 5051TIP3    H136568   3.886   0.584  12.569 -0.4599 -0.7124 -0.2670
 5051TIP3    H236569   3.784   0.605  12.459 -0.9446  0.9582  0.4817
 5052TIP3   OH236570   5.689   1.325   2.580 -0.4063 -0.7226  0.1610
 5052TIP3    H136571   5.693   1.370   2.664  0.2666 -1.7062  0.6844
 5052TIP3    H236572   5.687   1.232   2.603  1.1392 -1.0701 -0.9151
 5053TIP3   OH236573   5.278   4.456  14.219 -0.4291  0.3387  0.7761
 5053TIP3    H136574   5.314   4.447  14.308  1.8644  1.4757  0.0406
 5053TIP3    H236575   5.344   4.506  14.172 -1.5954 -0.2463 -1.6061
 5054TIP3   OH236576   2.853   6.084  13.796 -0.0618  0.1808 -0.0485
 5054TIP3    H136577   2.852   6.116  13.887 -0.0375  1.0862 -0.3560
 5054TIP3    H236578   2.914   6.142  13.751  1.6455 -1.6012 -0.1938
 5055TIP3   OH236579   3.946   1.429   3.379 -0.8817 -0.6509 -1.0511
 5055TIP3    H136580   3.988   1.428   3.465 -0.0297 -0.8703 -1.4539
 5055TIP3    H236581   3.960   1.340   3.345 -1.0085 -0.4987 -1.5074
 5056TIP3   OH236582   4.429   0.545  12.085  0.3814  0.2010  0.1701
 5056TIP3    H136583   4.486   0.612  12.125 -0.6225  0.8015  0.6245
 5056TIP3    H236584   4.385   0.505  12.160 -0.3552  0.2618 -0.2330
 5057TIP3   OH236585   2.238   6.071  13.257 -0.6151  0.0281  0.8215
 5057TIP3    H136586   2.196   5.996  13.214  2.9091 -1.4401 -0.4271
 5057TIP3    H236587   2.210   6.064  13.349  0.2503 -3.4694  0.9587
 5058TIP3   OH236588   2.811   3.936   1.671  0.1359 -0.3423  0.1988
 5058TIP3    H136589   2.718   3.949   1.691  0.3422  1.1773  0.2667
 5058TIP3    H236590   2.824   3.979   1.586  0.2733 -2.7148 -1.0531
 5059TIP3   OH236591   1.430   5.928  15.413  0.0780 -0.0273 -0.3323
 5059TIP3    H136592   1.423   5.885  15.498 -1.1497 -0.2312 -0.5279
 5059TIP3    H236593   1.346   5.912  15.371  1.3572 -1.7749 -2.4721
 5060TIP3   OH236594   5.580   5.415   0.519 -0.0607 -0.5541 -0.1378
 5060TIP3    H136595   5.538   5.330   0.535  0.8185 -0.9258  0.2673
 5060TIP3    H236596   5.601   5.449   0.606 -1.1148  0.4627 -0.2617
 5061TIP3   OH236597   3.810   0.780   1.825 -0.0609  0.1233 -0.6089
 5061TIP3    H136598   3.769   0.732   1.896 -3.1807  1.1503 -1.5676
 5061TIP3    H236599   3.903   0.785   1.850 -0.3148 -2.7892  1.4486
 5062TIP3   OH236600   5.307   4.878   2.011 -0.0412 -0.1214 -0.3847
 5062TIP3    H136601   5.391   4.831   2.004  0.4537  0.4534  1.3673
 5062TIP3    H236602   5.317   4.933   2.088 -1.2323  1.6468 -1.4464
 5063TIP3   OH236603   3.918   5.317  12.737 -0.2235 -0.3677 -0.2738
 5063TIP3    H136604   3.972   5.282  12.808 -0.1080 -0.8640 -0.6035
 5063TIP3    H236605   3.982   5.350  12.674 -0.1965  4.2249  1.7509
 5064TIP3   OH236606   1.398   4.911   3.790  0.2017  0.0780  0.1865
 5064TIP3    H136607   1.400   4.917   3.886  3.1931  0.7826  0.1808
 5064TIP3    H236608   1.386   4.818   3.772  0.4141 -0.1761  1.2759
 5065TIP3   OH236609   6.243   3.049  16.072 -0.7981  0.1082  0.8082
 5065TIP3    H136610   6.236   3.139  16.105  0.3176  1.3038 -1.9049
 5065TIP3    H236611   6.166   3.037  16.017 -1.5197 -1.0536  2.0226
 5066TIP3   OH236612   0.125   1.075   2.430 -0.6027 -0.1831 -1.0532
 5066TIP3    H136613   0.163   1.156   2.395 -0.6136 -0.6941 -2.2634
 5066TIP3    H236614   0.056   1.106   2.490  0.9551  0.7348  0.3691
 5067TIP3   OH236615   5.056   1.979   5.730 -0.4343 -0.0392  0.0125
 5067TIP3    H136616   5.128   2.041   5.722  1.5046 -2.0275  1.0629
 5067TIP3    H236617   5.065   1.921   5.654 -0.6210 -0.5743  0.3885
 5068TIP3   OH236618   0.879   0.200  15.401 -0.2244  0.0764 -0.0148
 5068TIP3    H136619   0.877   0.113  15.442 -1.1418 -0.2589 -0.7305
 5068TIP3    H236620   0.835   0.257  15.463 -1.3438 -0.3725 -0.3587
 5069TIP3   OH236621   4.147   4.308   5.710 -0.4122  0.0462 -0.0483
 5069TIP3    H136622   4.218   4.308   5.646  0.9939  0.8670  1.4617
 5069TIP3    H236623   4.147   4.396   5.747 -0.2844 -0.7696  2.0239
 5070TIP3   OH236624   2.548   2.251  15.392 -0.1695 -0.0371  0.1623
 5070TIP3    H136625   2.602   2.173  15.377  0.6584  0.5303  0.1518
 5070TIP3    H236626   2.485   2.222  15.458  1.2805 -0.2263  1.5332
 5071TIP3   OH236627   0.151   2.128   4.963  0.2377 -0.5465  0.2585
 5071TIP3    H136628   0.101   2.064   4.913  0.4004 -1.4469  1.2355
 5071TIP3    H236629   0.238   2.090   4.971  0.8706  0.6120 -0.6691
 5072TIP3   OH236630   4.014   4.863  13.159  0.0866 -0.7123  0.8290
 5072TIP3    H136631   4.003   4.883  13.252 -0.5771 -1.9556  1.0314
 5072TIP3    H236632   3.925   4.862  13.124  0.3755  0.6603 -0.0424
 5073TIP3   OH236633   2.853   5.165   2.036  0.4085 -0.4361 -0.3393
 5073TIP3    H136634   2.930   5.122   2.072  1.1126  1.2729  0.2800
 5073TIP3    H236635   2.839   5.121   1.951  0.4980 -2.4745  0.6363
 5074TIP3   OH236636   3.557   1.198   4.123 -0.2522 -0.4601  0.5351
 5074TIP3    H136637   3.495   1.168   4.056  1.1497 -0.2054 -0.9527
 5074TIP3    H236638   3.613   1.122   4.138 -0.3549 -0.4088  1.2121
 5075TIP3   OH236639   3.083   4.205   0.246 -0.1674 -0.2481  0.7022
 5075TIP3    H136640   3.015   4.239   0.303 -0.4790 -0.1992  0.3037
 5075TIP3    H236641   3.163   4.211   0.298 -0.4897 -0.4522  1.2244
 5076TIP3   OH236642   4.508   6.548  14.189 -0.0992  0.1842  0.1639
 5076TIP3    H136643   4.531   6.461  14.222 -0.1620  0.7685  1.8261
 5076TIP3    H236644   4.550   6.609  14.249 -0.2514  1.3229 -0.8355
 5077TIP3   OH236645   6.290   4.809   1.531 -0.1489  0.2740 -0.2375
 5077TIP3    H136646   6.285   4.904   1.521  0.1148  0.5458  1.7372
 5077TIP3    H236647   6.199   4.779   1.525 -0.1855  0.5698 -1.3613
 5078TIP3   OH236648   4.142   2.273  16.594  0.1354  0.1737 -0.1926
 5078TIP3    H136649   4.154   2.301  16.684 -1.0307 -2.0429  0.7492
 5078TIP3    H236650   4.047   2.273  16.581  0.0067 -2.9657 -0.0945
 5079TIP3   OH236651   4.391   5.901   4.055  0.2293  0.2781 -0.0198
 5079TIP3    H136652   4.446   5.943   4.121  0.3520  0.9517 -0.5351
 5079TIP3    H236653   4.437   5.821   4.032  0.3934  0.2462  0.4056
 5080TIP3   OH236654   5.334   1.585  16.571  0.2513  0.0435  0.0954
 5080TIP3    H136655   5.249   1.624  16.553  0.3385  0.3867  0.4236
 5080TIP3    H236656   5.378   1.648  16.627  0.4093 -0.5084  0.6033
 5081TIP3   OH236657   1.165   3.262   3.730  0.4646 -0.6138  0.3405
 5081TIP3    H136658   1.260   3.267   3.726  0.7608 -4.3477 -0.4873
 5081TIP3    H236659   1.147   3.196   3.797 -1.7587  1.6125  2.2015
 5082TIP3   OH236660   5.813   0.084  15.189 -0.0751 -0.4588  0.3320
 5082TIP3    H136661   5.813   0.103  15.096  0.1783 -1.0314  0.2139
 5082TIP3    H236662   5.866   0.005  15.198  0.7786  0.1819  1.0831
 5083TIP3   OH236663   0.728   0.739  14.431 -0.0611  0.4113  0.2751
 5083TIP3    H136664   0.746   0.671  14.496 -0.2354 -0.1205 -0.2326
 5083TIP3    H236665   0.802   0.735  14.370 -0.3520  0.2946 -0.0737
 5084TIP3   OH236666   4.582   1.757  10.675  0.4395 -0.3577 -0.3870
 5084TIP3    H136667   4.585   1.706  10.594 -1.7047 -0.9480 -0.1719
 5084TIP3    H236668   4.673   1.777  10.695  1.3167 -3.1969 -1.0661
 5085TIP3   OH236669   5.755   4.472   1.534  0.0123 -0.2193 -0.2943
 5085TIP3    H136670   5.695   4.517   1.592 -0.3280 -0.9573 -0.0688
 5085TIP3    H236671   5.805   4.413   1.591 -0.6329 -1.2747 -0.7889
 5086TIP3   OH236672   3.746   0.318  12.638  0.0781 -0.0673  0.0827
 5086TIP3    H136673   3.772   0.405  12.609 -0.5562  0.1817  0.2484
 5086TIP3    H236674   3.820   0.262  12.615  1.0742  0.7515  1.1917
 5087TIP3   OH236675   0.334   1.129  13.854  0.4126  0.8100  0.2633
 5087TIP3    H136676   0.339   1.199  13.920 -0.5658  0.5064  0.6688
 5087TIP3    H236677   0.244   1.131  13.824  0.7637  0.6965 -0.8175
 5088TIP3   OH236678   0.816   1.502  10.939  0.4598 -0.1940 -0.0396
 5088TIP3    H136679   0.782   1.582  10.977  1.1295  0.1492 -0.1438
 5088TIP3    H236680   0.799   1.511  10.845  1.6354  0.3897 -0.2070
 5089TIP3   OH236681   5.207   2.511   2.722  0.3429 -0.0434 -0.1598
 5089TIP3    H136682   5.114   2.493   2.710  0.5054 -1.0698  0.0733
 5089TIP3    H236683   5.212   2.550   2.810  0.0455  0.7693 -0.4921
 5090TIP3   OH236684   6.116   2.261   1.654 -0.0148  0.0690 -0.3646
 5090TIP3    H136685   6.156   2.277   1.569 -1.0369 -0.8229 -1.0338
 5090TIP3    H236686   6.133   2.169   1.672  0.7257  0.3933  0.7025
 5091TIP3   OH236687   1.724   1.328  12.278 -0.2718 -0.0789 -0.2116
 5091TIP3    H136688   1.717   1.414  12.236 -0.9323 -0.3107 -0.5863
 5091TIP3    H236689   1.809   1.294  12.249  0.0100  0.4571 -0.0340
 5092TIP3   OH236690   5.773   6.588  10.941 -0.3495  0.2881 -0.2306
 5092TIP3    H136691   5.831   6.577  10.866 -0.2166 -1.8594  0.1350
 5092TIP3    H236692   5.708   6.652  10.912 -0.6200 -0.8715 -2.3952
 5093TIP3   OH236693   5.528   0.929   3.723  0.1639 -0.2110 -0.1935
 5093TIP3    H136694   5.533   0.834   3.730 -0.0425 -0.2414 -0.4638
 5093TIP3    H236695   5.599   0.961   3.780 -1.1254 -0.4549  1.6231
 5094TIP3   OH236696   0.377   2.406   5.567 -0.4425  0.5010  0.3646
 5094TIP3    H136697   0.353   2.354   5.490  4.6260 -0.6600 -0.8320
 5094TIP3    H236698   0.402   2.491   5.530 -3.3324  2.0450  1.6411
 5095TIP3   OH236699   1.039   2.635   6.709 -0.3604  0.3288 -0.3655
 5095TIP3    H136700   1.035   2.554   6.658 -0.4411  0.9772 -1.4012
 5095TIP3    H236701   0.957   2.680   6.689  0.4871  1.5227 -1.2570
 5096TIP3   OH236702   4.618   1.634   5.884 -0.1971  0.3616  0.1869
 5096TIP3    H136703   4.643   1.705   5.943 -1.6312  0.4817  0.6934
 5096TIP3    H236704   4.693   1.574   5.885 -0.1527  0.3831  2.1072
 5097TIP3   OH236705   0.056   5.509   3.849  0.2630 -0.5638  0.1119
 5097TIP3    H136706   0.138   5.459   3.849  0.3953 -0.4209 -1.6774
 5097TIP3    H236707   0.083   5.600   3.859  0.0341 -0.7186  3.1512
 5098TIP3   OH236708   0.156   1.245   1.794 -0.7132  0.3035 -0.8744
 5098TIP3    H136709   0.215   1.320   1.791  0.0599 -0.0661  1.9366
 5098TIP3    H236710   0.214   1.169   1.806 -1.5656 -0.5681 -2.0374
 5099TIP3   OH236711   3.393   5.992  16.539  0.5656  0.3255  0.1080
 5099TIP3    H136712   3.320   5.931  16.550  0.8948 -0.3033 -0.9912
 5099TIP3    H236713   3.423   5.977  16.449  1.6390  1.0276  0.3308
 5100TIP3   OH236714   0.251   1.350  13.615 -0.1795  0.2940 -0.0592
 5100TIP3    H136715   0.208   1.376  13.697 -0.7445  0.2988 -0.3521
 5100TIP3    H236716   0.254   1.255  13.618 -1.8683  0.1876 -0.8475
 5101TIP3   OH236717   4.384   3.794   3.429  0.1251 -0.4398  0.0531
 5101TIP3    H136718   4.348   3.811   3.342  0.6570  0.1283 -0.0597
 5101TIP3    H236719   4.465   3.844   3.432  0.8506 -1.5803  0.3565
 5102TIP3   OH236720   1.070   4.182  15.485 -0.2783  0.6324  0.5131
 5102TIP3    H136721   1.056   4.217  15.573 -0.6808  0.9961  0.3095
 5102TIP3    H236722   0.983   4.155  15.456 -0.0511 -0.0462  0.4573
 5103TIP3   OH236723   6.112   1.695  17.046 -0.1020  0.4900 -0.1877
 5103TIP3    H136724   6.093   1.788  17.045  0.4841  0.6151 -0.2911
 5103TIP3    H236725   6.067   1.659  16.969 -0.2372  0.7066 -0.2083
 5104TIP3   OH236726   2.267   3.027  11.281  0.4460 -0.2775  0.4684
 5104TIP3    H136727   2.291   3.119  11.271  0.5918 -0.0743  2.2835
 5104TIP3    H236728   2.350   2.980  11.289  0.3722 -0.2623  1.5794
 5105TIP3   OH236729   1.131   3.567  15.865 -0.2416 -0.0289  0.0349
 5105TIP3    H136730   1.106   3.642  15.811 -0.9524 -1.3193 -1.5112
 5105TIP3    H236731   1.205   3.528  15.818  0.4988  0.0289  1.1330
 5106TIP3   OH236732   5.529   4.645   2.361 -0.0288  0.0693 -0.3916
 5106TIP3    H136733   5.466   4.707   2.398 -0.5466 -0.8874  0.3640
 5106TIP3    H236734   5.483   4.562   2.358  0.5753 -0.2492 -1.6376
 5107TIP3   OH236735   5.555   5.177   1.022 -0.7869 -0.2443  0.1166
 5107TIP3    H136736   5.503   5.178   1.102  0.5192 -1.2523  1.0350
 5107TIP3    H236737   5.622   5.110   1.038 -0.6315 -0.6429 -1.9217
 5108TIP3   OH236738   0.001   0.683  14.280 -0.0174  0.4557  0.4421
 5108TIP3    H136739   0.063   0.757  14.286 -0.2969  0.8160 -0.8503
 5108TIP3    H236740   0.045   0.620  14.223 -1.2104  1.1363 -1.3094
 5109TIP3   OH236741   3.518   6.632   2.702  0.4548  0.1874  0.0843
 5109TIP3    H136742   3.596   6.578   2.687  0.0391 -0.1310 -1.0626
 5109TIP3    H236743   3.553   6.721   2.712  0.9381  0.1328 -0.9718
 5110TIP3   OH236744   4.997   3.555   4.543 -0.0638  0.1850 -0.2517
 5110TIP3    H136745   5.045   3.626   4.586 -0.3688  0.2288  0.0223
 5110TIP3    H236746   4.945   3.516   4.613  1.3942 -1.4331 -0.0035
 5111TIP3   OH236747   2.949   1.849   6.162 -0.4139  0.5349  0.1932
 5111TIP3    H136748   2.888   1.819   6.095 -0.3366  2.0871 -0.6249
 5111TIP3    H236749   2.925   1.800   6.240 -2.3301  0.6555 -0.2669
 5112TIP3   OH236750   2.769   2.439   4.669  0.1894  0.3831  0.3341
 5112TIP3    H136751   2.851   2.483   4.690 -0.8947  2.6820  0.0550
 5112TIP3    H236752   2.742   2.399   4.752  0.7154  1.1083  0.8732
 5113TIP3   OH236753   6.712   5.109  11.733  0.4878  0.4331 -0.1273
 5113TIP3    H136754   6.709   5.082  11.641  1.1378  1.7196 -0.5419
 5113TIP3    H236755   6.658   5.043  11.779  1.2454 -0.9957 -1.2159
 5114TIP3   OH236756   6.192   1.808   4.714  0.0599 -0.2768 -0.5656
 5114TIP3    H136757   6.241   1.880   4.673  2.4762 -0.8162  1.1326
 5114TIP3    H236758   6.180   1.836   4.804  2.2574 -2.4080  0.5184
 5115TIP3   OH236759   5.075   1.218  15.455 -0.4724 -0.2193 -0.0823
 5115TIP3    H136760   5.001   1.209  15.514 -0.4964  0.0240 -0.0756
 5115TIP3    H236761   5.068   1.142  15.396 -0.1106 -0.7867  0.5965
 5116TIP3   OH236762   5.213   3.274   1.220 -0.7658 -0.1833 -0.9989
 5116TIP3    H136763   5.255   3.330   1.156  1.3004 -1.6111 -1.0143
 5116TIP3    H236764   5.144   3.228   1.172 -1.5475  1.2394 -1.2981
 5117TIP3   OH236765   2.274   0.342  12.414 -0.4532  0.3701  0.4121
 5117TIP3    H136766   2.190   0.364  12.375  0.4284  0.6405 -1.4400
 5117TIP3    H236767   2.326   0.422  12.405  0.6192 -0.3752 -0.2783
 5118TIP3   OH236768   6.563   0.689  15.725  0.1993 -0.6648  0.2368
 5118TIP3    H136769   6.523   0.721  15.806 -0.4852  1.4502 -0.8519
 5118TIP3    H236770   6.653   0.721  15.728 -0.3839  1.2436 -0.6831
 5119TIP3   OH236771   2.015   4.304   5.390  0.6781 -0.0936 -0.0653
 5119TIP3    H136772   2.001   4.228   5.447 -1.6497 -0.3838 -0.9182
 5119TIP3    H236773   2.054   4.267   5.311  0.5085 -0.2489 -0.0775
 5120TIP3   OH236774   0.162   3.232  14.369  0.1691  0.2840 -0.0977
 5120TIP3    H136775   0.186   3.140  14.364  3.0830  0.9973 -1.5371
 5120TIP3    H236776   0.191   3.260  14.456  0.2538  0.0931 -0.0652
 5121TIP3   OH236777   5.496   2.611  14.020 -0.1696 -0.0325 -0.3781
 5121TIP3    H136778   5.467   2.520  14.030 -0.2442  0.1272  0.9566
 5121TIP3    H236779   5.456   2.658  14.093  1.9476  0.5529  0.4822
 5122TIP3   OH236780   1.351   3.964   1.887  0.2129 -0.0532  0.2392
 5122TIP3    H136781   1.440   3.947   1.919  0.9068  0.2090 -1.4540
 5122TIP3    H236782   1.363   4.028   1.817 -1.1459 -1.1770 -1.0610
 5123TIP3   OH236783   1.331   4.324   3.675 -0.0014 -0.0805 -0.1033
 5123TIP3    H136784   1.260   4.331   3.611 -0.6586  0.0317  0.6274
 5123TIP3    H236785   1.405   4.289   3.625 -0.2174  0.8721 -1.1365
 5124TIP3   OH236786   4.964   6.169  11.201 -0.6299  0.6376 -0.4257
 5124TIP3    H136787   5.049   6.208  11.179 -0.2973  0.1763  0.0341
 5124TIP3    H236788   4.900   6.235  11.173 -0.1334  0.8950 -0.9792
 5125TIP3   OH236789   4.783   3.264   5.088  0.2647 -0.3252  0.1382
 5125TIP3    H136790   4.863   3.213   5.073  0.8078  0.5711 -0.0585
 5125TIP3    H236791   4.803   3.320   5.162 -0.6647 -1.0543  0.9747
 5126TIP3   OH236792   1.067   6.513  14.503 -0.2956 -0.2258 -0.4034
 5126TIP3    H136793   1.012   6.591  14.514 -1.1552 -0.5278 -2.1623
 5126TIP3    H236794   1.156   6.544  14.515 -0.6691  0.8960 -0.4357
 5127TIP3   OH236795   2.981   4.005   5.366  0.0181 -0.0674  0.3323
 5127TIP3    H136796   2.904   3.999   5.422  1.4174 -2.4212  2.2139
 5127TIP3    H236797   3.025   3.920   5.376  2.6419  1.0131 -0.9441
 5128TIP3   OH236798   0.411   3.698   1.795 -0.5840 -0.6105 -0.7873
 5128TIP3    H136799   0.317   3.686   1.782 -0.2406 -4.0739 -0.8842
 5128TIP3    H236800   0.420   3.713   1.889 -1.2397 -0.0403 -0.8087
 5129TIP3   OH236801   2.326   1.767   1.063  0.0481  0.1586  0.5622
 5129TIP3    H136802   2.320   1.694   1.002  0.9027 -1.0540  1.8608
 5129TIP3    H236803   2.306   1.729   1.149 -1.0498  1.7935  1.0763
 5130TIP3   OH236804   2.911   1.154  14.828 -0.0695 -0.2476 -0.3441
 5130TIP3    H136805   2.877   1.131  14.742  1.8777  0.0928 -1.2488
 5130TIP3    H236806   2.946   1.242  14.818 -1.0499  0.3575  1.1901
 5131TIP3   OH236807   2.813   6.126  13.065 -0.2862 -0.2269  0.0842
 5131TIP3    H136808   2.782   6.035  13.067 -0.0165 -0.4026 -1.8100
 5131TIP3    H236809   2.752   6.171  13.006 -0.0524  0.6801  0.5182
 5132TIP3   OH236810   4.610   4.818   3.079  0.5317  0.2736 -0.4589
 5132TIP3    H136811   4.518   4.840   3.066  0.3475  0.9164  1.5340
 5132TIP3    H236812   4.654   4.902   3.092  1.9196  0.2015 -3.7164
 5133TIP3   OH236813   1.575   2.300   2.456  0.1111 -0.1077 -0.1047
 5133TIP3    H136814   1.596   2.206   2.453  0.7785  0.0181  0.3696
 5133TIP3    H236815   1.659   2.342   2.476 -0.6415  0.3872  2.3443
 5134TIP3   OH236816   6.219   5.095   1.589 -0.3389 -0.3607  0.5672
 5134TIP3    H136817   6.216   5.189   1.570 -0.8492 -0.4569  0.1811
 5134TIP3    H236818   6.130   5.073   1.616 -0.3180 -0.8153  0.2726
 5135TIP3   OH236819   5.359   3.578   3.638 -0.1954  0.1109 -0.1443
 5135TIP3    H136820   5.417   3.539   3.702 -0.6789  0.5819  0.5996
 5135TIP3    H236821   5.384   3.671   3.636  0.3595 -0.0429 -1.2420
 5136TIP3   OH236822   3.879   4.645   1.704 -0.0841  0.4958  0.4023
 5136TIP3    H136823   3.830   4.703   1.646  0.1106 -0.0235 -0.2951
 5136TIP3    H236824   3.944   4.701   1.746 -0.2601  0.8859  0.1525
 5137TIP3   OH236825   2.113   0.607  11.363  0.3049 -0.2351  0.0614
 5137TIP3    H136826   2.111   0.534  11.302  0.5404  0.2009 -0.4774
 5137TIP3    H236827   2.025   0.644  11.360  0.5245  0.2407 -0.5766
 5138TIP3   OH236828   0.806   6.352   1.906 -0.1058  0.2663  0.2374
 5138TIP3    H136829   0.860   6.415   1.860 -0.8163  0.4611 -0.3395
 5138TIP3    H236830   0.865   6.313   1.971  0.8172  0.2145 -0.6075
 5139TIP3   OH236831   2.430   5.662   0.874 -0.2966 -0.4467  0.0585
 5139TIP3    H136832   2.464   5.719   0.804 -0.3592 -1.1463 -0.5473
 5139TIP3    H236833   2.370   5.719   0.923  0.6807  0.4095  0.3078
 5140TIP3   OH236834   5.444   1.276  15.842  0.3749 -0.2555 -0.2790
 5140TIP3    H136835   5.420   1.224  15.918  0.1187 -1.7158 -1.2987
 5140TIP3    H236836   5.435   1.367  15.870 -1.9460 -0.7289  0.7673
 5141TIP3   OH236837   2.661   3.471   2.259 -0.1467  0.6000  0.0289
 5141TIP3    H136838   2.730   3.453   2.195 -2.7331 -2.2939 -2.2719
 5141TIP3    H236839   2.622   3.553   2.230  1.1673  1.3781  0.3568
 5142TIP3   OH236840   5.135   5.784   3.132  0.0795  0.1324  0.7027
 5142TIP3    H136841   5.124   5.878   3.144 -0.6033  0.1500  0.0876
 5142TIP3    H236842   5.223   5.765   3.162  0.6701  1.1801 -0.2775
 5143TIP3   OH236843   6.394   3.471   6.407 -1.2542  0.2585  0.1089
 5143TIP3    H136844   6.338   3.547   6.422 -0.9992  0.6424 -0.8242
 5143TIP3    H236845   6.437   3.489   6.324  0.4644  0.1000  0.9298
 5144TIP3   OH236846   3.864   4.315  14.575  0.7767  0.0586 -0.2873
 5144TIP3    H136847   3.926   4.277  14.513  0.8594 -0.2481 -0.0158
 5144TIP3    H236848   3.867   4.409  14.557  1.8580  0.1343  0.1949
 5145TIP3   OH236849   0.548   4.990  16.028  0.0376  0.1671  0.1622
 5145TIP3    H136850   0.603   4.935  15.972  1.1485 -0.7907  2.1201
 5145TIP3    H236851   0.591   5.076  16.028  1.3457 -0.4621  1.3451
 5146TIP3   OH236852   5.733   0.066   5.659  0.3659 -0.1310  0.0074
 5146TIP3    H136853   5.751   0.014   5.737 -0.0915  0.0761  0.2539
 5146TIP3    H236854   5.805   0.045   5.599 -0.4382 -1.9845 -0.3671
 5147TIP3   OH236855   2.843   0.058  11.597 -0.0516 -0.3633 -0.1128
 5147TIP3    H136856   2.868  -0.010  11.534  1.3262 -0.2581  0.2837
 5147TIP3    H236857   2.883   0.030  11.680 -1.2081 -0.1103  0.5488
 5148TIP3   OH236858   0.584   0.602  15.424  0.1541 -0.2308  0.4086
 5148TIP3    H136859   0.668   0.601  15.471  0.2367 -1.1954  0.2781
 5148TIP3    H236860   0.533   0.670  15.466  0.2968 -0.9358  1.7706
 5149TIP3   OH236861   0.117   1.893  16.207 -0.2086 -0.5151 -0.5413
 5149TIP3    H136862   0.106   1.810  16.161  1.4852 -0.2513 -1.5157
 5149TIP3    H236863   0.034   1.906  16.253 -1.4722 -1.5131 -2.3685
 5150TIP3   OH236864   2.414   0.794   0.687  0.1052 -0.5905 -0.4626
 5150TIP3    H136865   2.486   0.819   0.745 -0.0935 -1.7836  0.3463
 5150TIP3    H236866   2.429   0.701   0.669 -2.2284 -1.3975  1.3027
 5151TIP3   OH236867   5.759   3.470  16.019 -0.1000  0.4199  0.1691
 5151TIP3    H136868   5.827   3.488  15.955 -0.6811  0.7808 -0.3612
 5151TIP3    H236869   5.734   3.556  16.053 -1.1570  0.4224 -0.5606
 5152TIP3   OH236870   3.727   4.433  14.027  0.5479 -0.5091  0.1213
 5152TIP3    H136871   3.660   4.481  13.978  0.7354 -0.8132 -0.4486
 5152TIP3    H236872   3.697   4.342  14.026  0.5870 -0.5241  0.5144
 5153TIP3   OH236873   1.427   0.826   5.071  0.3227  0.1590 -0.2713
 5153TIP3    H136874   1.432   0.824   5.166 -0.7401  1.3353 -0.1638
 5153TIP3    H236875   1.367   0.756   5.048  0.4815 -0.0434 -0.0700
 5154TIP3   OH236876   0.792   1.693   3.856  0.1675  0.4946  0.4109
 5154TIP3    H136877   0.758   1.774   3.819 -2.4664 -1.0556 -0.7840
 5154TIP3    H236878   0.730   1.669   3.924  0.0592 -1.2736 -0.2646
 5155TIP3   OH236879   3.953   2.515  14.093 -0.3568  0.6251 -0.4807
 5155TIP3    H136880   3.954   2.579  14.164  0.9630  0.9584 -0.7664
 5155TIP3    H236881   3.875   2.536  14.042 -0.2378  1.6634 -0.2542
 5156TIP3   OH236882   4.827   6.593  14.386 -0.1596 -0.1575 -0.0708
 5156TIP3    H136883   4.756   6.642  14.345  0.1526  0.6987  0.3861
 5156TIP3    H236884   4.788   6.555  14.464 -0.2840 -0.2596 -0.1814
 5157TIP3   OH236885   1.137   5.673  15.703 -0.0599 -0.0789  0.3647
 5157TIP3    H136886   1.224   5.660  15.665  1.1459  0.2917  2.7866
 5157TIP3    H236887   1.078   5.677  15.628  2.0072 -0.3073 -1.3627
 5158TIP3   OH236888   0.579   2.347  16.190 -0.2094  0.0956 -0.1358
 5158TIP3    H136889   0.629   2.370  16.269 -0.1222 -1.8694  0.4426
 5158TIP3    H236890   0.615   2.403  16.122  0.1347  1.4256  1.0838
 5159TIP3   OH236891   2.226   3.114  15.903 -0.9752  0.1280 -0.0159
 5159TIP3    H136892   2.287   3.168  15.955 -0.6969 -0.9906  0.8551
 5159TIP3    H236893   2.278   3.084  15.829 -1.6634  2.6143 -1.6138
 5160TIP3   OH236894   5.213   3.304   2.242  0.8134  0.5272 -0.3090
 5160TIP3    H136895   5.300   3.324   2.208  1.8252  0.3301  1.9914
 5160TIP3    H236896   5.181   3.387   2.277  1.7593 -0.0956  2.2737
 5161TIP3   OH236897   4.108   2.357   3.117  0.1529 -0.3662 -0.4965
 5161TIP3    H136898   4.184   2.376   3.063 -0.3843 -0.2473 -1.2391
 5161TIP3    H236899   4.141   2.306   3.190  0.6756 -1.8826 -1.7471
 5162TIP3   OH236900   4.994   5.549   6.187 -0.6163  0.2856 -0.0288
 5162TIP3    H136901   5.051   5.572   6.260  0.6248  1.1496 -1.2136
 5162TIP3    H236902   5.037   5.473   6.146 -0.6367  0.5584 -0.5660
 5163TIP3   OH236903   2.724   6.405   4.036  0.5473 -0.0536  0.1080
 5163TIP3    H136904   2.659   6.437   4.099 -2.0511 -2.6678 -1.0148
 5163TIP3    H236905   2.694   6.440   3.952 -0.3553 -2.4336 -0.6306
 5164TIP3   OH236906   0.810   0.671   2.381  0.0584 -0.1998  0.2483
 5164TIP3    H136907   0.832   0.582   2.355 -0.0042 -0.6444  1.6145
 5164TIP3    H236908   0.725   0.687   2.340  1.5608  0.5721 -2.8831
 5165TIP3   OH236909   1.260   4.517  11.919 -0.1503  0.0868  0.2108
 5165TIP3    H136910   1.342   4.560  11.942  0.6452 -1.1433 -0.1801
 5165TIP3    H236911   1.279   4.423  11.928 -0.7739 -0.3404 -2.2005
 5166TIP3   OH236912   5.257   4.105   6.570  0.3930 -0.5039 -0.2081
 5166TIP3    H136913   5.190   4.115   6.501 -1.0438  0.6401  1.2695
 5166TIP3    H236914   5.251   4.013   6.595 -1.7645 -0.1528  0.8858
 5167TIP3   OH236915   5.037   0.047   5.063 -0.1761 -0.2255 -0.0220
 5167TIP3    H136916   5.043   0.141   5.043  1.0216 -0.6011 -1.6027
 5167TIP3    H236917   5.109   0.031   5.124 -0.1555 -0.1980 -0.0392
 5168TIP3   OH236918   3.270   1.371  15.268 -0.4118 -0.0984 -0.7651
 5168TIP3    H136919   3.321   1.435  15.218  0.9436 -0.2928  0.3049
 5168TIP3    H236920   3.269   1.406  15.357  1.5060 -2.1393  0.1566
 5169TIP3   OH236921   5.625   0.919   5.980 -0.0673 -0.4142  1.0942
 5169TIP3    H136922   5.684   0.855   6.020  0.6525 -0.1865  0.4115
 5169TIP3    H236923   5.541   0.873   5.973  0.9005 -2.0246 -1.1655
 5170TIP3   OH236924   1.524   0.170  15.407  0.8637 -0.5909  0.3871
 5170TIP3    H136925   1.604   0.147  15.360  0.0227 -1.7226 -0.5800
 5170TIP3    H236926   1.457   0.173  15.338  0.0469  0.1698  1.1993
 5171TIP3   OH236927   2.836   3.571  11.472  0.1320 -0.2761 -0.6487
 5171TIP3    H136928   2.868   3.558  11.383 -0.7923  0.3940 -1.0968
 5171TIP3    H236929   2.807   3.485  11.500 -0.2457 -0.3567 -1.2684
 5172TIP3   OH236930   4.232   2.386   5.622 -0.1298 -0.0165  0.3435
 5172TIP3    H136931   4.140   2.381   5.650 -0.7489  1.0038 -1.3582
 5172TIP3    H236932   4.231   2.352   5.533  1.0736  0.4343  0.1472
 5173TIP3   OH236933   2.570   5.955  12.493  0.2154  0.6924 -0.0459
 5173TIP3    H136934   2.615   6.039  12.500  1.2334  0.2556 -1.0853
 5173TIP3    H236935   2.561   5.940  12.399 -2.0310  0.6922  0.1044
 5174TIP3   OH236936   1.134   2.907  15.762 -0.4433 -0.0757  0.0104
 5174TIP3    H136937   1.085   2.863  15.832 -1.1275 -0.7590 -0.8822
 5174TIP3    H236938   1.205   2.952  15.808 -1.8667  0.9199  1.3225
 5175TIP3   OH236939   3.952   3.514  13.955 -0.4925  0.3459 -0.2011
 5175TIP3    H136940   3.864   3.486  13.930 -0.5065 -0.5850  0.7951
 5175TIP3    H236941   4.010   3.446  13.919 -0.3647 -0.0820  0.7803
 5176TIP3   OH236942   0.291   1.954   4.348 -0.4179  0.3477 -0.4507
 5176TIP3    H136943   0.362   1.900   4.313 -0.9858 -0.9726  0.3924
 5176TIP3    H236944   0.308   1.958   4.442 -1.7907 -0.4884 -0.1486
 5177TIP3   OH236945   6.245   1.573   2.508 -0.8545  0.1756  0.1417
 5177TIP3    H136946   6.281   1.658   2.482 -0.6544  0.6678  1.9040
 5177TIP3    H236947   6.151   1.580   2.493 -0.6022 -0.0794 -1.7368
 5178TIP3   OH236948   0.659   6.751   5.217  0.4675  0.2274 -0.2359
 5178TIP3    H136949   0.601   6.693   5.169  1.0991 -0.3427 -0.3210
 5178TIP3    H236950   0.669   6.710   5.303  1.7985 -0.3933 -0.6665
 5179TIP3   OH236951   5.963   5.065   0.760  0.1311 -0.5876  0.5800
 5179TIP3    H136952   5.954   4.970   0.770  0.9675 -0.8496 -0.9436
 5179TIP3    H236953   5.918   5.085   0.677  0.5234  0.2566  0.5635
 5180TIP3   OH236954   1.723   1.995  17.016  0.4625 -0.2863  0.4205
 5180TIP3    H136955   1.749   2.004  17.107  1.9778 -2.0492  0.2016
 5180TIP3    H236956   1.800   2.022  16.966 -0.5117  1.1429 -0.3914
 5181TIP3   OH236957   5.017   5.610  16.245 -0.5402  0.2983  0.2723
 5181TIP3    H136958   5.103   5.634  16.278 -0.3055  0.6387 -0.5789
 5181TIP3    H236959   5.029   5.599  16.151 -1.3722  0.1050  0.1789
 5182TIP3   OH236960   5.463   6.586   5.725  0.5216 -0.6975  0.4378
 5182TIP3    H136961   5.421   6.641   5.791 -0.7865 -0.5745 -0.4558
 5182TIP3    H236962   5.390   6.548   5.675  1.4127 -2.4439  0.3831
 5183TIP3   OH236963   3.420   4.574  11.921 -0.1759  0.1569  0.0720
 5183TIP3    H136964   3.410   4.647  11.859 -0.0870  0.0878 -0.0236
 5183TIP3    H236965   3.334   4.566  11.962 -0.0553  0.6142  0.4121
 5184TIP3   OH236966   2.312   1.980   0.138  1.1501 -0.2308  0.4191
 5184TIP3    H136967   2.251   1.920   0.181 -0.1642  0.6590 -0.1767
 5184TIP3    H236968   2.353   2.028   0.211 -1.6231  1.8207  0.7778
 5185TIP3   OH236969   5.285   4.787   0.152 -0.5312  0.1878  0.2381
 5185TIP3    H136970   5.291   4.693   0.133 -0.6692  0.2396 -0.0721
 5185TIP3    H236971   5.373   4.821   0.134 -0.4626  0.1042  0.4208
 5186TIP3   OH236972   0.727   3.941   3.876 -0.0810  0.1390 -0.3078
 5186TIP3    H136973   0.803   3.969   3.928 -0.4151  2.5085 -1.0079
 5186TIP3    H236974   0.766   3.893   3.802  0.7741  1.4532 -0.7412
 5187TIP3   OH236975   4.170   5.357  15.784  0.2552  0.4438 -0.2955
 5187TIP3    H136976   4.100   5.317  15.836 -0.0086 -0.2348 -1.1292
 5187TIP3    H236977   4.239   5.378  15.847  0.3720 -1.2876  0.2059
 5188TIP3   OH236978   5.683   3.198   5.338 -0.0580  0.4959 -0.2929
 5188TIP3    H136979   5.610   3.138   5.355 -0.5473  0.6552 -1.6856
 5188TIP3    H236980   5.693   3.196   5.243  1.4007  0.9159 -0.1664
 5189TIP3   OH236981   3.312   6.451   3.884  0.1338  0.1792  0.0308
 5189TIP3    H136982   3.220   6.424   3.871  0.5058 -0.2848 -2.0106
 5189TIP3    H236983   3.352   6.376   3.927  0.1692 -0.8421 -1.6932
 5190TIP3   OH236984   2.203   2.553   5.916  0.0963  0.0794  0.1033
 5190TIP3    H136985   2.276   2.578   5.860 -0.1452 -0.1277 -0.3025
 5190TIP3    H236986   2.244   2.511   5.992  0.5072  1.5603  0.7378
 5191TIP3   OH236987   0.293   6.608   3.213  0.4497 -0.4621  0.2953
 5191TIP3    H136988   0.331   6.656   3.140  0.4719  0.8056  1.1215
 5191TIP3    H236989   0.212   6.570   3.177 -0.0538  0.9675 -0.1384
 5192TIP3   OH236990   5.656   4.011  13.344 -0.0705 -0.2028 -0.1672
 5192TIP3    H136991   5.627   3.946  13.409  1.0464 -0.9801 -0.4099
 5192TIP3    H236992   5.652   4.094  13.390  0.2071 -0.6803  0.7547
 5193TIP3   OH236993   1.436   4.714   1.866  0.0367 -0.1037 -0.4444
 5193TIP3    H136994   1.366   4.749   1.922  0.7960 -1.5193  1.5320
 5193TIP3    H236995   1.462   4.633   1.910  4.3003  1.3422  0.0902
 5194TIP3   OH236996   6.734   0.721  11.568 -0.0892 -0.3177  0.1820
 5194TIP3    H136997   6.674   0.794  11.583 -0.1519 -0.5549  1.1337
 5194TIP3    H236998   6.688   0.665  11.506 -1.2681 -0.9535  1.5773
 5195TIP3   OH236999   0.774   4.985   1.687  1.1810 -0.0449 -0.2991
 5195TIP3    H137000   0.848   5.039   1.657 -0.0385  0.4387 -2.6483
 5195TIP3    H237001   0.805   4.895   1.675  1.0125  0.1327 -2.5210
 5196TIP3   OH237002   1.455   4.259  13.553  0.1949 -0.4938 -0.0254
 5196TIP3    H137003   1.447   4.330  13.489 -0.1829  1.4612  2.0326
 5196TIP3    H237004   1.378   4.205  13.539 -0.2714  0.3173 -0.7194
 5197TIP3   OH237005   1.965   1.553  14.245  0.6659  0.0715 -0.5768
 5197TIP3    H137006   1.880   1.531  14.208  1.4558 -0.0889 -2.4298
 5197TIP3    H237007   1.961   1.523  14.336 -1.3896  0.4943 -0.4946
 5198TIP3   OH237008   4.222   3.026  13.971  0.8968  0.1581  0.2611
 5198TIP3    H137009   4.142   3.057  13.927  0.8552 -0.3936 -0.0651
 5198TIP3    H237010   4.225   3.075  14.053 -0.7367 -1.0702  1.1119
 5199TIP3   OH237011   4.614   4.363  11.835  0.4344  0.3413  0.1107
 5199TIP3    H137012   4.692   4.405  11.800 -0.0107  0.6119 -0.5696
 5199TIP3    H237013   4.615   4.274  11.798  0.9362  0.0061  0.8925
 5200TIP3   OH237014   3.799   6.578   5.263 -0.2877  0.0557  0.1733
 5200TIP3    H137015   3.753   6.662   5.266  0.2330  0.3397  0.2836
 5200TIP3    H237016   3.852   6.576   5.343 -0.3353 -0.4007  0.1972
 5201TIP3   OH237017   5.795   0.223  10.306 -0.1248 -0.2851 -0.4642
 5201TIP3    H137018   5.807   0.313  10.335 -0.9339 -0.6884  1.2785
 5201TIP3    H237019   5.718   0.226  10.249 -1.1212 -0.0904  0.8538
 5202TIP3   OH237020   3.070   1.861   2.817 -0.2200  0.0245  0.3378
 5202TIP3    H137021   2.982   1.862   2.856  0.0790  0.3403  1.0115
 5202TIP3    H237022   3.127   1.829   2.887  0.0441 -1.3631 -0.4559
 5203TIP3   OH237023   3.765   0.816  15.574 -0.0577  0.2671  0.6624
 5203TIP3    H137024   3.840   0.848  15.624  1.4932  0.5571 -1.6755
 5203TIP3    H237025   3.733   0.741  15.624  2.1097 -0.1722  1.5101
 5204TIP3   OH237026   0.835   1.607  12.708 -0.1943 -0.7094 -0.5384
 5204TIP3    H137027   0.911   1.643  12.664 -0.9058 -1.5478 -2.5522
 5204TIP3    H237028   0.819   1.667  12.781  1.2188  0.5662 -1.2279
 5205TIP3   OH237029   6.358   6.642   0.775 -0.5119 -0.6392  0.4313
 5205TIP3    H137030   6.378   6.573   0.838  0.3538 -0.9036 -0.1072
 5205TIP3    H237031   6.379   6.724   0.819  2.4952 -0.9227 -0.3033
 5206TIP3   OH237032   1.855   5.717   5.303 -0.4998  0.2487 -0.8090
 5206TIP3    H137033   1.946   5.742   5.287 -0.0557  0.0518  1.1155
 5206TIP3    H237034   1.837   5.750   5.391 -1.7661 -1.1275 -0.5143
 5207TIP3   OH237035   1.656   2.844   1.876 -0.6215  0.1581  1.2433
 5207TIP3    H137036   1.579   2.863   1.823  1.0266  1.3895 -0.9053
 5207TIP3    H237037   1.672   2.750   1.863 -0.3162  0.4083 -0.4678
 5208TIP3   OH237038   3.658   0.559  11.971 -0.2954  0.7277 -0.4081
 5208TIP3    H137039   3.596   0.496  11.934 -0.9095  1.0020  0.1208
 5208TIP3    H237040   3.734   0.556  11.913 -0.7712  0.3193 -1.0221
 5209TIP3   OH237041   0.173   5.362   2.419  0.2260 -0.1105 -0.2876
 5209TIP3    H137042   0.138   5.282   2.459 -2.2780  0.8227 -0.3978
 5209TIP3    H237043   0.207   5.333   2.334  1.2791 -1.3458  0.5161
 5210TIP3   OH237044   0.135   3.697  15.318 -0.3201 -0.1349 -0.3002
 5210TIP3    H137045   0.085   3.629  15.272  0.9218 -0.6339 -0.9656
 5210TIP3    H237046   0.204   3.649  15.364  0.4774  0.6447 -0.6581
 5211TIP3   OH237047   5.060   1.116   5.276  0.6743  0.3150 -0.3101
 5211TIP3    H137048   5.107   1.038   5.305  2.0764  0.6367 -1.5971
 5211TIP3    H237049   4.977   1.114   5.324  1.8994 -0.3855  1.9002
 5212TIP3   OH237050   0.759   0.636  13.151 -0.1062 -0.6932 -0.3358
 5212TIP3    H137051   0.804   0.691  13.216 -1.5209 -1.8601  1.7536
 5212TIP3    H237052   0.820   0.564  13.136  1.2268  0.7182 -2.1574
 5213TIP3   OH237053   4.799   4.116   3.992  0.4542  0.4544 -0.3601
 5213TIP3    H137054   4.856   4.067   4.050  0.0211  0.1100 -0.2230
 5213TIP3    H237055   4.768   4.189   4.045 -0.2301 -0.0640 -0.0425
 5214TIP3   OH237056   5.599   1.283  12.695 -0.0915  0.4697  0.3042
 5214TIP3    H137057   5.578   1.291  12.788 -1.6794  0.2089 -0.0109
 5214TIP3    H237058   5.557   1.202  12.667 -0.1635  0.8704 -0.7857
 5215TIP3   OH237059   1.216   6.217  15.575 -0.8628 -0.6064 -0.1848
 5215TIP3    H137060   1.296   6.227  15.627 -0.7503  1.3073 -0.6261
 5215TIP3    H237061   1.196   6.124  15.579  0.8466 -0.9838  0.7410
 5216TIP3   OH237062   0.520   2.145  15.982  0.2100  0.1029 -0.8317
 5216TIP3    H137063   0.455   2.081  16.012  1.8328 -1.4222 -0.4017
 5216TIP3    H237064   0.539   2.197  16.059 -1.7700  1.7970 -1.3914
 5217TIP3   OH237065   4.080   5.153  16.948  0.3107  0.1998  0.5189
 5217TIP3    H137066   4.163   5.134  16.905 -0.6761 -0.3833 -1.2167
 5217TIP3    H237067   4.042   5.224  16.897 -0.6266 -0.1129  0.7708
 5218TIP3   OH237068   3.460   5.610  14.823  0.2206 -0.2239 -0.0472
 5218TIP3    H137069   3.532   5.589  14.764  0.6506 -0.3849  0.5152
 5218TIP3    H237070   3.421   5.690  14.787  2.1919  1.2805  0.9195
 5219TIP3   OH237071   0.806   2.958  11.585 -0.5777  0.4425 -0.0280
 5219TIP3    H137072   0.741   2.958  11.515 -1.7743  1.1835  1.0368
 5219TIP3    H237073   0.820   3.050  11.606  1.6221  0.3750 -0.8993
 5220TIP3   OH237074   0.969   5.734  12.494  0.6446 -0.1364 -0.1608
 5220TIP3    H137075   0.944   5.796  12.424  0.4004  0.7505  0.6860
 5220TIP3    H237076   0.989   5.653  12.448 -1.2249 -0.1059 -1.1347
 5221TIP3   OH237077   0.759   5.084   3.741  0.9099 -0.2417  0.6090
 5221TIP3    H137078   0.720   5.054   3.823  1.7825 -2.1070  0.4070
 5221TIP3    H237079   0.843   5.123   3.766  0.5427  0.4835  0.7209
 5222TIP3   OH237080   0.907   5.542  17.243 -0.2516  0.5012 -0.6131
 5222TIP3    H137081   0.933   5.501  17.161 -0.3649 -0.4474 -0.1818
 5222TIP3    H237082   0.851   5.478  17.286 -0.8541  1.3176 -0.1593
 5223TIP3   OH237083   0.948   0.089  13.912 -0.4135  0.0407  0.3361
 5223TIP3    H137084   0.971   0.169  13.866 -0.3099 -1.1993 -1.8755
 5223TIP3    H237085   1.002   0.091  13.991  1.9220  0.6999 -1.1659
 5224TIP3   OH237086   2.905   0.977   4.936  0.0726 -0.4561  0.7141
 5224TIP3    H137087   2.895   1.026   4.854 -0.6960 -1.8240 -0.0508
 5224TIP3    H237088   2.819   0.940   4.952  0.7442 -1.9872  0.9608
 5225TIP3   OH237089   2.941   2.471   4.983 -0.0144 -0.5891  0.0596
 5225TIP3    H137090   3.022   2.443   5.025  0.4614  1.1817  0.4062
 5225TIP3    H237091   2.875   2.411   5.016  0.7589 -0.6536  1.5961
 5226TIP3   OH237092   3.626   0.549  14.160 -0.7450 -0.0114  0.3260
 5226TIP3    H137093   3.556   0.610  14.183 -0.8147 -0.3990  1.1569
 5226TIP3    H237094   3.590   0.498  14.087 -1.6871 -0.8276  1.3363
 5227TIP3   OH237095   4.299   2.200  12.677  0.1166 -0.1097  0.2426
 5227TIP3    H137096   4.317   2.160  12.762  1.2176 -0.1623 -0.0062
 5227TIP3    H237097   4.333   2.138  12.614  0.6261  0.5990 -0.1937
 5228TIP3   OH237098   6.271   3.857  13.997 -0.0459 -0.0317  0.4342
 5228TIP3    H137099   6.252   3.799  13.924  0.2140  1.3795 -0.7909
 5228TIP3    H237100   6.198   3.919  13.997  0.5809  0.7122  0.6041
 5229TIP3   OH237101   4.995   6.712   5.812  0.1398  0.3683 -0.2766
 5229TIP3    H137102   5.022   6.723   5.903  0.7037 -1.7753 -0.1382
 5229TIP3    H237103   5.018   6.796   5.771  2.0673  0.5645  1.0279
 5230TIP3   OH237104   0.329   4.472  17.051 -0.1940 -0.3430  1.0030
 5230TIP3    H137105   0.307   4.535  16.982  0.8021  0.0811  1.0517
 5230TIP3    H237106   0.425   4.476  17.057 -0.0497 -2.2320  0.6553
 5231TIP3   OH237107   1.216   4.989   1.439 -0.2797  0.1085  0.0628
 5231TIP3    H137108   1.140   5.013   1.492  0.0725 -0.5540  0.8851
 5231TIP3    H237109   1.289   5.033   1.482  0.1254 -1.0788  0.6251
 5232TIP3   OH237110   3.599   3.666  13.638 -0.5113  0.3583  0.3721
 5232TIP3    H137111   3.653   3.593  13.666  1.6738  1.6250 -0.3542
 5232TIP3    H237112   3.559   3.637  13.556 -0.4556 -0.3613  0.5940
 5233TIP3   OH237113   4.348   1.685   5.789 -0.3136 -0.5248 -0.2874
 5233TIP3    H137114   4.429   1.702   5.837 -0.6351 -0.4454  0.2301
 5233TIP3    H237115   4.371   1.615   5.728  0.0920 -0.6381 -0.0087
 5234TIP3   OH237116   5.976   6.571  11.360 -1.1852 -0.3982  0.1521
 5234TIP3    H137117   5.955   6.505  11.427 -1.9932 -0.7788 -0.4583
 5234TIP3    H237118   5.919   6.549  11.286 -0.0105 -0.2486 -0.8288
 5235TIP3   OH237119   1.426   4.246  12.383 -0.1619 -0.0691 -0.1862
 5235TIP3    H137120   1.371   4.187  12.435  1.2307 -0.2183  1.1527
 5235TIP3    H237121   1.401   4.334  12.412  0.0782 -0.1219  0.1769
 5236TIP3   OH237122   3.686   5.494  14.711 -0.4779  0.2859 -0.1736
 5236TIP3    H137123   3.742   5.571  14.725  0.6959 -0.3151 -1.3161
 5236TIP3    H237124   3.697   5.442  14.790 -1.1861  1.2125  0.5635
 5237TIP3   OH237125   5.460   6.411   4.759  0.3185 -0.1191  0.6424
 5237TIP3    H137126   5.410   6.426   4.839 -1.3257 -1.0432 -0.1717
 5237TIP3    H237127   5.524   6.345   4.783 -0.5897 -0.8693  1.0492
 5238TIP3   OH237128   4.310   5.080   2.817 -0.0191  0.7331 -0.4282
 5238TIP3    H137129   4.221   5.062   2.786  0.1183  1.4066 -1.2417
 5238TIP3    H237130   4.346   5.141   2.753  0.9760  0.6006 -0.0116
 5239TIP3   OH237131   6.769   2.100  13.666 -0.0267 -0.1018  0.2013
 5239TIP3    H137132   6.794   2.119  13.756  0.0091  0.7164  0.0216
 5239TIP3    H237133   6.754   2.185  13.626  2.7395 -0.2441 -1.3828
 5240TIP3   OH237134   4.056   2.071  14.443  0.1356 -0.1068  0.0554
 5240TIP3    H137135   4.125   2.134  14.422  0.8749 -1.0742 -0.4820
 5240TIP3    H237136   4.064   2.003  14.376 -1.2073 -0.3481  0.1109
 5241TIP3   OH237137   2.084   0.684  10.535 -0.1397 -0.3272 -0.5077
 5241TIP3    H137138   2.022   0.756  10.523 -1.1768 -1.3175 -1.1776
 5241TIP3    H237139   2.035   0.605  10.515  0.9558 -1.2576  0.3151
 5242TIP3   OH237140   1.823   4.183   2.817 -0.1978 -0.4885  0.1725
 5242TIP3    H137141   1.775   4.265   2.808 -1.7202 -1.4972 -1.6808
 5242TIP3    H237142   1.871   4.174   2.735 -1.6547 -2.3456 -0.5661
 5243TIP3   OH237143   4.028   3.950  16.191  0.2239  0.0053 -0.2473
 5243TIP3    H137144   4.102   3.991  16.236  0.8444 -0.7636 -0.5488
 5243TIP3    H237145   3.964   3.935  16.261 -0.0294  1.4446 -0.1190
 5244TIP3   OH237146   1.769   2.291  11.376  0.0856  0.6817  0.2030
 5244TIP3    H137147   1.809   2.216  11.421 -1.1963  0.2913  0.7428
 5244TIP3    H237148   1.746   2.259  11.289  0.9571  0.9244 -0.1308
 5245TIP3   OH237149   3.721   0.199  12.032 -0.6632 -0.1095  0.2283
 5245TIP3    H137150   3.676   0.132  11.981 -0.8820  0.3615 -0.2134
 5245TIP3    H237151   3.813   0.174  12.028 -0.5751  0.3288 -1.0648
 5246TIP3   OH237152   5.119   4.543  11.293  0.0321  0.5252  0.0531
 5246TIP3    H137153   5.042   4.488  11.308  1.5702 -1.8326 -0.2785
 5246TIP3    H237154   5.095   4.597  11.218 -1.7447  0.7791  0.7538
 5247TIP3   OH237155   4.547   1.881   0.282  0.1600  0.1148 -0.0633
 5247TIP3    H137156   4.590   1.815   0.228  0.3261 -0.4822  0.7845
 5247TIP3    H237157   4.553   1.848   0.371  1.5191  1.9361  0.5962
 5248TIP3   OH237158   1.137   5.675   4.409 -0.2174 -0.1943 -0.0897
 5248TIP3    H137159   1.185   5.707   4.333  0.2129 -0.4362  0.0757
 5248TIP3    H237160   1.186   5.708   4.484 -0.2669 -0.5055  0.0817
 5249TIP3   OH237161   5.187   2.199   1.886  0.1238 -0.1405 -0.7692
 5249TIP3    H137162   5.133   2.122   1.904  0.4392 -0.3139 -0.5532
 5249TIP3    H237163   5.125   2.271   1.877 -0.4258 -0.8117 -3.3790
 5250TIP3   OH237164   5.943   6.027  14.881  0.1704  0.6233 -0.5115
 5250TIP3    H137165   5.870   6.013  14.941 -1.3089  2.7741 -1.6795
 5250TIP3    H237166   6.004   6.083  14.929 -0.0604  0.7256 -0.3398
 5251TIP3   OH237167   5.772   1.110  16.292 -0.1454  0.1819 -0.4951
 5251TIP3    H137168   5.729   1.193  16.271  0.2203  0.1167 -1.5336
 5251TIP3    H237169   5.827   1.091  16.216 -0.9145 -1.4653 -0.6974
 5252TIP3   OH237170   0.802   2.769   4.931 -0.0677 -0.4287  0.0038
 5252TIP3    H137171   0.750   2.837   4.975  0.3889  0.0088 -0.1208
 5252TIP3    H237172   0.872   2.818   4.887 -0.2168 -0.9098 -0.7784
 5253TIP3   OH237173   6.713   4.402   0.992  0.7547 -0.2865  0.4482
 5253TIP3    H137174   6.799   4.362   0.985  1.1643  0.6488 -0.1086
 5253TIP3    H237175   6.712   4.440   1.080  1.7429  1.4654 -0.2373
 5254TIP3   OH237176   2.556   0.425   5.103 -0.2347 -0.2861 -0.2386
 5254TIP3    H137177   2.600   0.434   5.019  1.6055  0.9499  0.7579
 5254TIP3    H237178   2.624   0.447   5.167 -2.2733  1.5034  1.4491
 5255TIP3   OH237179   1.870   6.039   4.646  0.1919  0.7644  0.3933
 5255TIP3    H137180   1.862   6.011   4.555  0.8449 -0.1119  0.5868
 5255TIP3    H237181   1.947   5.992   4.679 -0.2683  0.7492  1.5030
 5256TIP3   OH237182   1.276   0.351   3.059 -0.2194 -0.3586 -0.5320
 5256TIP3    H137183   1.306   0.319   3.144 -1.5918  3.2289  1.5622
 5256TIP3    H237184   1.352   0.396   3.022  0.1311 -1.1789 -0.8369
 5257TIP3   OH237185   3.235   4.593   4.900  0.0665  0.0391  0.5842
 5257TIP3    H137186   3.255   4.641   4.981  0.4263 -0.9448  1.0972
 5257TIP3    H237187   3.201   4.509   4.930  0.0140 -0.2633 -0.2995
 5258TIP3   OH237188   1.545   3.805   0.365  0.1228 -0.1870  0.4870
 5258TIP3    H137189   1.573   3.714   0.379 -0.1977 -0.1154  1.6844
 5258TIP3    H237190   1.497   3.802   0.282  0.2713 -1.0761  0.4188
 5259TIP3   OH237191   2.390   0.043   6.518  0.0775  0.0838  0.4399
 5259TIP3    H137192   2.483   0.029   6.499  0.3220 -2.6992  3.0530
 5259TIP3    H237193   2.390   0.078   6.607 -1.3859  0.4474  0.3083
 5260TIP3   OH237194   3.071   6.692  12.095 -0.1721 -0.0641 -0.2201
 5260TIP3    H137195   3.023   6.616  12.062 -1.7523  0.1599  1.3618
 5260TIP3    H237196   3.140   6.655  12.150  0.5043 -0.3622 -1.2385
 5261TIP3   OH237197   6.072   1.553  13.473  0.2230  0.4308  0.1672
 5261TIP3    H137198   6.027   1.490  13.418 -3.4672  1.1749  1.9883
 5261TIP3    H237199   6.092   1.506  13.553 -1.9977  1.2527  1.2951
 5262TIP3   OH237200   4.608   5.925   1.889  0.7121  0.3085  0.2653
 5262TIP3    H137201   4.547   5.989   1.853  0.3213  0.7210  1.5995
 5262TIP3    H237202   4.682   5.978   1.920  0.2991  0.1609  1.5524
 5263TIP3   OH237203   2.443   1.111   0.529 -0.1232  0.4195  0.1114
 5263TIP3    H137204   2.471   1.074   0.613 -1.0388 -0.1336  0.1822
 5263TIP3    H237205   2.365   1.162   0.551 -1.1282 -0.7705 -0.5912
 5264TIP3   OH237206   4.462   4.274   0.161 -0.1081  0.4147  0.0694
 5264TIP3    H137207   4.412   4.287   0.241  1.0193 -0.3014  0.9253
 5264TIP3    H237208   4.530   4.210   0.185 -0.1884 -0.3736 -1.6440
 5265TIP3   OH237209   2.007   0.388  12.705 -0.0799  0.4592  0.5651
 5265TIP3    H137210   1.966   0.304  12.684 -2.2551  1.8699 -1.3041
 5265TIP3    H237211   2.000   0.395  12.800 -3.7814  0.3255  0.4396
 5266TIP3   OH237212   5.790   3.000  15.076  0.3163  0.2678  0.1306
 5266TIP3    H137213   5.732   3.065  15.114 -0.3389  0.0981 -0.5458
 5266TIP3    H237214   5.854   3.051  15.026 -1.4193  0.3986 -2.1336
 5267TIP3   OH237215   2.353   1.971   3.049  0.3804 -0.2902 -0.1093
 5267TIP3    H137216   2.378   1.948   3.138 -3.5062 -1.9407  0.7490
 5267TIP3    H237217   2.323   1.889   3.010 -0.0779  0.7823 -2.1475
 5268TIP3   OH237218   6.049   5.370   1.726 -0.7739  0.5623 -0.2131
 5268TIP3    H137219   6.065   5.326   1.810  0.1147  1.9362  0.3744
 5268TIP3    H237220   6.135   5.377   1.685 -1.2273 -0.2674 -1.3637
 5269TIP3   OH237221   4.247   6.640   5.564  0.2310 -0.6780  0.0043
 5269TIP3    H137222   4.220   6.693   5.639  1.4441 -0.1659  0.1093
 5269TIP3    H237223   4.246   6.701   5.491 -0.5344 -1.0743 -0.3261
 5270TIP3   OH237224   6.272   3.049   4.468  0.0888  0.0445  0.0420
 5270TIP3    H137225   6.230   3.042   4.554  0.1609 -1.9530 -0.0300
 5270TIP3    H237226   6.200   3.042   4.406  0.1321  0.6260 -0.0836
 5271TIP3   OH237227   1.580   5.756  15.005  0.0478 -0.2565  0.3196
 5271TIP3    H137228   1.493   5.794  14.992 -1.4037 -2.7534  1.7862
 5271TIP3    H237229   1.605   5.783  15.093  0.7923  0.4850 -0.1123
 5272TIP3   OH237230   6.487   5.478   1.465  0.2788 -0.4677 -0.2418
 5272TIP3    H137231   6.499   5.530   1.545 -0.1007  0.8969 -1.0384
 5272TIP3    H237232   6.565   5.423   1.460  0.3622 -0.4976  1.0057
 5273TIP3   OH237233   3.973   4.009  11.720  0.0881  0.1180 -0.4698
 5273TIP3    H137234   3.941   4.071  11.655 -0.2937  1.5992  1.0660
 5273TIP3    H237235   4.033   4.060  11.774 -1.6225 -0.3192  1.9648
 5274TIP3   OH237236   5.969   6.512   5.729  0.4823 -0.2825 -0.3272
 5274TIP3    H137237   5.899   6.447   5.727  0.0060 -0.0125  2.6108
 5274TIP3    H237238   5.925   6.594   5.752  1.5794  0.1857  0.1981
 5275TIP3   OH237239   0.467   0.387  15.331  0.4676 -0.1216  0.4156
 5275TIP3    H137240   0.505   0.467  15.366  2.5243 -1.4551  1.4263
 5275TIP3    H237241   0.521   0.365  15.255  0.5178 -1.0108  0.6921
 5276TIP3   OH237242   4.902   1.148   3.278  0.1603 -0.1561 -0.7254
 5276TIP3    H137243   4.971   1.159   3.343 -0.3108 -1.5691  0.0625
 5276TIP3    H237244   4.842   1.220   3.294 -0.0551 -0.5953  0.5814
 5277TIP3   OH237245   2.134   1.542  13.427 -0.6643  0.2719 -0.4515
 5277TIP3    H137246   2.154   1.544  13.334 -1.2234 -1.3679 -0.6390
 5277TIP3    H237247   2.154   1.453  13.455  1.6359  1.2966  1.5305
 5278TIP3   OH237248   3.273   5.458  15.574  0.0664  0.0221  0.1725
 5278TIP3    H137249   3.204   5.523  15.588 -0.4128 -0.3814 -0.2912
 5278TIP3    H237250   3.252   5.418  15.490  0.3824 -0.7094  0.4353
 5279TIP3   OH237251   2.979   6.694   2.362 -0.0894  0.2852  0.3146
 5279TIP3    H137252   2.998   6.623   2.300 -2.4620 -0.6608  0.5450
 5279TIP3    H237253   2.993   6.774   2.312  1.2392 -0.3738 -0.4086
 5280TIP3   OH237254   5.777   4.775  14.979  0.2212 -0.5078 -0.6165
 5280TIP3    H137255   5.847   4.814  15.032  0.3810  1.3198 -2.0339
 5280TIP3    H237256   5.735   4.712  15.037  3.8581 -2.7247 -0.0997
 5281TIP3   OH237257   2.718   0.383   5.656 -0.1593 -0.3402  0.6200
 5281TIP3    H137258   2.785   0.354   5.594 -0.7508 -0.3596 -0.0313
 5281TIP3    H237259   2.713   0.478   5.642 -1.2979 -0.5254 -0.4199
 5282TIP3   OH237260   3.841   0.645   2.550 -0.0801 -0.6184  0.3377
 5282TIP3    H137261   3.781   0.573   2.570 -2.4671  1.5723  1.6389
 5282TIP3    H237262   3.830   0.706   2.623  2.0201  0.9815 -0.5900
 5283TIP3   OH237263   3.522   6.243  12.598 -0.5470 -0.2004  0.0600
 5283TIP3    H137264   3.516   6.148  12.591 -0.9841 -0.1536 -0.2183
 5283TIP3    H237265   3.453   6.267  12.659 -0.3038 -0.0807  0.2893
 5284TIP3   OH237266   3.122   5.351   2.995 -0.3128  0.4149 -0.2611
 5284TIP3    H137267   3.204   5.394   3.019 -0.5846  2.1634 -2.1450
 5284TIP3    H237268   3.139   5.316   2.907 -1.2102 -0.2410 -0.1763
 5285TIP3   OH237269   6.070   2.840   1.078  0.2943  0.7454  0.0942
 5285TIP3    H137270   6.006   2.889   1.026  1.4107  2.0344 -0.1077
 5285TIP3    H237271   6.062   2.750   1.048 -2.3598  0.5899  1.0054
 5286TIP3   OH237272   2.324   1.529   5.496 -0.6121 -0.2528 -0.2613
 5286TIP3    H137273   2.281   1.539   5.411  1.1604 -1.0583 -1.3132
 5286TIP3    H237274   2.400   1.588   5.491 -0.4429 -0.3674  0.7481
 5287TIP3   OH237275   0.925   0.426  11.970 -0.9371  0.3259  0.0593
 5287TIP3    H137276   0.980   0.497  12.004 -0.6729  0.4625 -0.6286
 5287TIP3    H237277   0.980   0.384  11.904 -0.1574 -2.0448  2.0929
 5288TIP3   OH237278   0.912   1.198   0.495  0.3941  0.8892 -0.2763
 5288TIP3    H137279   0.818   1.200   0.475  0.0488 -0.7031  0.9322
 5288TIP3    H237280   0.942   1.287   0.476 -1.4178  1.5236 -0.4338
 5289TIP3   OH237281   0.645   3.609  14.666  0.3126 -0.1875 -0.0561
 5289TIP3    H137282   0.645   3.701  14.692  3.5713 -0.3190  0.7704
 5289TIP3    H237283   0.634   3.610  14.571 -0.8621  0.9468  0.0712
 5290TIP3   OH237284   3.437   0.213   1.131 -0.0397 -0.2727 -0.4436
 5290TIP3    H137285   3.495   0.273   1.083 -3.2150  1.0034 -3.0195
 5290TIP3    H237286   3.490   0.133   1.141  3.4990  1.9999  0.9787
 5291TIP3   OH237287   3.963   0.993  16.939  0.1791  0.1244  0.3992
 5291TIP3    H137288   3.897   0.931  16.970 -0.0635  0.2485  0.1287
 5291TIP3    H237289   3.988   0.961  16.853  0.0192  0.4267  0.2382
 5292TIP3   OH237290   3.757   5.013   6.185  1.2735  0.1987 -0.2466
 5292TIP3    H137291   3.826   5.000   6.250 -0.0075 -1.4778  0.8722
 5292TIP3    H237292   3.733   4.925   6.158 -1.5223  0.5790  0.6601
 5293TIP3   OH237293   0.919   6.533   3.387 -0.0144  0.0486 -0.6861
 5293TIP3    H137294   0.993   6.486   3.426  0.6297  0.5149 -1.3029
 5293TIP3    H237295   0.869   6.566   3.462  1.1186  0.8036 -0.2257
 5294TIP3   OH237296   4.529   2.222   2.901 -0.2305 -0.2566 -0.0284
 5294TIP3    H137297   4.570   2.186   2.822  1.0293 -2.4011  1.5003
 5294TIP3    H237298   4.488   2.146   2.943 -2.2852  1.1080  0.6271
 5295TIP3   OH237299   1.822   2.433  10.768  0.2135 -0.2016  0.5079
 5295TIP3    H137300   1.767   2.379  10.826  1.8609  0.2090  2.5804
 5295TIP3    H237301   1.905   2.386  10.764  0.2747  0.0152 -1.2335
 5296TIP3   OH237302   2.905   4.836   0.077 -0.4279  0.4072  0.1990
 5296TIP3    H137303   2.866   4.871  -0.003 -1.7684 -2.3540 -0.4765
 5296TIP3    H237304   2.830   4.813   0.132  0.4615  1.4563  1.9236
 5297TIP3   OH237305   4.601   4.261   6.401 -0.1848 -0.6596 -0.3086
 5297TIP3    H137306   4.531   4.276   6.465 -0.9635 -0.4724 -1.1909
 5297TIP3    H237307   4.681   4.290   6.446 -0.4555 -2.0939  1.1968
 5298TIP3   OH237308   2.697   2.285   2.630 -0.1116  0.3368  0.1355
 5298TIP3    H137309   2.719   2.338   2.706 -0.1902 -1.0840  1.1821
 5298TIP3    H237310   2.736   2.200   2.647 -0.8398 -0.2672 -1.0224
 5299TIP3   OH237311   3.881   1.076   0.594  0.8881  0.3415  0.2079
 5299TIP3    H137312   3.830   1.068   0.514  0.5286 -0.8890  0.5370
 5299TIP3    H237313   3.920   0.989   0.607  0.3427  0.2818  1.7405
 5300TIP3   OH237314   6.644   3.659   2.638  0.3404 -0.0689  0.3670
 5300TIP3    H137315   6.561   3.692   2.673  0.0221 -0.8514  0.3697
 5300TIP3    H237316   6.624   3.639   2.546  0.3501 -0.8502  0.5308
 5301TIP3   OH237317   2.942   3.803  13.762  0.3659  0.1659  0.1785
 5301TIP3    H137318   2.987   3.731  13.806 -0.1746  1.5178  3.1785
 5301TIP3    H237319   2.854   3.770  13.746  0.6266 -0.4228 -0.0552
 5302TIP3   OH237320   0.571   2.653  11.077  0.6718  0.0930  0.0769
 5302TIP3    H137321   0.552   2.630  10.986 -1.9296 -2.7126  1.1616
 5302TIP3    H237322   0.516   2.729  11.095  2.5173  1.7869 -1.0773
 5303TIP3   OH237323   1.226   2.646   0.681  0.5641 -0.5458 -0.0725
 5303TIP3    H137324   1.271   2.563   0.668  1.3014 -0.2803  0.6668
 5303TIP3    H237325   1.163   2.651   0.608  2.1713 -0.6235 -1.5243
 5304TIP3   OH237326   6.219   6.761  13.417  0.0437 -0.5476 -0.1669
 5304TIP3    H137327   6.308   6.738  13.391 -0.3254 -1.3348 -0.7788
 5304TIP3    H237328   6.166   6.739  13.340 -0.5469  0.8918 -0.1939
 5305TIP3   OH237329   1.992   5.363  15.711  0.4357 -0.0408  0.4348
 5305TIP3    H137330   2.004   5.284  15.763 -0.8937  0.4153  1.4959
 5305TIP3    H237331   2.054   5.354  15.639  1.5836 -1.1960  1.5138
 5306TIP3   OH237332   2.340   0.490   4.497  0.0555  0.3523  0.3029
 5306TIP3    H137333   2.268   0.534   4.542 -0.5416 -0.9598  0.6612
 5306TIP3    H237334   2.314   0.398   4.493  0.3487  0.3094 -2.2321
 5307TIP3   OH237335   0.470   4.927  12.487  0.0046  0.4272 -0.7327
 5307TIP3    H137336   0.420   5.007  12.503  2.4322  1.7751  0.6095
 5307TIP3    H237337   0.527   4.948  12.413  0.9183  0.0985 -0.1414
 5308TIP3   OH237338   0.237   4.721   1.343 -0.2158  0.4007 -0.0988
 5308TIP3    H137339   0.272   4.632   1.343 -0.6354  0.2233  1.1608
 5308TIP3    H237340   0.158   4.716   1.396 -1.7645  0.9731 -2.2173
 5309TIP3   OH237341   5.161   3.067  12.828 -0.0561 -0.1877  0.0785
 5309TIP3    H137342   5.227   3.103  12.769  1.6114  1.6264  2.8476
 5309TIP3    H237343   5.198   2.984  12.858 -0.1317 -0.3007 -0.1376
 5310TIP3   OH237344   5.177   0.927   1.119  0.0405 -0.3174 -0.1568
 5310TIP3    H137345   5.106   0.863   1.123  1.2860 -1.7037  1.7021
 5310TIP3    H237346   5.147   1.000   1.173  0.4059 -1.3937  1.5862
 5311TIP3   OH237347   5.057   2.149  10.808 -0.0141  0.2077  0.2665
 5311TIP3    H137348   5.138   2.185  10.772 -0.4247 -1.1582 -2.2622
 5311TIP3    H237349   5.079   2.059  10.831 -0.1070  0.6808  2.4304
 5312TIP3   OH237350   5.922   4.891  13.753 -0.5012  0.4077 -0.5095
 5312TIP3    H137351   5.910   4.945  13.676  2.7744  0.9294 -0.7848
 5312TIP3    H237352   5.980   4.942  13.810 -1.0923 -0.8712  1.3436
 5313TIP3   OH237353   3.209   3.402   1.891  0.4551 -0.2251 -0.2280
 5313TIP3    H137354   3.265   3.477   1.875  0.6711 -0.5293 -0.9478
 5313TIP3    H237355   3.261   3.327   1.863  1.0549 -0.8823  2.3408
 5314TIP3   OH237356   2.847   5.327  12.464  0.3701 -0.0627  0.3762
 5314TIP3    H137357   2.793   5.253  12.491  0.6015 -0.2846  0.2315
 5314TIP3    H237358   2.799   5.365  12.390  1.2425 -1.2893 -0.8770
 5315TIP3   OH237359   5.228   5.542  13.082 -0.1473  0.0309  0.2994
 5315TIP3    H137360   5.230   5.476  13.013 -2.6173  0.8604 -0.6793
 5315TIP3    H237361   5.293   5.607  13.055 -0.3424 -0.1806 -0.7214
 5316TIP3   OH237362   6.438   3.332   4.897 -0.1362 -0.1026  0.2055
 5316TIP3    H137363   6.379   3.363   4.966  1.2218  0.6418  1.0807
 5316TIP3    H237364   6.511   3.293   4.945  0.2599 -0.6731 -0.8471
 5317TIP3   OH237365   6.588   0.705  14.077  0.3147  0.2027 -0.0440
 5317TIP3    H137366   6.612   0.682  13.987  0.1778 -3.5411  0.7080
 5317TIP3    H237367   6.669   0.693  14.127  0.4057  2.2911  0.4033
 5318TIP3   OH237368   4.101   6.718  11.155 -0.7869  0.0025  0.2649
 5318TIP3    H137369   4.047   6.795  11.171 -1.7043 -0.5943  0.1634
 5318TIP3    H237370   4.091   6.701  11.062  0.2508  0.3607  0.0793
 5319TIP3   OH237371   5.925   2.346   1.438  0.8329  0.0267  0.2096
 5319TIP3    H137372   5.864   2.294   1.386  0.0641 -0.4278  1.5141
 5319TIP3    H237373   5.996   2.285   1.458  0.6675 -0.0831  0.4713
 5320TIP3   OH237374   3.499   6.467   2.926 -1.0743 -0.2065  0.0391
 5320TIP3    H137375   3.501   6.535   2.859 -1.5222  0.9048  1.1160
 5320TIP3    H237376   3.495   6.515   3.009 -2.7510 -1.5474  0.7956
 5321TIP3   OH237377   4.302   3.819  11.488 -0.7326  0.0746 -0.3724
 5321TIP3    H137378   4.207   3.820  11.483 -0.7434  0.2579 -0.1831
 5321TIP3    H237379   4.321   3.774  11.571 -0.6717  0.5021 -0.1484
 5322TIP3   OH237380   5.795   5.249   2.004  0.2315  0.1441  0.6087
 5322TIP3    H137381   5.708   5.211   2.012  0.3953 -0.3526  0.0772
 5322TIP3    H237382   5.805   5.302   2.083  0.1833 -1.3135  1.6422
 5323TIP3   OH237383   6.688   2.791  13.487  0.1500  0.1439 -0.2334
 5323TIP3    H137384   6.698   2.697  13.468 -1.0337 -0.4438  1.6372
 5323TIP3    H237385   6.646   2.827  13.410  3.4804 -0.1255 -2.3603
 5324TIP3   OH237386   3.061   4.754   0.345  0.6358 -0.2432  0.8451
 5324TIP3    H137387   3.035   4.703   0.422 -1.6025  0.7277  0.8180
 5324TIP3    H237388   2.979   4.794   0.315  1.7262  0.5893 -1.1678
 5325TIP3   OH237389   6.329   3.877  12.649 -0.4257  0.2356  0.1592
 5325TIP3    H137390   6.256   3.841  12.698 -0.8941  0.3651 -0.4375
 5325TIP3    H237391   6.403   3.873  12.710 -0.8058 -0.3683  0.5921
 5326TIP3   OH237392   0.462   1.328  15.962  0.0494  0.2050 -0.5853
 5326TIP3    H137393   0.370   1.347  15.980 -0.8949 -3.5458 -0.7104
 5326TIP3    H237394   0.474   1.351  15.870 -0.3046  2.1024 -0.1893
 5327TIP3   OH237395   4.499   6.188  11.550  0.1939 -0.1986 -0.0079
 5327TIP3    H137396   4.476   6.180  11.458 -1.1484  0.5083  0.2477
 5327TIP3    H237397   4.444   6.124  11.595  1.2878 -0.9905  0.2672
 5328TIP3   OH237398   6.067   1.178   0.322  0.5016 -0.1706 -0.2659
 5328TIP3    H137399   6.033   1.266   0.308 -1.3801 -0.6405  0.9462
 5328TIP3    H237400   6.134   1.166   0.254 -0.3201  1.5946 -1.4405
 5329TIP3   OH237401   2.384   4.830   4.863  0.0504  0.2651 -0.5122
 5329TIP3    H137402   2.378   4.777   4.943 -0.8617  1.0576 -0.0477
 5329TIP3    H237403   2.350   4.916   4.888  2.9301  1.6044 -0.8229
 5330TIP3   OH237404   3.933   4.508  16.403 -0.4876  0.2041 -0.6657
 5330TIP3    H137405   3.954   4.442  16.468 -0.0558 -0.5786 -1.5773
 5330TIP3    H237406   3.955   4.591  16.446 -1.1702 -0.2114  0.5411
 5331TIP3   OH237407   6.408   1.785   2.250 -0.0409  0.5287  0.3236
 5331TIP3    H137408   6.475   1.785   2.181  0.7007  0.5975  1.0202
 5331TIP3    H237409   6.340   1.727   2.218  0.3759  0.4282 -0.3928
 5332TIP3   OH237410   5.176   3.671   1.635  0.1927  0.2100 -0.2552
 5332TIP3    H137411   5.141   3.670   1.546  0.8649  1.0862 -0.5517
 5332TIP3    H237412   5.263   3.633   1.627  0.3160  0.4383  0.0003
 5333TIP3   OH237413   0.009   3.393   3.465  0.4525  0.0098 -0.2067
 5333TIP3    H137414   0.055   3.433   3.392  2.5535  1.2220  1.6697
 5333TIP3    H237415   0.069   3.326   3.497 -0.6761 -0.8899  0.1020
 5334TIP3   OH237416   1.663   0.591   5.311 -0.2800 -0.7087 -0.4973
 5334TIP3    H137417   1.701   0.596   5.398 -0.3594 -0.2631 -0.4867
 5334TIP3    H237418   1.683   0.675   5.271 -1.3263 -0.4285 -0.4599
 5335TIP3   OH237419   1.049   4.890   1.758 -0.3159 -0.5434  0.0477
 5335TIP3    H137420   1.019   4.981   1.760 -0.1136 -0.3990 -1.7850
 5335TIP3    H237421   1.143   4.896   1.738 -0.2040 -1.1422  0.3693
 5336TIP3   OH237422   4.124   3.403   5.234  0.4286  0.1192  0.1394
 5336TIP3    H137423   4.141   3.334   5.170  2.2557  2.2843 -1.8942
 5336TIP3    H237424   4.040   3.440   5.208  1.2767  1.1554 -1.2942
 5337TIP3   OH237425   5.637   4.511  13.813 -0.3251  0.3626  0.2420
 5337TIP3    H137426   5.611   4.420  13.828  2.0465 -0.4446 -0.1239
 5337TIP3    H237427   5.681   4.509  13.728  1.6246  1.4106  1.1716
 5338TIP3   OH237428   1.736   2.429  12.935  0.1091 -0.1010  0.0258
 5338TIP3    H137429   1.733   2.336  12.914 -1.8928 -0.2564  0.8078
 5338TIP3    H237430   1.763   2.471  12.854  0.2461 -1.2787 -0.5643
 5339TIP3   OH237431   2.755   6.538   6.801 -0.3473  0.0236 -0.4565
 5339TIP3    H137432   2.727   6.625   6.773  0.8184  0.1043 -1.4397
 5339TIP3    H237433   2.750   6.484   6.722 -1.6512 -0.9892  0.2659
 5340TIP3   OH237434   2.014   4.663  11.665 -0.1477 -0.4427 -0.6531
 5340TIP3    H137435   1.966   4.735  11.624  1.3703  0.1740 -1.3948
 5340TIP3    H237436   1.954   4.631  11.732 -0.4839  2.1908  0.4405
 5341TIP3   OH237437   4.777   0.999  16.685 -0.3117  0.2562  0.0115
 5341TIP3    H137438   4.706   1.058  16.709 -0.3528 -0.1139  0.8157
 5341TIP3    H237439   4.738   0.940  16.621 -1.5137 -1.6071  2.3287
 5342TIP3   OH237440   6.750   6.442  11.030 -0.1355 -0.3396 -0.0496
 5342TIP3    H137441   6.814   6.486  11.086  0.3678  0.4325 -1.1939
 5342TIP3    H237442   6.701   6.385  11.089  0.3865  0.4391  1.1592
 5343TIP3   OH237443   3.722   4.852  15.042 -0.1629 -0.5002 -0.3238
 5343TIP3    H137444   3.672   4.904  14.979  0.3520 -1.4361 -1.5505
 5343TIP3    H237445   3.655   4.811  15.097 -0.5758  1.3109  0.5874
 5344TIP3   OH237446   3.748   3.520   0.096 -0.0927  0.2634  0.5186
 5344TIP3    H137447   3.801   3.556   0.025  0.7438 -2.0661 -0.1211
 5344TIP3    H237448   3.807   3.518   0.171 -0.3634  0.8739  0.7526
 5345TIP3   OH237449   6.044   5.971  11.440 -0.2159 -0.0450 -0.4191
 5345TIP3    H137450   6.052   6.027  11.363 -1.9545 -2.3885 -2.4580
 5345TIP3    H237451   5.954   5.984  11.471  0.3074  0.4892  0.9664
 5346TIP3   OH237452   6.747   0.910  10.571 -0.0286  0.6783  0.1865
 5346TIP3    H137453   6.655   0.904  10.599 -0.6583  0.4674 -1.7443
 5346TIP3    H237454   6.752   0.853  10.494  0.9705  2.8500 -1.4609
 5347TIP3   OH237455   3.013   2.565   4.687 -0.1242  0.0896 -0.6282
 5347TIP3    H137456   3.100   2.587   4.721 -0.7290  1.9894 -0.2468
 5347TIP3    H237457   3.024   2.565   4.592  0.2111  0.6780 -0.5916
 5348TIP3   OH237458   1.931   2.869   1.061 -0.2795 -0.0369 -0.1960
 5348TIP3    H137459   1.948   2.786   1.106 -0.0299  0.1183 -0.0031
 5348TIP3    H237460   1.914   2.932   1.131 -2.6495 -0.3773 -0.3787
 5349TIP3   OH237461   5.242   1.858   5.173  0.1326  0.0977 -0.4155
 5349TIP3    H137462   5.168   1.808   5.138 -0.4005  1.1746 -0.8918
 5349TIP3    H237463   5.217   1.878   5.263  0.0568  0.0611 -0.4283
 5350TIP3   OH237464   0.416   3.480   2.676 -0.1297  0.5714  0.0448
 5350TIP3    H137465   0.430   3.556   2.733  2.2201  0.3656 -0.1507
 5350TIP3    H237466   0.464   3.409   2.718 -0.3366 -0.1979 -0.9787
 5351TIP3   OH237467   2.304   4.747  15.333 -0.1832  0.8320 -0.1963
 5351TIP3    H137468   2.357   4.779  15.260 -1.8765  1.6540 -1.1176
 5351TIP3    H237469   2.216   4.736  15.296 -1.2503  1.8901  1.8695
 5352TIP3   OH237470   4.695   4.012   5.064 -0.0842  0.3254 -0.0840
 5352TIP3    H137471   4.657   3.949   5.125  0.1853  0.9618  0.7665
 5352TIP3    H237472   4.788   4.012   5.084 -0.1155  1.1790  0.1242
 5353TIP3   OH237473   5.874   4.968  16.826  0.0694  0.5109  0.1857
 5353TIP3    H137474   5.925   5.023  16.886  0.8972 -2.2636  2.2565
 5353TIP3    H237475   5.783   4.981  16.853 -0.2156  3.4694 -1.7755
 5354TIP3   OH237476   1.336   0.032   5.245  0.3458 -0.5426  0.0960
 5354TIP3    H137477   1.305  -0.052   5.212 -0.5055 -0.7061  1.2507
 5354TIP3    H237478   1.341   0.088   5.168  1.5983 -1.8274 -0.8071
 5355TIP3   OH237479   6.250   5.260  13.193  0.3823 -0.7261 -0.7164
 5355TIP3    H137480   6.160   5.262  13.225  0.8131 -2.5432  0.7724
 5355TIP3    H237481   6.269   5.167  13.180  1.8104 -0.3278 -1.7656
 5356TIP3   OH237482   1.140   0.717  15.617  0.4585 -0.4746  0.5371
 5356TIP3    H137483   1.119   0.811  15.623  1.8631 -0.0474 -0.7372
 5356TIP3    H237484   1.099   0.679  15.695 -1.2006  0.9771  0.4524
 5357TIP3   OH237485   0.392   1.281  16.406  0.1322  0.3300 -0.4365
 5357TIP3    H137486   0.450   1.205  16.395  0.3771  0.4978 -0.3156
 5357TIP3    H237487   0.449   1.357  16.393  0.0758  0.5054  0.2895
 5358TIP3   OH237488   0.831   4.368   5.218 -0.2325  0.2402  0.5063
 5358TIP3    H137489   0.893   4.438   5.197  0.7840 -0.9782 -0.7708
 5358TIP3    H237490   0.759   4.412   5.264  0.3304  2.1187 -0.3172
 5359TIP3   OH237491   1.272   1.510  11.949  0.2725 -0.0416  0.0185
 5359TIP3    H137492   1.320   1.592  11.953 -0.1692  0.2201 -0.0004
 5359TIP3    H237493   1.327   1.452  11.897  0.6414  0.2034  0.1356
 5360TIP3   OH237494   2.006   1.406  16.000 -0.3648 -0.4624 -0.1982
 5360TIP3    H137495   2.100   1.391  15.987 -0.4354 -1.6094  0.5279
 5360TIP3    H237496   1.967   1.319  15.997 -1.4291  0.0041 -0.5307
 5361TIP3   OH237497   5.342   3.202  12.639  0.5786 -0.6312 -0.2207
 5361TIP3    H137498   5.417   3.160  12.597  1.1312 -1.5851  1.5755
 5361TIP3    H237499   5.380   3.270  12.694 -0.1253  0.6331 -1.2606
 5362TIP3   OH237500   2.146   6.157  15.177  0.1023 -0.2633  0.3360
 5362TIP3    H137501   2.161   6.154  15.272 -0.1176  4.1702  0.6958
 5362TIP3    H237502   2.233   6.169  15.139 -0.1404  1.7626  0.3606
 5363TIP3   OH237503   5.250   5.397  12.800 -0.0281  0.2339 -0.1011
 5363TIP3    H137504   5.344   5.404  12.820  0.1296  0.3223 -0.8485
 5363TIP3    H237505   5.244   5.321  12.742 -0.4203  0.2443 -0.0737
 5364TIP3   OH237506   3.453   1.779   5.358  0.4023 -0.6221  0.1099
 5364TIP3    H137507   3.417   1.813   5.440 -1.3508  0.2550 -0.9538
 5364TIP3    H237508   3.393   1.710   5.332  0.4309 -0.3035 -0.8477
 5365TIP3   OH237509   0.048   2.004  15.650  0.0000  0.1185 -1.1637
 5365TIP3    H137510   0.015   2.086  15.687 -2.0772 -1.1704  0.1286
 5365TIP3    H237511   0.066   1.949  15.727 -1.5009 -1.6041 -1.9689
 5366TIP3   OH237512   5.372   3.767  12.700  0.5845 -0.1916 -0.1867
 5366TIP3    H137513   5.358   3.704  12.628  1.6434  0.4745 -1.0048
 5366TIP3    H237514   5.467   3.767  12.713  0.3953 -0.3660  1.3026
 5367TIP3   OH237515   2.637   5.443  12.660  0.7525 -0.8174 -0.2343
 5367TIP3    H137516   2.672   5.431  12.572 -0.7386  0.6150 -1.0938
 5367TIP3    H237517   2.563   5.383  12.665 -0.3562  0.4365 -0.7366
 5368TIP3   OH237518   3.989   1.936  12.633 -0.1066 -0.3568 -0.8280
 5368TIP3    H137519   3.897   1.915  12.615 -0.5547 -0.1433  0.9712
 5368TIP3    H237520   3.987   1.976  12.720  1.6398  0.1407 -0.9830
 5369TIP3   OH237521   4.426   6.470   6.439  0.1483  0.2990  0.0168
 5369TIP3    H137522   4.437   6.541   6.376  1.0276  0.8889  0.8065
 5369TIP3    H237523   4.468   6.502   6.519  0.7080 -1.1555  0.3395
 5370TIP3   OH237524   5.010   4.562  13.403 -0.7242  0.2737  0.0617
 5370TIP3    H137525   4.928   4.612  13.402 -0.2443  1.1337 -1.6821
 5370TIP3    H237526   5.014   4.524  13.491 -2.0899  1.6979  0.8016
 5371TIP3   OH237527   1.133   5.485  14.688  0.0446 -0.4646 -0.2045
 5371TIP3    H137528   1.139   5.547  14.614 -0.9675 -1.4883 -1.1838
 5371TIP3    H237529   1.062   5.425  14.663  0.9502 -1.9820  0.7432
 5372TIP3   OH237530   1.737   3.647   1.947 -0.2458 -0.2684 -0.3983
 5372TIP3    H137531   1.773   3.609   1.867  0.4652  2.3783 -1.4449
 5372TIP3    H237532   1.813   3.664   2.003 -0.5982 -0.8667  0.2720
 5373TIP3   OH237533   2.950   3.031  12.570  0.2677 -0.1581  0.6099
 5373TIP3    H137534   2.927   3.026  12.663 -0.0342 -0.2210  0.5351
 5373TIP3    H237535   3.035   3.074  12.568 -0.2169  0.8426  0.8467
 5374TIP3   OH237536   1.230   0.594   5.398  0.6084  0.0589 -0.3275
 5374TIP3    H137537   1.308   0.545   5.370  1.1708  1.6003 -1.5949
 5374TIP3    H237538   1.181   0.609   5.317 -1.0881 -0.9403  0.4628
 5375TIP3   OH237539   2.313   6.125   1.057  0.0220  0.6111 -0.5987
 5375TIP3    H137540   2.318   6.101   1.149 -0.5787 -1.6104 -1.0770
 5375TIP3    H237541   2.230   6.172   1.049  0.1131  0.8812 -0.0110
 5376TIP3   OH237542   1.620   3.461  16.817  0.5991  0.3832  0.1830
 5376TIP3    H137543   1.619   3.366  16.828  0.4650  0.3494 -0.0988
 5376TIP3    H237544   1.530   3.483  16.791  0.2330  0.7713  1.6909
 5377TIP3   OH237545   3.674   1.077  15.894 -0.3465  0.0275 -0.2108
 5377TIP3    H137546   3.714   1.158  15.924 -2.6064  0.9638  0.4409
 5377TIP3    H237547   3.748   1.023  15.864  1.4021  1.4412  1.3723
 5378TIP3   OH237548   4.289   5.066  12.664  0.0152  0.5032  0.1631
 5378TIP3    H137549   4.237   5.111  12.598 -0.3674  1.6981  1.2512
 5378TIP3    H237550   4.341   5.135  12.706  0.2823 -0.2242  1.0760
 5379TIP3   OH237551   0.361   6.336   5.042  0.0676 -0.3904  0.0134
 5379TIP3    H137552   0.320   6.359   4.959 -0.3743 -1.9213 -0.2218
 5379TIP3    H237553   0.289   6.305   5.097  0.5717 -0.8010  0.4486
 5380TIP3   OH237554   5.085   0.878  11.753  0.4717 -0.6105  0.0658
 5380TIP3    H137555   5.012   0.827  11.717 -0.3989  0.8568 -0.3755
 5380TIP3    H237556   5.163   0.827  11.733 -0.4682 -2.4935  1.0296
 5381TIP3   OH237557   4.456   6.195   4.101 -0.1625 -0.0494  0.1505
 5381TIP3    H137558   4.466   6.261   4.170 -0.0744  1.8139 -1.5548
 5381TIP3    H237559   4.365   6.204   4.072 -0.2665 -0.9722  0.1496
 5382TIP3   OH237560   4.199   4.347   3.510  0.1217  0.2027  0.8271
 5382TIP3    H137561   4.121   4.297   3.534  0.3284 -0.6788 -0.2447
 5382TIP3    H237562   4.184   4.371   3.418 -0.5863  3.3204  1.6586
 5383TIP3   OH237563   5.276   5.534   4.296  0.1139  0.2379  1.0542
 5383TIP3    H137564   5.227   5.603   4.251  0.9318  0.1456 -0.0148
 5383TIP3    H237565   5.329   5.580   4.360 -0.3878  0.4591  1.3187
 5384TIP3   OH237566   5.546   6.493  10.700  0.3792  0.1302  0.1171
 5384TIP3    H137567   5.610   6.520  10.634  0.3934  2.1656  0.8830
 5384TIP3    H237568   5.571   6.404  10.723  3.5714  1.1475  1.0563
 5385TIP3   OH237569   6.134   5.980   5.378 -0.0224 -0.3991  0.0313
 5385TIP3    H137570   6.102   6.008   5.464  1.7794  1.4269  0.1745
 5385TIP3    H237571   6.166   5.891   5.392 -0.2778 -0.3345  1.0958
 5386TIP3   OH237572   1.633   4.451   0.118  0.4272  0.0122 -0.3124
 5386TIP3    H137573   1.621   4.479   0.209  0.1971 -0.7326 -0.1018
 5386TIP3    H237574   1.727   4.431   0.111  0.4150 -0.0903 -0.1887
 5387TIP3   OH237575   3.278   4.658   1.939  0.1737  0.8249  0.2593
 5387TIP3    H137576   3.352   4.693   1.988  1.1767 -0.2175 -0.4526
 5387TIP3    H237577   3.236   4.736   1.900  2.2614  1.3263 -1.1806
 5388TIP3   OH237578   3.771   5.316  11.997  0.0457  0.4860 -0.4269
 5388TIP3    H137579   3.798   5.231  12.032  0.5439  1.7697  2.5912
 5388TIP3    H237580   3.709   5.294  11.927  0.8151 -2.3400 -0.3346
 5389TIP3   OH237581   0.626   3.540  15.503 -0.0292  0.3580  0.1025
 5389TIP3    H137582   0.589   3.580  15.424 -1.1230  0.0910  0.4638
 5389TIP3    H237583   0.650   3.614  15.558 -0.5997  0.5422  0.1132
 5390TIP3   OH237584   3.721   5.892  16.429 -0.0214 -0.1751 -0.2471
 5390TIP3    H137585   3.813   5.877  16.408  0.3314  1.0517  0.3063
 5390TIP3    H237586   3.688   5.807  16.457  0.9672 -0.6069 -0.3678
 5391TIP3   OH237587   2.815   6.182   1.945  0.1399  0.0811 -0.2575
 5391TIP3    H137588   2.866   6.123   2.000 -0.1120 -0.0337 -0.1439
 5391TIP3    H237589   2.806   6.137   1.861 -0.0098 -0.0190 -0.1871
 5392TIP3   OH237590   1.175   0.797  17.021  0.6087 -0.2330  0.2264
 5392TIP3    H137591   1.166   0.892  17.028  1.6311 -0.0078 -1.1112
 5392TIP3    H237592   1.116   0.762  17.088 -2.0631  1.2775 -1.1705
 5393TIP3   OH237593   4.629   0.473   4.858 -0.3051  0.0701 -0.5952
 5393TIP3    H137594   4.662   0.453   4.770  0.7711  0.1612 -0.2172
 5393TIP3    H237595   4.690   0.537   4.893  0.6337 -1.6384  1.0895
 5394TIP3   OH237596   4.172   2.006  16.617  0.5698 -0.3859 -0.0941
 5394TIP3    H137597   4.204   2.009  16.707  1.2782  2.3126 -0.3357
 5394TIP3    H237598   4.167   2.098  16.591 -0.9334 -1.0339 -2.3683
 5395TIP3   OH237599   4.850   3.234  15.226 -0.3816 -0.0792 -0.4152
 5395TIP3    H137600   4.805   3.151  15.245 -3.3493  0.7398 -3.0217
 5395TIP3    H237601   4.874   3.268  15.311 -1.2859 -2.4624  0.8974
 5396TIP3   OH237602   1.587   5.778   1.401 -0.2020 -0.1288  0.3614
 5396TIP3    H137603   1.626   5.835   1.335 -0.4548 -2.1657 -1.6767
 5396TIP3    H237604   1.587   5.691   1.360 -2.6968 -1.0316  2.0643
 5397TIP3   OH237605   4.408   0.667   4.760 -0.5659  0.0778 -0.2987
 5397TIP3    H137606   4.418   0.573   4.743 -0.9339  0.2246 -1.4646
 5397TIP3    H237607   4.495   0.703   4.746 -0.2448 -0.1883  0.9419
 5398TIP3   OH237608   3.435   2.329   5.281  0.1548 -0.4842  0.1871
 5398TIP3    H137609   3.496   2.302   5.212  0.7017 -0.7316  0.7518
 5398TIP3    H237610   3.479   2.305   5.362 -0.7405 -0.7467  0.6085
 5399TIP3   OH237611   2.814   5.215   6.081  0.2472  0.1450  0.0199
 5399TIP3    H137612   2.837   5.299   6.120 -0.2168  0.2463  0.0835
 5399TIP3    H237613   2.724   5.227   6.051  0.8207  0.3046 -1.7374
 5400TIP3   OH237614   5.829   1.838   1.807  0.7289  0.1301  0.1080
 5400TIP3    H137615   5.822   1.916   1.863  0.5593  0.1292  0.0906
 5400TIP3    H237616   5.782   1.863   1.726 -0.7237 -0.5357  0.7055
 5401TIP3   OH237617   2.948   5.517  15.746  0.0631 -0.1032  0.1033
 5401TIP3    H137618   3.025   5.569  15.723 -0.6510  0.6551 -0.6307
 5401TIP3    H237619   2.933   5.536  15.839  1.0748 -0.6975  0.4056
 5402TIP3   OH237620   2.172   2.719  16.377  0.1508  0.3299  0.3630
 5402TIP3    H137621   2.224   2.794  16.349 -0.3127  0.5391  0.0596
 5402TIP3    H237622   2.082   2.742  16.355  0.0156 -0.3549  0.1777
 5403TIP3   OH237623   3.725   5.853  13.366  0.3893  0.3297 -0.9629
 5403TIP3    H137624   3.758   5.833  13.453 -1.7873 -0.5476 -0.2634
 5403TIP3    H237625   3.715   5.768  13.323 -0.7163  0.5486 -1.1871
 5404TIP3   OH237626   6.562   6.482   6.646  0.2059  0.0312 -0.3635
 5404TIP3    H137627   6.569   6.577   6.637  2.3421  0.1615  1.7460
 5404TIP3    H237628   6.615   6.447   6.575  1.4048  0.5204  0.2616
 5405TIP3   OH237629   1.165   0.958  13.407 -0.1655 -0.1058 -0.1225
 5405TIP3    H137630   1.220   0.986  13.334 -0.3560  0.1573 -0.1662
 5405TIP3    H237631   1.154   1.037  13.460 -1.0914  0.0162 -0.4899
 5406TIP3   OH237632   0.524   0.110  15.027  0.2551 -0.3629 -0.5650
 5406TIP3    H137633   0.586   0.152  15.087  0.1858 -1.5163  0.3511
 5406TIP3    H237634   0.578   0.052  14.973 -0.0398 -1.7812  0.5963
 5407TIP3   OH237635   2.695   1.167   5.995  0.2732  0.2237 -0.6038
 5407TIP3    H137636   2.636   1.183   6.068 -0.2661  2.4835 -1.4546
 5407TIP3    H237637   2.640   1.128   5.927  0.7551 -1.7913  0.1014
 5408TIP3   OH237638   6.459   6.297  15.531  0.2070  0.5080  0.3910
 5408TIP3    H137639   6.401   6.295  15.607  2.3916  2.0482  2.2384
 5408TIP3    H237640   6.484   6.389  15.521  0.9721  0.1636 -1.4310
 5409TIP3   OH237641   1.722   4.399   4.445 -0.0196 -0.3819  0.1940
 5409TIP3    H137642   1.693   4.308   4.439 -1.7485  0.1099  0.5281
 5409TIP3    H237643   1.745   4.422   4.355 -2.9499 -0.1421 -0.5919
 5410TIP3   OH237644   6.036   1.151   4.628  0.8911 -0.0015  0.1817
 5410TIP3    H137645   6.040   1.245   4.610  0.3088  0.0633  0.3684
 5410TIP3    H237646   6.003   1.146   4.718 -0.2161 -0.4128 -0.2455
 5411TIP3   OH237647   4.192   3.458  14.239 -0.8117 -0.4731 -0.1430
 5411TIP3    H137648   4.243   3.468  14.320  1.9476  1.8042 -1.9771
 5411TIP3    H237649   4.217   3.372  14.206  2.1019  0.5789 -0.9960
 5412TIP3   OH237650   3.752   1.955   5.557  0.6415 -0.3651 -0.5157
 5412TIP3    H137651   3.815   1.932   5.626  0.3183  2.0387  0.6724
 5412TIP3    H237652   3.678   1.896   5.572  0.7390 -0.1505  0.9988
 5413TIP3   OH237653   1.374   3.637   1.088  0.1645  0.3335  0.0382
 5413TIP3    H137654   1.398   3.598   1.004  0.3065 -1.4290  0.8287
 5413TIP3    H237655   1.433   3.595   1.151 -1.2111  0.1476  1.2638
 5414TIP3   OH237656   6.613   6.086  16.908 -0.4014  0.0546 -0.3779
 5414TIP3    H137657   6.595   6.117  16.997 -1.2439  0.0778 -0.5421
 5414TIP3    H237658   6.526   6.067  16.872 -0.0436 -0.2904 -1.0747
 5415TIP3   OH237659   1.334   1.987   4.724  0.4562 -0.0575  0.0152
 5415TIP3    H137660   1.382   2.069   4.735  1.7302 -0.8254  0.5213
 5415TIP3    H237661   1.285   1.977   4.806 -0.6413  0.7490 -0.5184
 5416TIP3   OH237662   1.989   1.567   4.880 -0.1428 -0.3693 -0.3054
 5416TIP3    H137663   2.081   1.581   4.855 -0.4678 -1.5772 -2.4849
 5416TIP3    H237664   1.945   1.548   4.797 -2.0921 -1.2708  0.8698
 5417TIP3   OH237665   0.431   0.042   0.070  0.2341  0.3434 -0.1143
 5417TIP3    H137666   0.423   0.115   0.132 -0.4708  0.1944 -0.0190
 5417TIP3    H237667   0.354   0.051   0.013  0.8781  0.4884 -0.9810
 5418TIP3   OH237668   6.280   6.262   4.891 -0.1411  0.1478 -0.1939
 5418TIP3    H137669   6.253   6.270   4.800 -0.8911 -1.0350 -0.0892
 5418TIP3    H237670   6.376   6.261   4.887 -0.1652 -0.3365 -1.0192
 5419TIP3   OH237671   2.591   2.413  17.130 -0.3445 -0.1774  0.1539
 5419TIP3    H137672   2.600   2.497  17.175 -1.5944 -0.0963  0.2792
 5419TIP3    H237673   2.630   2.427  17.044 -0.2994  0.4532  0.2740
 5420TIP3   OH237674   4.868   2.022   6.059 -0.6649 -0.0684  0.4381
 5420TIP3    H137675   4.953   1.996   6.094 -0.1885  0.7943 -0.0600
 5420TIP3    H237676   4.839   2.094   6.114 -0.1657  0.9307 -0.5693
 5421TIP3   OH237677   3.104   4.831   1.796  0.0280  0.2462 -0.1158
 5421TIP3    H137678   3.074   4.830   1.705  0.2729 -1.2745 -0.2028
 5421TIP3    H237679   3.026   4.810   1.847  0.2764 -0.7468 -0.1254
 5422TIP3   OH237680   5.049   0.412  16.348 -0.1992  0.4065 -0.4399
 5422TIP3    H137681   5.066   0.503  16.373  0.7943  0.6058 -1.7419
 5422TIP3    H237682   5.135   0.370  16.355 -0.6556 -0.4561  0.1703
 5423TIP3   OH237683   4.657   3.564   0.155  0.5689  0.1753  0.3277
 5423TIP3    H137684   4.682   3.490   0.099 -1.3508  0.2270 -0.6860
 5423TIP3    H237685   4.738   3.614   0.165  1.0885 -0.0504 -2.1169
 5424TIP3   OH237686   6.771   6.321  11.506  0.5341 -0.1983 -0.3059
 5424TIP3    H137687   6.715   6.271  11.565 -1.2596  0.5918 -1.2483
 5424TIP3    H237688   6.760   6.278  11.421 -1.6686  2.1087 -1.3210
 5425TIP3   OH237689   6.441   5.872  14.993 -0.3777  0.1096  0.1354
 5425TIP3    H137690   6.363   5.820  15.013 -0.2790  0.2225  0.8295
 5425TIP3    H237691   6.463   5.916  15.075  0.9188 -0.5685  0.1745
 5426TIP3   OH237692   3.206   4.952   4.953  0.4399 -0.0702  0.1162
 5426TIP3    H137693   3.227   4.900   5.030  0.8795 -2.4553 -1.5099
 5426TIP3    H237694   3.145   4.898   4.903 -0.4395  1.7493 -0.8672
 5427TIP3   OH237695   0.717   2.624  13.301 -0.2668  0.1660 -0.0291
 5427TIP3    H137696   0.719   2.566  13.225  0.2279  0.1769 -0.0233
 5427TIP3    H237697   0.766   2.577  13.368  0.7686  0.8990 -0.2489
 5428TIP3   OH237698   6.426   2.623  11.917 -0.3171 -0.4648  0.5453
 5428TIP3    H137699   6.443   2.595  11.827 -2.3042  1.4837 -0.5432
 5428TIP3    H237700   6.407   2.542  11.964 -1.5671 -1.3668 -1.3934
 5429TIP3   OH237701   5.608   5.984   4.656 -0.3113 -0.0754  0.1319
 5429TIP3    H137702   5.588   5.945   4.571  1.6088 -1.3610  0.1973
 5429TIP3    H237703   5.703   5.997   4.655 -0.1758 -0.4960  2.1937
 5430TIP3   OH237704   2.106   1.392   2.966  0.4550  0.2654 -0.3414
 5430TIP3    H137705   2.069   1.415   3.051  1.8647 -0.5860  0.5435
 5430TIP3    H237706   2.042   1.332   2.927  1.2954 -2.1095  1.6493
 5431TIP3   OH237707   4.075   0.462   3.107  0.3730  0.5085 -0.1629
 5431TIP3    H137708   4.067   0.407   3.185  0.4017 -1.1613 -1.2718
 5431TIP3    H237709   3.998   0.439   3.054  0.7791  1.0005 -0.9855
 5432TIP3   OH237710   5.767   2.210  11.106  0.4440 -0.1846  0.7107
 5432TIP3    H137711   5.846   2.156  11.114  0.4618 -0.4491 -0.8064
 5432TIP3    H237712   5.706   2.174  11.170  0.1617 -2.5739 -0.7851
 5433TIP3   OH237713   0.798   2.240   5.483 -0.0669 -0.1946 -0.4151
 5433TIP3    H137714   0.727   2.216   5.423 -0.2311 -0.4589 -0.1213
 5433TIP3    H237715   0.752   2.274   5.560  0.1667  1.7236 -1.0822
 5434TIP3   OH237716   0.019   1.717   2.659  0.1098  0.3630 -0.2756
 5434TIP3    H137717   0.096   1.772   2.670 -1.4429  2.6133 -0.1508
 5434TIP3    H237718  -0.055   1.777   2.660 -1.5979 -1.5481 -1.8234
 5435TIP3   OH237719   5.919   1.095   1.267  0.1243 -0.0869  0.9932
 5435TIP3    H137720   5.902   1.003   1.248  1.8405 -0.0697 -0.9041
 5435TIP3    H237721   5.832   1.131   1.288 -0.8259 -1.7516  0.1285
 5436TIP3   OH237722   6.041   5.998   1.342  0.3196  0.4601 -0.0995
 5436TIP3    H137723   6.093   5.984   1.262 -0.2580  0.6475 -0.5111
 5436TIP3    H237724   6.074   6.081   1.377  2.5729 -0.9697  1.4350
 5437TIP3   OH237725   4.999   4.850  15.075 -0.3349 -0.2062 -0.0058
 5437TIP3    H137726   5.065   4.781  15.082  0.6110  0.6921  0.1699
 5437TIP3    H237727   5.027   4.902  14.999 -0.0444  1.0008  0.9063
 5438TIP3   OH237728   4.628   2.093  11.309 -0.0855 -0.0307 -1.0366
 5438TIP3    H137729   4.669   2.027  11.253  0.3543 -0.7528  0.1001
 5438TIP3    H237730   4.697   2.160  11.320  0.7704 -1.1324  0.6852
 5439TIP3   OH237731   2.073   1.157  12.799  0.0716 -0.3610 -0.5703
 5439TIP3    H137732   2.094   1.087  12.861 -0.0404 -0.8427 -1.0749
 5439TIP3    H237733   2.015   1.116  12.735 -1.0351  0.5036 -0.1663
 5440TIP3   OH237734   2.247   4.198  16.343  0.3033 -0.2659  0.3101
 5440TIP3    H137735   2.332   4.241  16.338 -0.1916  0.8120  0.8266
 5440TIP3    H237736   2.189   4.264  16.379 -2.1052  1.1393 -5.0558
 5441TIP3   OH237737   4.579   4.849  15.628 -0.1292 -0.2286 -0.3256
 5441TIP3    H137738   4.500   4.898  15.606  0.2480  0.5141 -0.0663
 5441TIP3    H237739   4.552   4.758  15.627 -1.4302  0.0964  1.4720
 5442TIP3   OH237740   0.076   1.475   6.027  0.4569  0.4405 -0.9192
 5442TIP3    H137741   0.146   1.540   6.023  1.3224 -0.3944 -0.0130
 5442TIP3    H237742   0.072   1.451   6.120 -0.9185  0.3447 -0.9971
 5443TIP3   OH237743   0.448   0.883   5.227 -0.2988 -0.1923 -0.2902
 5443TIP3    H137744   0.399   0.823   5.284  0.7288 -0.7642  0.0080
 5443TIP3    H237745   0.421   0.859   5.138  0.4280 -1.4045 -0.1957
 5444TIP3   OH237746   3.637   6.011   4.047 -0.0226  0.1968  0.1836
 5444TIP3    H137747   3.727   6.042   4.035  0.0668 -0.0765  0.1434
 5444TIP3    H237748   3.616   6.033   4.138  0.7739 -1.4764  0.8194
 5445TIP3   OH237749   4.389   0.311   0.468 -0.0487 -0.1088 -0.0774
 5445TIP3    H137750   4.340   0.323   0.387  0.4843  0.0048 -0.3912
 5445TIP3    H237751   4.322   0.305   0.537 -0.5685 -1.6946 -0.6909
 5446TIP3   OH237752   0.897   5.774   4.504  0.4972  0.2395 -0.2873
 5446TIP3    H137753   0.935   5.765   4.591  0.8944 -0.2438 -0.5026
 5446TIP3    H237754   0.954   5.722   4.447 -1.4453 -2.0370 -0.3437
 5447TIP3   OH237755   1.934   3.005   5.921  0.2349 -0.0191 -0.0269
 5447TIP3    H137756   1.846   3.004   5.959  0.0828  0.1841 -0.3673
 5447TIP3    H237757   1.970   2.918   5.939  0.8843  0.6454  2.2488
 5448TIP3   OH237758   4.148   4.244   6.006 -0.1126  0.3514  0.1689
 5448TIP3    H137759   4.069   4.200   5.975  1.4932 -1.4474 -1.6610
 5448TIP3    H237760   4.165   4.313   5.942  0.4993 -0.1409 -0.2144
 5449TIP3   OH237761   5.053   1.514  15.298 -0.2059  0.0760  0.0499
 5449TIP3    H137762   5.037   1.535  15.206  2.0572  0.2431 -0.3734
 5449TIP3    H237763   4.981   1.457  15.323 -2.5171  2.3748 -0.9248
 5450TIP3   OH237764   1.874   2.958  15.908 -0.4172  0.2307 -0.5211
 5450TIP3    H137765   1.872   2.987  15.817 -0.5835 -0.9156 -0.8952
 5450TIP3    H237766   1.792   2.911  15.920 -0.6831  0.9170  0.4142
 5451TIP3   OH237767   2.739   2.150   3.324  0.3374 -0.0157 -0.1567
 5451TIP3    H137768   2.646   2.129   3.333 -0.2181  1.2131 -2.3088
 5451TIP3    H237769   2.756   2.214   3.393 -0.6222  0.3473 -0.2433
 5452TIP3   OH237770   5.374   6.393   3.120 -0.5494 -0.3489  0.7186
 5452TIP3    H137771   5.282   6.392   3.144 -0.5474 -0.4428  0.7259
 5452TIP3    H237772   5.400   6.485   3.126 -1.0302 -0.0899 -0.7800
 5453TIP3   OH237773   3.184   0.108   3.004 -0.9504  0.4079  0.1803
 5453TIP3    H137774   3.096   0.144   3.012 -1.5364 -0.3858 -2.0183
 5453TIP3    H237775   3.170   0.015   2.985  0.4505 -0.2652  2.0991
 5454TIP3   OH237776   2.059   0.226   5.823 -0.5805  0.1341  0.2567
 5454TIP3    H137777   2.121   0.299   5.828 -0.9943  0.5422 -0.4422
 5454TIP3    H237778   2.084   0.168   5.895  0.7568  0.1729 -0.1628
 5455TIP3   OH237779   1.165   2.313   1.701 -0.2158  0.2685  0.3516
 5455TIP3    H137780   1.195   2.252   1.768 -0.9625  0.8883  1.2728
 5455TIP3    H237781   1.071   2.295   1.692 -0.0384 -0.1488 -0.9070
 5456TIP3   OH237782   5.800   0.348  13.710  0.4229  0.0613  0.0124
 5456TIP3    H137783   5.893   0.327  13.710  0.3952 -0.1600  1.2751
 5456TIP3    H237784   5.781   0.374  13.620  1.6105 -0.2820 -0.3571
 5457TIP3   OH237785   1.699   6.041  17.181 -0.6574 -0.0635  0.3152
 5457TIP3    H137786   1.649   6.043  17.099 -0.0593  1.1805 -0.0456
 5457TIP3    H237787   1.783   6.003  17.157 -0.7830 -0.4997  0.5489
 5458TIP3   OH237788   1.260   6.168   0.784  0.0576  0.4239  0.0458
 5458TIP3    H137789   1.282   6.156   0.691  0.1574  0.3777  0.0759
 5458TIP3    H237790   1.283   6.259   0.802 -1.1676  0.8260 -0.3137
 5459TIP3   OH237791   0.183   3.468   5.852 -0.0488  0.7748 -0.0056
 5459TIP3    H137792   0.245   3.541   5.847  0.3718  0.6522  2.4054
 5459TIP3    H237793   0.197   3.419   5.771  2.1596  1.4268 -0.0746
 5460TIP3   OH237794   3.684   0.015   5.777 -0.0138  0.4043  0.4594
 5460TIP3    H137795   3.638   0.099   5.780  1.7786  1.5252 -1.3519
 5460TIP3    H237796   3.764   0.030   5.827 -0.1288 -0.5562  0.9501
 5461TIP3   OH237797   4.307   6.353  15.089  0.0324 -0.2932  0.6877
 5461TIP3    H137798   4.339   6.327  15.002 -1.7633 -0.6215  0.0791
 5461TIP3    H237799   4.333   6.444  15.097  0.6355 -0.3895  0.0111
 5462TIP3   OH237800   2.739   0.894   5.253 -0.0406  0.0174 -0.2638
 5462TIP3    H137801   2.796   0.953   5.302 -2.4000  0.4052  2.2559
 5462TIP3    H237802   2.698   0.949   5.187  1.5865 -0.0432 -1.3967
 5463TIP3   OH237803   2.318   4.203   3.488  0.0493  0.0321 -0.2673
 5463TIP3    H137804   2.406   4.180   3.459  0.1178 -0.9962  0.6608
 5463TIP3    H237805   2.266   4.209   3.407  0.8093 -0.0720 -0.7695
 5464TIP3   OH237806   4.145   3.746  12.554  0.2946  0.2005 -0.4824
 5464TIP3    H137807   4.164   3.835  12.524  0.9140 -1.1050 -4.6636
 5464TIP3    H237808   4.230   3.710  12.580  0.4966  0.0941 -1.2592
 5465TIP3   OH237809   1.942   6.394   0.440  0.0165  0.3524  0.0241
 5465TIP3    H137810   1.927   6.483   0.407  0.6806  0.5879  0.3311
 5465TIP3    H237811   1.855   6.358   0.454 -0.3065  0.2790 -1.8797
 5466TIP3   OH237812   0.485   3.104   4.844 -0.0126 -0.2468 -0.0791
 5466TIP3    H137813   0.413   3.166   4.834  0.3548  0.0862 -0.7533
 5466TIP3    H237814   0.564   3.154   4.821  0.3272 -0.8632 -0.2894
 5467TIP3   OH237815   1.784   6.738   4.682  1.2480 -0.3141  1.2282
 5467TIP3    H137816   1.839   6.755   4.758  3.5887  0.3402 -0.4983
 5467TIP3    H237817   1.768   6.825   4.644  0.7826 -0.6872  0.5274
 5468TIP3   OH237818   4.223   4.094   4.419 -0.0620 -0.1421  0.5045
 5468TIP3    H137819   4.290   4.132   4.363  1.8600 -1.5903  1.6612
 5468TIP3    H237820   4.250   4.002   4.429  0.0124  0.1219  4.0755
 5469TIP3   OH237821   5.367   1.050   2.094  0.2645 -0.3775  0.0052
 5469TIP3    H137822   5.369   1.145   2.084 -0.4317 -0.4985 -1.4708
 5469TIP3    H237823   5.409   1.017   2.015 -0.4066 -1.3131  0.0284
 5470TIP3   OH237824   6.419   4.209   2.982 -0.2343  0.0850 -0.0582
 5470TIP3    H137825   6.339   4.238   3.026  0.9152  2.4204  0.6978
 5470TIP3    H237826   6.484   4.276   3.006  1.6336 -1.0904 -1.5960
 5471TIP3   OH237827   1.552   5.102  12.403  0.2033  0.8355 -0.1362
 5471TIP3    H137828   1.480   5.147  12.360 -0.0101  0.8581  0.2402
 5471TIP3    H237829   1.615   5.171  12.423 -0.2821  1.0392  0.7646
 5472TIP3   OH237830   1.391   2.075   6.633  0.5215 -0.0350 -0.1733
 5472TIP3    H137831   1.345   2.106   6.711 -0.5768  0.1113 -0.8529
 5472TIP3    H237832   1.484   2.074   6.658  0.3004  1.1002  0.7612
 5473TIP3   OH237833   4.215   1.343   2.747  0.4097 -0.1967  0.4684
 5473TIP3    H137834   4.226   1.250   2.764 -1.6585 -0.3521  1.2729
 5473TIP3    H237835   4.212   1.383   2.834  0.4961  0.5099  0.1564
 5474TIP3   OH237836   0.490   2.096  14.778 -0.0039  0.0327  0.3081
 5474TIP3    H137837   0.405   2.055  14.762 -1.0407  1.4904  1.8206
 5474TIP3    H237838   0.486   2.179  14.731  1.0360 -0.3813 -0.5343
 5475TIP3   OH237839   6.368   3.390  12.310  0.0404  0.3012 -0.2022
 5475TIP3    H137840   6.302   3.321  12.300 -0.5039  1.0643 -2.7682
 5475TIP3    H237841   6.318   3.471  12.310  0.8006  0.7930  0.9644
 5476TIP3   OH237842   3.103   0.943   5.119  0.4314 -0.2113 -0.3210
 5476TIP3    H137843   3.059   0.869   5.161 -1.4471  1.2236  0.3633
 5476TIP3    H237844   3.035   0.986   5.067  0.4572  3.0584  2.0616
 5477TIP3   OH237845   5.673   2.508   1.990 -0.0194 -0.9173  0.3842
 5477TIP3    H137846   5.708   2.586   1.948 -0.8409 -1.4568 -1.3529
 5477TIP3    H237847   5.600   2.481   1.936  0.2468 -2.9098  0.9342
 5478TIP3   OH237848   6.027   2.076  15.142 -0.5124 -0.3189  0.5864
 5478TIP3    H137849   6.068   1.990  15.150  2.3489  0.8550 -0.3197
 5478TIP3    H237850   5.999   2.080  15.050  3.7304  1.3158 -0.8901
 5479TIP3   OH237851   2.785   4.941  14.050 -0.0723  0.0743 -0.1865
 5479TIP3    H137852   2.820   5.013  13.996  2.3413 -1.1074 -0.3669
 5479TIP3    H237853   2.729   4.891  13.990  0.3383  0.3515 -0.8110
 5480TIP3   OH237854   1.252   0.478  10.713  0.2806  0.2195  0.8716
 5480TIP3    H137855   1.251   0.466  10.618  0.4755  0.9962  0.7575
 5480TIP3    H237856   1.227   0.570  10.726  0.1468  0.0922  1.5775
 5481TIP3   OH237857   6.736   1.504  12.626  0.3179 -0.2756 -0.4452
 5481TIP3    H137858   6.685   1.480  12.549 -0.4976  1.3547 -0.4513
 5481TIP3    H237859   6.827   1.488  12.601  0.0086 -0.4669 -1.4822
 5482TIP3   OH237860   0.727   0.123   0.989 -0.3621  0.6864 -0.0820
 5482TIP3    H137861   0.642   0.165   0.975 -0.4445  0.6367  0.2691
 5482TIP3    H237862   0.779   0.188   1.036  0.1725  1.1442 -1.2608
 5483TIP3   OH237863   0.711   4.619   3.842  0.7346  0.9019 -0.1079
 5483TIP3    H137864   0.754   4.534   3.849 -0.8584 -0.0381 -1.0314
 5483TIP3    H237865   0.777   4.682   3.870  1.3619 -0.7456  2.4392
 5484TIP3   OH237866   2.423   3.624  13.841 -0.1120 -0.4592 -0.4048
 5484TIP3    H137867   2.454   3.545  13.886 -1.0948  0.5631  2.3152
 5484TIP3    H237868   2.453   3.696  13.896 -0.3021  1.0195 -2.1469
 5485TIP3   OH237869   6.022   3.675  13.917  0.3003 -0.0276 -0.8124
 5485TIP3    H137870   6.044   3.582  13.905  0.1643 -0.0390 -0.9748
 5485TIP3    H237871   5.969   3.697  13.841  0.6999  0.3041 -0.9976
 5486TIP3   OH237872   0.822   0.779   5.448  0.4101  0.0400 -0.2862
 5486TIP3    H137873   0.761   0.717   5.489 -0.9866  1.9749  0.7629
 5486TIP3    H237874   0.782   0.799   5.364 -0.6324  1.5260  0.5215
 5487TIP3   OH237875   4.920   6.154   6.336 -0.3181  0.1916 -0.2747
 5487TIP3    H137876   4.955   6.069   6.361 -2.0836  0.2773  2.9772
 5487TIP3    H237877   4.994   6.198   6.292  1.9803 -1.4884  1.6534
 5488TIP3   OH237878   1.336   0.230  11.629  0.2323  0.7658 -0.2304
 5488TIP3    H137879   1.268   0.178  11.588 -1.4903  2.9055 -0.2822
 5488TIP3    H237880   1.367   0.177  11.702 -0.7494 -0.6973 -0.8408
 5489TIP3   OH237881   1.590   5.152   2.690 -0.1211  0.4118 -0.0958
 5489TIP3    H137882   1.567   5.239   2.723  1.4178  0.8737 -0.1547
 5489TIP3    H237883   1.523   5.094   2.727  0.0934  1.2811  1.7774
 5490TIP3   OH237884   3.238   6.591  11.791  0.2098 -0.0313  0.4317
 5490TIP3    H137885   3.255   6.504  11.827  0.0496  0.4515  1.7281
 5490TIP3    H237886   3.176   6.576  11.720 -1.2101 -0.8313  1.7799
 5491TIP3   OH237887   1.170   4.512   6.307  0.1995  1.1394 -0.3260
 5491TIP3    H137888   1.093   4.551   6.348  1.4341  1.5416  1.7423
 5491TIP3    H237889   1.141   4.423   6.283 -1.2855  1.7377 -0.9352
 5492TIP3   OH237890   5.111   5.742   1.715 -0.0352  0.9961 -0.4860
 5492TIP3    H137891   5.154   5.697   1.788 -0.4006 -1.5873 -1.7321
 5492TIP3    H237892   5.048   5.800   1.757  1.1568  1.1171  1.2688
 5493TIP3   OH237893   4.157   1.715   2.816 -0.2987 -0.2058  0.0662
 5493TIP3    H137894   4.198   1.759   2.741  0.7269  1.1287  1.3261
 5493TIP3    H237895   4.101   1.783   2.856 -2.0434 -1.3506 -0.3417
 5494TIP3   OH237896   3.067   0.453   6.009 -0.1676 -0.3963 -0.2134
 5494TIP3    H137897   3.035   0.478   6.096  1.4296 -0.6575  0.4870
 5494TIP3    H237898   3.042   0.361   5.999  1.4107 -0.9875  0.8802
 5495TIP3   OH237899   0.796   4.043   0.373  0.8241  0.2562  0.1158
 5495TIP3    H137900   0.733   4.113   0.391 -1.4473 -1.3645 -0.9039
 5495TIP3    H237901   0.775   3.976   0.439  1.6048 -0.2425 -0.1381
 5496TIP3   OH237902   2.491   3.902   3.574 -0.1707 -0.2341 -0.3770
 5496TIP3    H137903   2.561   3.929   3.634 -1.1052  3.2077 -0.6525
 5496TIP3    H237904   2.504   3.956   3.496 -1.2899 -1.8320 -1.7458
 5497TIP3   OH237905   6.319   0.539   1.333  0.0389  0.3304 -0.0540
 5497TIP3    H137906   6.251   0.513   1.270 -0.2692  1.5069 -0.2215
 5497TIP3    H237907   6.291   0.623   1.367  0.7949  0.2535  0.8179
 5498TIP3   OH237908   5.660   6.293   0.663 -0.7168  0.1363  0.4338
 5498TIP3    H137909   5.688   6.348   0.736 -2.1994  2.6286 -0.7460
 5498TIP3    H237910   5.738   6.242   0.640 -0.1115 -0.4966  3.4608
 5499TIP3   OH237911   1.471   0.424   1.363 -0.1481  0.1380  0.2483
 5499TIP3    H137912   1.378   0.403   1.368  0.0091 -0.9236 -0.7523
 5499TIP3    H237913   1.493   0.410   1.271  0.7098  1.6898  0.1871
 5500TIP3   OH237914   1.999   0.614   2.989 -0.2183 -0.8311  0.0236
 5500TIP3    H137915   2.060   0.582   3.055 -1.0432  3.2186  3.2111
 5500TIP3    H237916   2.038   0.697   2.959 -3.1807  1.1013  1.0113
 5501TIP3   OH237917   0.924   2.224   1.603 -0.2006  0.2640 -0.1577
 5501TIP3    H137918   0.877   2.292   1.554  1.1960  1.5674  0.2623
 5501TIP3    H237919   0.920   2.147   1.546  0.9294  1.5906 -2.1538
 5502TIP3   OH237920   3.592   2.408  16.173 -0.2075 -0.5020  0.4301
 5502TIP3    H137921   3.562   2.336  16.228  1.1122 -1.2102  0.2641
 5502TIP3    H237922   3.686   2.392  16.162 -0.8235 -2.5605 -4.9761
 5503TIP3   OH237923   5.090   1.070  16.646 -0.6603  0.0947 -0.1329
 5503TIP3    H137924   5.122   1.153  16.609  2.0784 -0.6563  0.3285
 5503TIP3    H237925   5.143   1.003  16.604 -0.9173 -1.1984  1.4879
 5504TIP3   OH237926   1.059   2.721   5.348 -0.5362 -0.5220  0.5956
 5504TIP3    H137927   0.991   2.668   5.306 -0.0723 -0.5268 -0.1775
 5504TIP3    H237928   1.071   2.682   5.434 -1.1552 -0.8351  0.5437
 5505TIP3   OH237929   0.395   6.517  15.933 -0.2257  0.0735  0.2002
 5505TIP3    H137930   0.432   6.585  15.990  0.9325  0.1558 -0.6184
 5505TIP3    H237931   0.303   6.510  15.960  0.1562  0.4896  1.7079
 5506TIP3   OH237932   6.507   3.990   3.638 -0.2189 -0.3593 -0.3926
 5506TIP3    H137933   6.534   3.929   3.570  2.1568 -1.1635  1.1352
 5506TIP3    H237934   6.562   4.067   3.626  1.4250 -1.1441  1.4623
 5507TIP3   OH237935   2.397   4.358   0.104  0.4416  0.3572  0.0352
 5507TIP3    H137936   2.355   4.359   0.190 -0.1096 -3.1131 -0.0511
 5507TIP3    H237937   2.412   4.450   0.084 -2.6198  1.5121  2.2641
 5508TIP3   OH237938   3.891   6.714  11.701  0.7307 -0.9628  0.7975
 5508TIP3    H137939   3.878   6.766  11.780  2.2392  0.2661  0.2805
 5508TIP3    H237940   3.986   6.706  11.692  0.6957  0.3262 -1.7292
 5509TIP3   OH237941   4.475   5.525  13.625  0.1221 -0.2489 -0.2197
 5509TIP3    H137942   4.532   5.544  13.550  0.2913 -1.4678 -0.4379
 5509TIP3    H237943   4.395   5.574  13.608  0.3189 -0.1820 -0.9928
 5510TIP3   OH237944   0.997   5.837  11.123  0.6381  0.3006 -0.0262
 5510TIP3    H137945   0.958   5.757  11.158 -0.5976  1.1753  0.6922
 5510TIP3    H237946   1.011   5.818  11.031  0.4528 -0.7800  0.1507
 5511TIP3   OH237947   3.319   4.876   4.028  0.2372  0.0917 -0.0734
 5511TIP3    H137948   3.223   4.882   4.022  0.1982 -1.6222 -2.3972
 5511TIP3    H237949   3.351   4.947   3.972  0.4035  1.2707  1.4462
 5512TIP3   OH237950   3.016   0.840  16.610 -0.3385 -0.2518 -0.1895
 5512TIP3    H137951   3.081   0.856  16.541 -1.5760  1.4958 -1.0445
 5512TIP3    H237952   2.973   0.759  16.584 -0.5139  0.1721 -1.2892
 5513TIP3   OH237953   1.158   6.300  14.321  0.2912 -0.0647 -0.1524
 5513TIP3    H137954   1.124   6.368  14.378 -0.4951 -1.7947  1.5502
 5513TIP3    H237955   1.251   6.293  14.344  0.4895  0.7129 -0.6717
 5514TIP3   OH237956   0.476   5.135   0.959  0.1737  0.0174  0.1995
 5514TIP3    H137957   0.522   5.211   0.996  0.6042  2.2358 -4.1308
 5514TIP3    H237958   0.385   5.164   0.951  0.3991  0.3797 -1.7577
 5515TIP3   OH237959   6.053   1.429   4.236  0.0834 -0.0324  0.1342
 5515TIP3    H137960   6.130   1.373   4.249  1.6513  2.0372  0.3737
 5515TIP3    H237961   6.054   1.450   4.143 -1.1253 -1.1804 -0.1699
 5516TIP3   OH237962   6.097   4.382   3.942 -0.2035  0.0486  0.3240
 5516TIP3    H137963   6.163   4.397   4.010 -0.3841  1.1937  0.2763
 5516TIP3    H237964   6.095   4.287   3.930  1.3000 -0.0240  0.4585
 5517TIP3   OH237965   6.705   2.622  16.152 -0.0677 -0.5184  0.0546
 5517TIP3    H137966   6.651   2.686  16.198  0.4215 -0.4552  0.5453
 5517TIP3    H237967   6.756   2.578  16.221  0.6191 -0.4709 -0.4101
 5518TIP3   OH237968   0.998   6.485   4.050 -0.4312 -0.0466 -0.2414
 5518TIP3    H137969   0.999   6.539   4.129 -0.9860  1.1419 -1.0227
 5518TIP3    H237970   0.964   6.401   4.080 -4.0858  1.4107  0.2265
 5519TIP3   OH237971   4.156   5.505   1.929  0.2626 -0.0204 -0.3326
 5519TIP3    H137972   4.087   5.548   1.878  0.2370  0.1347 -0.1696
 5519TIP3    H237973   4.121   5.418   1.949 -0.3321  0.4162  0.6363
 5520TIP3   OH237974   5.962   1.748  16.791 -0.7737 -0.4687  0.2004
 5520TIP3    H137975   5.984   1.815  16.856  0.3837 -2.7017  2.2855
 5520TIP3    H237976   5.877   1.774  16.756 -0.0032  2.4775  0.2647
 5521TIP3   OH237977   4.129   5.997  16.119 -0.1638  0.3151 -0.2397
 5521TIP3    H137978   4.039   6.030  16.123 -0.6036 -0.6860 -1.2880
 5521TIP3    H237979   4.120   5.906  16.092  1.2305  0.5940 -1.8151
 5522TIP3   OH237980   1.316   3.372  15.773  0.4330 -0.4505  0.4922
 5522TIP3    H137981   1.227   3.338  15.759  0.6321 -0.5233 -0.7505
 5522TIP3    H237982   1.332   3.361  15.867 -1.2897  0.6048  0.9475
 5523TIP3   OH237983   0.068   4.399  16.187 -0.0598 -0.2441  0.4365
 5523TIP3    H137984   0.104   4.457  16.254  0.2236 -1.2815  1.2223
 5523TIP3    H237985   0.132   4.327  16.181  0.1280  0.0264 -1.2575
 5524TIP3   OH237986   2.425   1.739  14.099 -0.1450 -0.3219 -0.2122
 5524TIP3    H137987   2.490   1.805  14.074 -0.0737 -0.3038  0.0155
 5524TIP3    H237988   2.450   1.714  14.188 -0.1087 -0.7321 -0.3373
 5525TIP3   OH237989   2.877   3.252   3.462 -0.2821 -0.7683 -0.3665
 5525TIP3    H137990   2.846   3.221   3.547  1.0051  3.8492  2.1110
 5525TIP3    H237991   2.963   3.213   3.453 -0.8546 -2.1550 -0.1485
 5526TIP3   OH237992   0.470   6.593   2.806 -0.1062  0.7282  0.5399
 5526TIP3    H137993   0.388   6.553   2.776 -0.0706  1.2277 -0.2863
 5526TIP3    H237994   0.524   6.520   2.836  0.1828  0.0617 -1.4497
 5527TIP3   OH237995   2.789   6.588  14.120  0.2310  0.6162 -0.6506
 5527TIP3    H137996   2.737   6.656  14.163  0.4154 -0.3486  1.1796
 5527TIP3    H237997   2.856   6.636  14.071 -1.5799  1.8345 -2.0764
 5528TIP3   OH237998   0.078   5.814   0.813  0.4903  0.3739  0.1344
 5528TIP3    H137999   0.039   5.857   0.889 -0.1052  1.2474 -0.6418
 5528TIP3    H238000   0.094   5.885   0.750  0.6362 -0.3720 -0.6995
 5529TIP3   OH238001   2.854   1.013   3.970 -0.3045  0.4113  0.3878
 5529TIP3    H138002   2.835   0.943   4.033  0.2762 -0.1455 -0.0421
 5529TIP3    H238003   2.949   1.017   3.967 -0.3343  0.7161 -0.1549
 5530TIP3   OH238004   2.691   0.549  12.773 -0.4755 -0.6034 -0.1325
 5530TIP3    H138005   2.723   0.459  12.777  0.4541 -0.3690 -1.5571
 5530TIP3    H238006   2.748   0.598  12.832  1.0168 -0.4276 -1.6651
 5531TIP3   OH238007   5.961   6.171   4.608  0.0152  0.1773 -0.0111
 5531TIP3    H138008   6.056   6.165   4.611 -0.1028 -2.1581  2.1279
 5531TIP3    H238009   5.931   6.081   4.597 -1.9835  0.9317 -1.3355
 5532TIP3   OH238010   4.240   0.527  16.841  0.7578  0.8164  0.0341
 5532TIP3    H138011   4.187   0.551  16.765 -1.7692 -1.4169  0.9396
 5532TIP3    H238012   4.221   0.595  16.906 -0.6490  0.3267  0.1615
 5533TIP3   OH238013   2.503   5.318  14.030  0.0833  0.3020  0.2082
 5533TIP3    H138014   2.516   5.235  14.074 -0.2427  0.9090  1.4983
 5533TIP3    H238015   2.555   5.381  14.080 -1.1940  1.2166  0.4380
 5534TIP3   OH238016   2.430   2.611   6.284  0.2964  0.0715  0.0083
 5534TIP3    H138017   2.484   2.532   6.282  0.6176  0.2636  0.7717
 5534TIP3    H238018   2.456   2.656   6.365 -1.1641  0.0607  0.5181
 5535TIP3   OH238019   4.478   3.126  16.172 -0.5343 -0.0208 -0.0743
 5535TIP3    H138020   4.500   3.200  16.115  2.2983 -0.4944  0.2455
 5535TIP3    H238021   4.454   3.166  16.255 -3.5141  0.6282 -1.1169
 5536TIP3   OH238022   4.779   2.757  13.404 -0.2742 -0.9854 -0.0416
 5536TIP3    H138023   4.809   2.803  13.482  1.5244 -0.4974 -0.9807
 5536TIP3    H238024   4.700   2.711  13.433  0.9506 -1.7315  2.3457
 5537TIP3   OH238025   2.359   1.109  15.089  0.2792 -0.1680 -0.0715
 5537TIP3    H138026   2.354   1.033  15.147  3.0944 -0.7116 -0.4251
 5537TIP3    H238027   2.330   1.076  15.004 -1.3763 -0.0230  0.3989
 5538TIP3   OH238028   5.844   0.281  12.035  0.1595  0.4383 -0.5537
 5538TIP3    H138029   5.872   0.365  11.998 -0.1429 -0.0489 -1.9577
 5538TIP3    H238030   5.926   0.237  12.059  0.3996  0.5666 -1.1226
 5539TIP3   OH238031   0.047   2.079  13.989 -0.2033  0.1035  0.2644
 5539TIP3    H138032  -0.015   2.068  14.061  0.0713  0.7016  0.6061
 5539TIP3    H238033   0.047   2.173  13.972  1.2385  0.2381  0.8564
 5540TIP3   OH238034   0.672   2.120  14.072  0.1438 -0.3103 -0.1267
 5540TIP3    H138035   0.645   2.043  14.122  0.1118 -0.7992 -0.8783
 5540TIP3    H238036   0.595   2.177  14.073  0.0971 -0.3783  0.2585
 5541TIP3   OH238037   1.320   4.386  11.541 -0.1255  0.2499  0.0980
 5541TIP3    H138038   1.383   4.452  11.511  0.9620 -0.6654  0.2861
 5541TIP3    H238039   1.359   4.350  11.621 -1.2839  0.2090  0.6535
 5542TIP3   OH238040   0.635   6.391  15.119 -0.0193 -0.5549 -0.2735
 5542TIP3    H138041   0.643   6.406  15.024 -0.1096 -0.9784 -0.3510
 5542TIP3    H238042   0.622   6.478  15.156 -0.6243 -0.4455 -0.7257
 5543TIP3   OH238043   1.929   2.609   3.847 -0.5530 -0.7569 -0.2766
 5543TIP3    H138044   1.866   2.546   3.881 -0.7800 -0.9753 -1.0682
 5543TIP3    H238045   1.876   2.684   3.819 -0.3279 -0.3972  0.2390
 5544TIP3   OH238046   1.916   0.137   6.106  0.0907  0.0707 -0.2544
 5544TIP3    H138047   1.950   0.105   6.189  0.1632 -2.9414 -1.3174
 5544TIP3    H238048   1.980   0.201   6.077  2.5799 -2.1398 -0.0569
 5545TIP3   OH238049   2.751   6.609  16.649  0.2213  0.0586  0.3057
 5545TIP3    H138050   2.764   6.519  16.676  0.9443  0.0237 -0.1332
 5545TIP3    H238051   2.819   6.659  16.696  0.2316  0.2763  0.0659
 5546TIP3   OH238052   6.298   4.601   2.008  0.2902 -0.4048  0.2724
 5546TIP3    H138053   6.370   4.558   2.055  0.6670  0.0191  0.0972
 5546TIP3    H238054   6.311   4.574   1.917 -1.0742 -2.1057  0.5341
 5547TIP3   OH238055   1.001   3.330   3.448 -0.1182  0.4348 -0.2591
 5547TIP3    H138056   1.074   3.367   3.397  1.0628  2.2370  2.5159
 5547TIP3    H238057   0.937   3.401   3.453 -0.1815  0.3093  0.8037
 5548TIP3   OH238058   6.698   5.437  13.132 -0.5465  0.1328 -0.1832
 5548TIP3    H138059   6.605   5.425  13.114  0.0135 -2.3483 -1.7450
 5548TIP3    H238060   6.700   5.513  13.192 -3.5330  0.2016  0.0033
 5549TIP3   OH238061   3.869   4.050   3.716 -0.2052 -0.4042  0.0217
 5549TIP3    H138062   3.924   3.973   3.702  0.3341  0.1145 -0.8502
 5549TIP3    H238063   3.791   4.017   3.761 -1.0015 -1.8324 -2.2803
 5550TIP3   OH238064   3.551   4.090  17.227  0.2352 -0.0493 -0.0093
 5550TIP3    H138065   3.547   4.065  17.135 -1.4476  2.5196 -0.7418
 5550TIP3    H238066   3.492   4.030  17.272  0.6338 -0.9597 -0.6727
 5551TIP3   OH238067   2.366   4.605  14.977 -0.2931 -0.1047 -0.2403
 5551TIP3    H138068   2.422   4.548  14.925  0.7699 -1.2517  1.9817
 5551TIP3    H238069   2.312   4.545  15.029 -2.2002  0.9854 -0.8774
 5552TIP3   OH238070   4.341   2.635  16.414  0.1828 -0.3304  0.0720
 5552TIP3    H138071   4.340   2.714  16.360 -1.0057  0.8435  1.7267
 5552TIP3    H238072   4.427   2.636  16.456  1.5990 -1.8671 -2.5128
 5553TIP3   OH238073   1.453   5.283  14.712 -0.0558  0.0053  0.4020
 5553TIP3    H138074   1.383   5.337  14.749 -0.3308  0.5465 -0.8590
 5553TIP3    H238075   1.414   5.242  14.635  0.8467 -0.1174 -0.0055
 5554TIP3   OH238076   5.735   3.197  16.783 -0.2702  0.8288  0.5931
 5554TIP3    H138077   5.758   3.227  16.871  3.3888  0.0285  0.0689
 5554TIP3    H238078   5.791   3.122  16.768 -3.0271 -1.0155 -1.3667
 5555TIP3   OH238079   4.216   3.811  15.959  0.0182  0.1094 -0.2683
 5555TIP3    H138080   4.245   3.892  16.001 -2.0630  0.0948  1.3479
 5555TIP3    H238081   4.244   3.820  15.868 -1.4312  3.3473 -0.5153
 5556TIP3   OH238082   4.903   4.394  12.353 -0.2921  0.3156  0.1598
 5556TIP3    H138083   4.872   4.312  12.392  2.8484 -0.4510  1.3934
 5556TIP3    H238084   4.900   4.378  12.258 -0.5128 -0.9399  0.3567
 5557TIP3   OH238085   0.310   5.146  13.789  0.6640  0.8514  0.0511
 5557TIP3    H138086   0.300   5.237  13.762 -2.5917  0.8752  0.9227
 5557TIP3    H238087   0.266   5.095  13.721  0.4066  0.1610  0.7126
 5558TIP3   OH238088   5.253   0.654  16.352  0.9953  0.0665 -0.3190
 5558TIP3    H138089   5.181   0.680  16.410  0.8000  1.3684 -1.0844
 5558TIP3    H238090   5.291   0.738  16.324  0.8132 -0.4835 -2.3819
 5559TIP3   OH238091   5.119   1.568  12.379 -0.2609 -0.0050 -0.2393
 5559TIP3    H138092   5.147   1.655  12.350  1.4256 -0.5657 -0.4243
 5559TIP3    H238093   5.111   1.576  12.474  0.9765  0.0927 -0.1311
 5560TIP3   OH238094   2.921   4.556  14.633  0.4350  0.3601  0.4562
 5560TIP3    H138095   2.859   4.508  14.577  1.1723  2.0061 -1.9402
 5560TIP3    H238096   2.866   4.597  14.699 -0.8830  0.5646 -0.7159
 5561TIP3   OH238097   5.463   4.029   0.435 -0.1432  0.3772  0.4593
 5561TIP3    H138098   5.471   4.005   0.528 -1.0940 -1.4196  0.1101
 5561TIP3    H238099   5.395   4.097   0.434 -0.5327  0.0070  1.0161
 5562TIP3   OH238100   0.574   6.426  14.506 -0.0275 -0.7996  0.9057
 5562TIP3    H138101   0.644   6.366  14.533  1.5936  0.1713 -0.9467
 5562TIP3    H238102   0.610   6.473  14.431 -2.4757  0.1655  0.2516
 5563TIP3   OH238103   1.387   0.673  12.309  0.2236 -0.7265  0.2033
 5563TIP3    H138104   1.314   0.689  12.370 -1.2848 -0.1666 -1.6655
 5563TIP3    H238105   1.460   0.649  12.366 -1.1410 -0.3658  2.2268
 5564TIP3   OH238106   4.053   0.191  13.814  0.2920 -0.3340 -0.5782
 5564TIP3    H138107   3.974   0.194  13.761  0.4668 -1.2121 -0.9010
 5564TIP3    H238108   4.055   0.275  13.859 -0.8687 -0.3350 -0.5028
 5565TIP3   OH238109   0.115   4.717   2.036 -0.4156  0.7661  0.3437
 5565TIP3    H138110   0.023   4.693   2.029 -0.1591 -0.6453  1.3986
 5565TIP3    H238111   0.149   4.714   1.947 -0.8677 -0.9740  0.2120
 5566TIP3   OH238112   2.995   2.415   1.184 -0.1490  0.6052  0.4359
 5566TIP3    H138113   2.926   2.463   1.138  0.6103  1.4756  0.1672
 5566TIP3    H238114   3.018   2.471   1.258  0.0835  0.1959  0.6788
 5567TIP3   OH238115   4.945   4.971   2.180 -0.2289  0.6859 -0.3583
 5567TIP3    H138116   5.029   4.954   2.223  0.2294  1.0544 -1.0873
 5567TIP3    H238117   4.953   4.927   2.094 -0.7675  0.7542 -0.4443
 5568TIP3   OH238118   3.369   5.069   2.918  0.3027 -0.3964 -0.1067
 5568TIP3    H138119   3.312   5.073   2.995  0.0556  2.2869 -0.3468
 5568TIP3    H238120   3.388   4.975   2.908 -3.6573 -1.4074  0.2426
 5569TIP3   OH238121   0.053   4.847  14.823  0.2313  0.3056 -0.3997
 5569TIP3    H138122  -0.033   4.870  14.789 -0.3236 -0.3208  0.5320
 5569TIP3    H238123   0.070   4.759  14.787 -0.4497 -0.4492  1.0302
 5570TIP3   OH238124   6.474   3.828   3.924 -0.3084  0.3698 -0.0061
 5570TIP3    H138125   6.475   3.875   3.841 -0.0281 -1.7705 -1.3077
 5570TIP3    H238126   6.395   3.859   3.969 -1.5514  0.2264 -1.9489
 5571TIP3   OH238127   2.861   2.346  13.406 -0.1942  0.7818  0.4797
 5571TIP3    H138128   2.772   2.371  13.431 -0.2067  1.8944 -0.6052
 5571TIP3    H238129   2.860   2.347  13.310  1.0937  1.2060  0.4530
 5572TIP3   OH238130   1.706   5.092   6.310  0.4410 -0.0899  0.0194
 5572TIP3    H138131   1.731   5.005   6.280 -0.4175 -1.0948  2.0312
 5572TIP3    H238132   1.768   5.112   6.379  0.0813  0.5174  0.1734
 5573TIP3   OH238133   3.565   1.475   1.914 -0.5224 -0.0070 -0.1581
 5573TIP3    H138134   3.601   1.386   1.910  1.4131  0.7501 -2.4611
 5573TIP3    H238135   3.594   1.508   1.999 -1.1780 -1.5130  0.6923
 5574TIP3   OH238136   2.929   0.143   3.109  0.1768  0.3041 -0.3758
 5574TIP3    H138137   2.919   0.056   3.147 -2.0418  1.2396  1.4117
 5574TIP3    H238138   2.861   0.148   3.041 -1.0993  1.2568  0.9020
 5575TIP3   OH238139   2.454   6.094  15.795  0.2768  0.2149  0.4549
 5575TIP3    H138140   2.451   6.118  15.888 -1.0531  2.5110 -0.1069
 5575TIP3    H238141   2.425   6.003  15.793  1.1888 -0.1659  2.3498
 5576TIP3   OH238142   3.388   3.003   3.704 -0.3147 -0.4447  0.3951
 5576TIP3    H138143   3.420   3.090   3.727 -1.0160 -0.8452  3.2093
 5576TIP3    H238144   3.452   2.970   3.640  2.8089  0.2468  2.9205
 5577TIP3   OH238145   4.887   2.003  11.702  0.2674 -0.3965  0.6117
 5577TIP3    H138146   4.959   2.011  11.764  1.0365 -0.8003 -0.2250
 5577TIP3    H238147   4.813   1.972  11.755  0.8052 -0.3737  1.3872
 5578TIP3   OH238148   2.387   0.100   2.295 -0.3474  0.2681  0.1364
 5578TIP3    H138149   2.342   0.063   2.218  0.3288 -1.5439  0.5564
 5578TIP3    H238150   2.476   0.116   2.264 -0.7448  2.0684 -0.1662
 5579TIP3   OH238151   5.351   4.107   0.173 -0.0377 -0.3522  0.2296
 5579TIP3    H138152   5.262   4.090   0.144  0.0168  1.1524 -0.9473
 5579TIP3    H238153   5.406   4.069   0.104  0.1174  1.7594 -0.9172
 5580TIP3   OH238154   2.188   0.248   3.428  0.0761  0.3614 -0.8792
 5580TIP3    H138155   2.107   0.211   3.464  0.3302  1.7728  1.2659
 5580TIP3    H238156   2.158   0.318   3.369 -0.2769  0.5723 -0.4542
 5581TIP3   OH238157   4.348   2.395  13.056  0.2926  0.3725  0.1671
 5581TIP3    H138158   4.342   2.301  13.042 -0.9733  0.3970  0.4255
 5581TIP3    H238159   4.299   2.411  13.137  0.0918  1.2999 -0.1191
 5582TIP3   OH238160   0.458   4.068   4.630  0.3836  0.2307  0.1980
 5582TIP3    H138161   0.391   4.065   4.562 -1.2101 -2.0586  1.7350
 5582TIP3    H238162   0.471   4.162   4.646 -4.0693  0.9192  1.2284
 5583TIP3   OH238163   5.400   3.821   3.721  0.3609  1.0735  0.1913
 5583TIP3    H138164   5.452   3.823   3.802  0.5652 -0.8041  0.1427
 5583TIP3    H238165   5.349   3.902   3.724  0.6025  1.2135  2.0464
 5584TIP3   OH238166   3.493   5.634  16.283  0.6740  0.0537  0.4885
 5584TIP3    H138167   3.475   5.717  16.238  1.2295 -0.7902 -1.4170
 5584TIP3    H238168   3.407   5.593  16.294  0.1597  1.6605  3.2054
 5585TIP3   OH238169   2.005   3.104  12.260 -0.4984  0.4623  0.5515
 5585TIP3    H138170   2.029   3.192  12.287  0.6812  0.1652  0.5503
 5585TIP3    H238171   1.971   3.114  12.171  1.9639  0.6717 -0.4594
 5586TIP3   OH238172   3.479   4.538   5.821  0.6181 -0.7934  0.0355
 5586TIP3    H138173   3.495   4.632   5.816  2.0279 -1.0016  0.0281
 5586TIP3    H238174   3.496   4.516   5.913  0.2610 -1.0296  0.0468
 5587TIP3   OH238175   0.735   2.459   2.068 -0.4995  0.6125  0.3007
 5587TIP3    H138176   0.649   2.468   2.111 -0.0259  1.0573  1.1820
 5587TIP3    H238177   0.714   2.434   1.978 -1.5897  1.6605  0.2398
 5588TIP3   OH238178   3.211   4.921  12.878 -0.4854  0.3060 -0.5718
 5588TIP3    H138179   3.202   4.828  12.896 -3.4150  0.3727 -1.1804
 5588TIP3    H238180   3.123   4.950  12.857 -0.2229  3.8074  2.2380
 5589TIP3   OH238181   4.081   3.803  16.775  0.0342  0.3246 -0.7205
 5589TIP3    H138182   4.154   3.829  16.718  0.5167  2.4775  0.7449
 5589TIP3    H238183   4.039   3.886  16.799 -1.7475 -0.7210  0.0144
 5590TIP3   OH238184   5.162   5.117   5.974  0.4723 -0.3849  0.2821
 5590TIP3    H138185   5.067   5.106   5.975  0.5415 -0.9704  0.7172
 5590TIP3    H238186   5.175   5.211   5.965 -0.1458 -0.3224 -0.0605
 5591TIP3   OH238187   0.554   3.881  14.227 -0.1632  0.1126  0.1425
 5591TIP3    H138188   0.525   3.972  14.227  0.2813  0.2729  1.5074
 5591TIP3    H238189   0.641   3.883  14.266  0.1918 -0.8118 -0.5520
 5592TIP3   OH238190   0.835   3.481   1.044  0.5873  0.5592  0.3413
 5592TIP3    H138191   0.885   3.403   1.021 -2.1124 -0.8962 -1.0859
 5592TIP3    H238192   0.874   3.551   0.992  0.2340 -0.8635 -1.9823
 5593TIP3   OH238193   5.082   0.141   1.901 -0.2878  0.3443  0.0922
 5593TIP3    H138194   5.128   0.168   1.980  0.4754  0.4163 -0.3530
 5593TIP3    H238195   4.994   0.177   1.909 -1.5730 -2.9462  2.7452
 5594TIP3   OH238196   3.417   5.233   4.120 -0.2401 -0.3104 -0.0263
 5594TIP3    H138197   3.404   5.265   4.030 -0.5161 -1.2416 -0.3270
 5594TIP3    H238198   3.334   5.191   4.142 -0.2061  0.0006  0.7092
 5595TIP3   OH238199   3.079   4.838  14.774 -0.1174  0.0534  0.0425
 5595TIP3    H138200   3.094   4.759  14.827 -1.5034  0.3639  0.9554
 5595TIP3    H238201   2.991   4.868  14.799  0.4513  2.0173 -0.0969
 5596TIP3   OH238202   0.109   1.807  15.837 -0.2638 -0.8534  0.4227
 5596TIP3    H138203   0.089   1.733  15.893 -1.7884 -1.4972 -0.9045
 5596TIP3    H238204   0.198   1.790  15.805 -0.4503 -1.8943  0.4467
 5597TIP3   OH238205   0.346   0.980   5.910  0.3916  0.1636  0.5185
 5597TIP3    H138206   0.300   0.971   5.827  0.4116  1.6805  0.2972
 5597TIP3    H238207   0.406   0.906   5.913  0.5146  0.1715 -0.9239
 5598TIP3   OH238208   5.203   3.081  16.883  0.2493  0.0689 -0.1307
 5598TIP3    H138209   5.273   3.118  16.829 -0.9575 -0.0027 -1.8250
 5598TIP3    H238210   5.134   3.148  16.882 -0.3177 -0.4997  0.2340
 5599TIP3   OH238211   2.989   6.226   2.289  0.5011 -0.3212  0.1589
 5599TIP3    H138212   2.975   6.135   2.314 -1.4436 -0.0192  0.3226
 5599TIP3    H238213   3.053   6.260   2.352 -1.1893 -0.7062  2.1757
 5600TIP3   OH238214   0.296   3.446   2.128 -0.0541  0.3795 -0.2854
 5600TIP3    H138215   0.220   3.391   2.149  0.2208  0.2848  0.4775
 5600TIP3    H238216   0.283   3.526   2.179  1.7674 -0.7595  2.1331
 5601TIP3   OH238217   2.356   2.274  11.324  0.5106 -0.3448 -0.2306
 5601TIP3    H138218   2.374   2.214  11.251 -1.7044  1.0857 -2.0828
 5601TIP3    H238219   2.402   2.354  11.301 -0.8497  0.3845 -0.5481
 5602TIP3   OH238220   2.750   4.058  12.821 -0.7289 -0.1989  0.1718
 5602TIP3    H138221   2.717   3.970  12.804  1.3682 -1.0633  0.2687
 5602TIP3    H238222   2.803   4.050  12.900  1.1743  0.6458 -0.9412
 5603TIP3   OH238223   4.658   4.494   0.952 -0.4251 -0.5825  0.4310
 5603TIP3    H138224   4.725   4.536   1.006 -0.5686 -0.4122  0.4754
 5603TIP3    H238225   4.581   4.491   1.008 -0.2974 -1.2882  0.5799
 5604TIP3   OH238226   1.455   5.668   3.455  0.3606 -0.3931  0.6884
 5604TIP3    H138227   1.412   5.586   3.482  0.3199 -1.1041 -1.3604
 5604TIP3    H238228   1.451   5.724   3.533 -1.5909 -1.5384  1.4821
 5605TIP3   OH238229   5.708   2.961   3.949  0.5510 -0.1938 -0.0457
 5605TIP3    H138230   5.745   3.047   3.929 -0.1751  0.1422  0.0341
 5605TIP3    H238231   5.618   2.965   3.915  0.3393 -0.7293  0.4405
 5606TIP3   OH238232   1.139   3.349   1.476  0.0182 -0.0513 -0.4693
 5606TIP3    H138233   1.126   3.325   1.384  0.6028  0.0676 -0.5912
 5606TIP3    H238234   1.053   3.375   1.508 -0.0553  0.6386 -1.1999
 5607TIP3   OH238235   2.068   4.358   1.861  0.3042  0.0610 -0.8836
 5607TIP3    H138236   2.088   4.279   1.810  0.1836  1.5512 -3.3873
 5607TIP3    H238237   1.973   4.354   1.874  0.1495  0.2773 -1.8910
 5608TIP3   OH238238   5.932   6.333   1.862  0.2115  0.7562 -0.8850
 5608TIP3    H138239   5.838   6.350   1.866  0.3000  0.9497  1.6164
 5608TIP3    H238240   5.939   6.252   1.811 -1.3269  0.5056 -0.7364
 5609TIP3   OH238241   3.169   4.712   3.652  0.2970 -0.4401  0.1464
 5609TIP3    H138242   3.170   4.672   3.566 -0.0545 -0.4698  0.1520
 5609TIP3    H238243   3.105   4.661   3.702 -0.8670  0.6780 -0.1266
 5610TIP3   OH238244   6.139   0.850  17.094 -0.2743  0.8400 -0.6003
 5610TIP3    H138245   6.153   0.944  17.099 -2.1639  1.1958 -1.2086
 5610TIP3    H238246   6.145   0.830  17.000  0.0109  0.3839 -0.4863
 5611TIP3   OH238247   1.357   3.613   6.364 -0.3470 -0.4565 -0.0652
 5611TIP3    H138248   1.412   3.678   6.319 -2.4398  0.2956 -1.6976
 5611TIP3    H238249   1.284   3.664   6.399 -0.9869 -1.6749  0.4162
 5612TIP3   OH238250   5.788   3.075   0.626 -0.0977 -0.5843 -0.0144
 5612TIP3    H138251   5.853   3.119   0.571  0.3711  0.4515  1.3025
 5612TIP3    H238252   5.759   3.000   0.574  0.0983  0.4985 -1.7813
 5613TIP3   OH238253   0.799   3.718   2.012 -0.0985  0.5155  0.0599
 5613TIP3    H138254   0.710   3.683   2.006  0.0080  0.5123 -3.3262
 5613TIP3    H238255   0.850   3.646   2.049 -0.7491 -1.3126 -2.3317
 5614TIP3   OH238256   5.940   1.193   3.094  0.1159  0.2253  0.1861
 5614TIP3    H138257   5.906   1.282   3.086 -1.4148 -0.3900 -0.6317
 5614TIP3    H238258   5.995   1.195   3.173  0.4531  1.9758 -0.0578
 5615TIP3   OH238259   2.433   2.778  11.448  1.0253  0.6963  0.0543
 5615TIP3    H138260   2.452   2.764  11.356  2.8147  0.2988  0.4419
 5615TIP3    H238261   2.427   2.689  11.485 -0.9649  0.8145  0.1225
 5616TIP3   OH238262   5.903   5.017  13.528  0.4391  0.5913  0.0062
 5616TIP3    H138263   5.934   5.091  13.581 -0.5445  0.2080  1.1417
 5616TIP3    H238264   5.962   5.017  13.452  1.1101  1.9012  0.4829
 5617TIP3   OH238265   4.696   0.269  13.189  0.4324 -0.3923 -0.0105
 5617TIP3    H138266   4.742   0.344  13.226 -1.9854  0.6896  1.0714
 5617TIP3    H238267   4.675   0.214  13.265  2.9253 -2.7198 -0.8740
 5618TIP3   OH238268   2.561   1.677  16.571  0.1678 -0.4634 -0.1175
 5618TIP3    H138269   2.604   1.651  16.652 -1.5660  0.4430  1.1596
 5618TIP3    H238270   2.591   1.767  16.555 -0.5903 -0.1217  0.3322
 5619TIP3   OH238271   3.637   1.822  16.170  0.6164  0.4409  0.2467
 5619TIP3    H138272   3.642   1.732  16.202  2.9428  1.2360  2.4947
 5619TIP3    H238273   3.586   1.868  16.237 -0.0550  0.9343 -0.5847
 5620TIP3   OH238274   1.848   3.697   0.539 -0.1570 -0.2686  0.0587
 5620TIP3    H138275   1.801   3.692   0.622 -0.5139 -0.4780 -0.1547
 5620TIP3    H238276   1.789   3.656   0.475  0.0737 -0.0285 -0.3137
 5621TIP3   OH238277   4.721   1.615   4.384  0.1729 -0.1145  0.5047
 5621TIP3    H138278   4.644   1.636   4.436  1.1768  0.2644  1.8916
 5621TIP3    H238279   4.720   1.519   4.378 -1.7651 -0.0581 -1.7170
 5622TIP3   OH238280   2.986   6.741  11.833 -0.9263  0.1292 -0.0613
 5622TIP3    H138281   3.079   6.721  11.840 -0.7431  1.0560  0.4466
 5622TIP3    H238282   2.946   6.695  11.907 -0.5586  1.2973  0.9106
 5623TIP3   OH238283   5.309   3.085  14.912 -0.1872 -0.1785  0.1125
 5623TIP3    H138284   5.286   3.025  14.841  1.7153 -0.1870 -0.5502
 5623TIP3    H238285   5.330   3.029  14.986 -1.3377 -0.1938  0.4526
 5624TIP3   OH238286   2.334   4.602   3.159 -0.0911  0.4238 -0.0532
 5624TIP3    H138287   2.255   4.606   3.105 -0.9140 -1.7667  0.8936
 5624TIP3    H238288   2.310   4.548   3.234  2.5990 -1.2228 -0.2333
 5625TIP3   OH238289   1.476   4.545  14.126  0.3810 -0.3599 -0.0541
 5625TIP3    H138290   1.418   4.622  14.121  1.7603  0.7770  0.6260
 5625TIP3    H238291   1.463   4.511  14.215 -0.5701 -1.2335 -0.5034
 5626TIP3   OH238292   6.670   2.094   0.839 -0.2195  0.4697  0.2738
 5626TIP3    H138293   6.712   2.108   0.924  1.4398 -0.2287 -0.3911
 5626TIP3    H238294   6.652   2.182   0.806  2.0236  0.8626 -0.0157
 5627TIP3   OH238295   0.324   6.767   2.984 -0.2659 -0.0574 -0.6083
 5627TIP3    H138296   0.378   6.751   2.906  2.1669 -1.8806  1.2964
 5627TIP3    H238297   0.349   6.855   3.012  0.6289 -0.2976 -0.6079
 5628TIP3   OH238298   4.584   1.269   5.812  0.9139 -0.1286 -0.1222
 5628TIP3    H138299   4.648   1.334   5.842  1.3013 -0.5539 -0.0153
 5628TIP3    H238300   4.525   1.257   5.886  0.0959  0.9998 -0.5545
 5629TIP3   OH238301   3.920   2.021   2.044 -0.5176 -0.6076  1.2039
 5629TIP3    H138302   3.907   2.100   1.991  0.6058 -0.4780  1.0853
 5629TIP3    H238303   4.012   2.027   2.072  0.4022 -3.1110 -0.8734
 5630TIP3   OH238304   4.359   3.957   0.388 -0.4067 -0.1454  0.1113
 5630TIP3    H138305   4.282   4.006   0.417  0.3611  0.2313  1.5813
 5630TIP3    H238306   4.323   3.891   0.328 -1.8741 -0.0230  0.7964
 5631TIP3   OH238307   5.837   0.025  12.640 -0.3300 -0.6236 -0.3052
 5631TIP3    H138308   5.800   0.035  12.728  0.1916 -3.1534  0.2815
 5631TIP3    H238309   5.931   0.038  12.651 -0.4259  0.8209 -0.8775
 5632TIP3   OH238310   6.566   2.833  12.789  0.0499  0.2857 -0.0674
 5632TIP3    H138311   6.590   2.923  12.811  1.9198  0.3085 -1.8520
 5632TIP3    H238312   6.546   2.836  12.695  0.1325 -1.1517 -0.1575
 5633TIP3   OH238313   0.972   3.689  11.752  0.3061 -0.2028  0.0208
 5633TIP3    H138314   0.945   3.724  11.837  1.3427  0.1107  0.2348
 5633TIP3    H238315   0.895   3.642  11.720 -0.0002 -0.5761  1.2649
 5634TIP3   OH238316   3.762   3.239  12.944 -0.2766  0.5149 -0.3543
 5634TIP3    H138317   3.766   3.287  13.027  0.4017  1.3037 -0.8185
 5634TIP3    H238318   3.792   3.303  12.879 -0.4370 -0.2090 -1.1500
 5635TIP3   OH238319   6.647   4.660   5.424 -0.2166 -0.3756 -0.5492
 5635TIP3    H138320   6.553   4.646   5.431  0.0098 -1.4216  1.0932
 5635TIP3    H238321   6.676   4.674   5.515  1.5958 -3.1745 -0.5691
 5636TIP3   OH238322   0.236   3.199   3.568 -0.5662 -0.2627 -0.0248
 5636TIP3    H138323   0.264   3.109   3.553  0.3248  0.2755 -1.9442
 5636TIP3    H238324   0.296   3.231   3.635  1.0286 -0.3027 -1.3467
 5637TIP3   OH238325   6.618   5.082  13.002 -0.5497  0.7794  0.4250
 5637TIP3    H138326   6.645   5.149  12.939 -1.3435  0.3080 -0.4396
 5637TIP3    H238327   6.572   5.017  12.949 -0.6507  0.0391  1.4024
 5638TIP3   OH238328   0.515   4.720  12.200  0.1498  0.3925  0.1387
 5638TIP3    H138329   0.420   4.734  12.200  0.4857  3.0719 -0.0987
 5638TIP3    H238330   0.527   4.646  12.259 -2.0249  0.4465  0.7666
 5639TIP3   OH238331   2.215   6.181   4.902  0.5191 -0.4389 -0.0158
 5639TIP3    H138332   2.165   6.119   4.848  0.9711 -0.2063 -0.7264
 5639TIP3    H238333   2.196   6.156   4.992 -1.6903  0.2651 -0.2235
 5640TIP3   OH238334   0.865   3.559  17.156  0.3996  0.1835 -0.0729
 5640TIP3    H138335   0.847   3.604  17.238  0.9229  1.5804 -0.6925
 5640TIP3    H238336   0.779   3.529  17.126  0.2093 -0.4007  0.9846
 5641TIP3   OH238337   6.355   5.203  14.989 -0.1005  0.3611 -0.1131
 5641TIP3    H138338   6.388   5.278  15.038  0.5335  0.2036 -0.2847
 5641TIP3    H238339   6.272   5.180  15.031 -0.6352  1.5708 -0.4763
 5642TIP3   OH238340   3.871   5.036  14.312 -0.8045 -0.2496  0.4592
 5642TIP3    H138341   3.892   4.999  14.227  1.4688  0.4516  0.6420
 5642TIP3    H238342   3.812   5.109  14.293  0.0309  0.1773 -0.5862
 5643TIP3   OH238343   0.087   1.975  11.000 -0.2602 -0.6976  0.1619
 5643TIP3    H138344   0.061   1.989  10.908 -0.0728 -0.7485  0.1000
 5643TIP3    H238345   0.024   2.026  11.050 -0.2683 -0.5399 -0.0046
 5644TIP3   OH238346   0.337   6.355  13.161 -0.2840 -0.0246 -0.4170
 5644TIP3    H138347   0.287   6.303  13.097 -1.0253  0.8763 -0.5927
 5644TIP3    H238348   0.400   6.404  13.108  0.5593 -0.8810 -0.2300
 5645TIP3   OH238349   2.267   5.817  13.582  0.3869  0.0508  0.6184
 5645TIP3    H138350   2.335   5.824  13.650 -0.2559  2.0505  1.1152
 5645TIP3    H238351   2.230   5.905  13.576 -1.8667 -0.8696  0.0352
 5646TIP3   OH238352   3.594   3.420  12.666 -0.4079  0.5436 -0.2665
 5646TIP3    H138353   3.687   3.416  12.647 -0.2947  0.5746  0.2751
 5646TIP3    H238354   3.572   3.513  12.666 -0.2378  0.5904  0.5462
 5647TIP3   OH238355   2.720   4.060   3.069  0.2980 -0.6641 -0.0701
 5647TIP3    H138356   2.688   4.062   3.159 -0.2983  0.8221 -0.2901
 5647TIP3    H238357   2.785   3.989   3.068 -0.7319 -1.6752  1.1564
 5648TIP3   OH238358   3.658   1.918  12.920 -0.3150 -0.3027  0.0466
 5648TIP3    H138359   3.701   1.833  12.932 -0.0870  0.0695  2.2351
 5648TIP3    H238360   3.574   1.896  12.879  0.6170 -1.3451 -1.3769
 5649TIP3   OH238361   0.057   2.906  12.625 -0.0621 -0.4377 -0.0712
 5649TIP3    H138362   0.099   2.859  12.697 -1.4073 -0.7317  0.5353
 5649TIP3    H238363   0.130   2.950  12.580  0.6783  0.8982  2.2723
 5650TIP3   OH238364   1.956   4.799   5.834  0.0233  0.5892  0.1791
 5650TIP3    H138365   1.896   4.871   5.856 -1.6465 -0.7030  0.0715
 5650TIP3    H238366   1.908   4.720   5.858  0.5950 -0.6336 -2.3949
 5651TIP3   OH238367   5.278   5.119   3.036  0.5305 -0.2263 -0.5480
 5651TIP3    H138368   5.348   5.154   3.091  0.5780 -0.5898 -0.3730
 5651TIP3    H238369   5.318   5.045   2.991 -0.1381 -1.3367  0.6430
 5652TIP3   OH238370   6.001   1.135  16.669 -0.0593 -0.5598  0.6545
 5652TIP3    H138371   6.009   1.122  16.575 -0.6922  1.2992  0.2850
 5652TIP3    H238372   5.907   1.130  16.686 -0.0110 -0.2061  1.0613
 5653TIP3   OH238373   5.328   5.782  15.412 -0.3475  0.2993  0.4899
 5653TIP3    H138374   5.315   5.750  15.323 -0.7109 -0.5987  0.8618
 5653TIP3    H238375   5.376   5.713  15.456 -0.5568  0.5519  1.1202
 5654TIP3   OH238376   5.986   3.217  16.121  0.3130 -0.0542 -0.2005
 5654TIP3    H138377   5.989   3.218  16.026  0.7486  1.7182 -0.1965
 5654TIP3    H238378   6.013   3.305  16.147  1.2647 -0.8371  1.5932
 5655TIP3   OH238379   3.054   0.969  14.602  0.1356  0.3097 -0.1666
 5655TIP3    H138380   3.105   1.018  14.667  0.4237  0.0488 -0.1989
 5655TIP3    H238381   3.111   0.962  14.526  0.1258 -0.1569 -0.1303
 5656TIP3   OH238382   1.218   0.887  15.301 -0.0443  0.3336 -0.4114
 5656TIP3    H138383   1.163   0.900  15.224 -1.1527  1.1475  0.4928
 5656TIP3    H238384   1.157   0.886  15.375  0.9870 -0.5017  0.4619
 5657TIP3   OH238385   5.187   4.151   3.916 -0.0501 -0.0331 -0.0359
 5657TIP3    H138386   5.173   4.088   3.845  0.1898 -1.9919  1.5736
 5657TIP3    H238387   5.106   4.203   3.918 -0.8922 -1.2778 -0.4842
 5658TIP3   OH238388   3.688   4.569   3.314 -0.1301  0.5650 -0.3429
 5658TIP3    H138389   3.768   4.565   3.262 -0.5606  0.2370 -0.9982
 5658TIP3    H238390   3.661   4.661   3.309  0.7674  0.9090  0.7696
 5659TIP3   OH238391   4.880   4.891   2.903 -0.6077 -0.4340  0.0349
 5659TIP3    H138392   4.933   4.907   2.980  0.4127 -1.4620 -0.4106
 5659TIP3    H238393   4.846   4.976   2.878  0.0987  0.1078  0.8777
 5660TIP3   OH238394   0.892   5.787  16.228  0.6491 -0.2896 -0.6246
 5660TIP3    H138395   0.953   5.729  16.183 -1.1683 -1.4757 -1.6986
 5660TIP3    H238396   0.854   5.733  16.298  0.3459  0.2101 -0.3935
 5661TIP3   OH238397   5.255   5.310  13.587 -0.7720  0.0123  0.1408
 5661TIP3    H138398   5.266   5.243  13.654  0.2258  0.9249  0.9242
 5661TIP3    H238399   5.323   5.374  13.606 -1.8993  1.4114 -0.4000
 5662TIP3   OH238400   6.571   6.309  16.199 -0.1394 -0.0230 -0.4809
 5662TIP3    H138401   6.604   6.324  16.111 -2.3848  0.2991 -1.3237
 5662TIP3    H238402   6.612   6.226  16.226  0.4285 -0.2230 -1.8836
 5663TIP3   OH238403   6.407   2.941  14.592  0.0942 -0.3072  0.7043
 5663TIP3    H138404   6.465   2.954  14.667  1.1232 -0.8869  0.0295
 5663TIP3    H238405   6.465   2.914  14.521 -0.5063  2.2788 -0.9244
 5664TIP3   OH238406   0.677   2.329   4.163 -0.5197  0.2710 -0.0888
 5664TIP3    H138407   0.657   2.375   4.245 -0.0899  1.7674 -0.7935
 5664TIP3    H238408   0.631   2.380   4.096 -0.4852 -0.6650 -0.8352
 5665TIP3   OH238409   0.489   0.673   0.407 -0.2012 -0.3070 -0.5883
 5665TIP3    H138410   0.528   0.605   0.463  0.8493 -0.3175 -1.2982
 5665TIP3    H238411   0.418   0.709   0.459 -0.0074 -1.1341  0.2821
 5666TIP3   OH238412   6.699   5.676   1.097  0.1144  0.6337  0.2220
 5666TIP3    H138413   6.781   5.701   1.139  1.1101 -1.1534 -0.5705
 5666TIP3    H238414   6.721   5.601   1.041 -1.4369  1.8925 -2.3049
 5667TIP3   OH238415   3.699   4.917  14.518 -0.3115  0.2544  0.2016
 5667TIP3    H138416   3.746   4.911  14.435  0.5891 -1.2697  0.7887
 5667TIP3    H238417   3.741   4.990  14.563 -1.0631  1.3487 -0.7983
 5668TIP3   OH238418   0.615   5.664  14.737  0.2633 -0.2147  0.6283
 5668TIP3    H138419   0.645   5.753  14.753  1.3370 -0.5803  0.7310
 5668TIP3    H238420   0.695   5.611  14.735 -0.2978 -1.0821 -0.0636
 5669TIP3   OH238421   1.621   3.173   4.560 -0.3175 -0.1943 -0.3651
 5669TIP3    H138422   1.653   3.089   4.528 -0.4642 -0.2700 -0.3182
 5669TIP3    H238423   1.644   3.236   4.491  0.2134 -0.1915 -0.1841
 5670TIP3   OH238424   6.039   6.318  11.105 -0.0180  0.6798 -0.4247
 5670TIP3    H138425   6.058   6.286  11.193  1.4022 -1.5877 -1.4548
 5670TIP3    H238426   6.002   6.242  11.060  0.5719  1.3790 -2.1711
 5671TIP3   OH238427   6.064   1.194  13.667 -0.4274 -0.4862 -0.2252
 5671TIP3    H138428   6.096   1.137  13.737 -0.4721 -2.5639 -1.7974
 5671TIP3    H238429   6.143   1.223  13.622 -0.4739 -2.5107 -1.7584
 5672TIP3   OH238430   1.075   0.305   5.174  0.3328 -0.0731  0.0677
 5672TIP3    H138431   1.069   0.344   5.086 -1.4317  1.3202  0.7316
 5672TIP3    H238432   1.034   0.219   5.165 -0.2379  0.2385 -0.4039
 5673TIP3   OH238433   4.041   6.614   4.747 -0.4569 -0.3013 -0.1315
 5673TIP3    H138434   4.051   6.700   4.706 -1.2632  0.6772  1.6418
 5673TIP3    H238435   4.082   6.623   4.833 -0.9501 -1.5592  0.2618
 5674TIP3   OH238436   4.384   5.316  13.776 -0.3725 -0.0982 -0.0306
 5674TIP3    H138437   4.446   5.362  13.719 -1.0714 -0.1959 -0.8978
 5674TIP3    H238438   4.302   5.365  13.764 -0.2941  0.5202  1.7052
 5675TIP3   OH238439   2.570   3.395   0.049  0.3984  0.1909  0.4747
 5675TIP3    H138440   2.526   3.461   0.102 -0.5435  0.6461 -0.8154
 5675TIP3    H238441   2.612   3.444  -0.022  0.6975 -0.4896  0.1598
 5676TIP3   OH238442   2.315   3.150   0.709 -0.3377  0.2350  0.0434
 5676TIP3    H138443   2.253   3.213   0.747 -0.1425  0.1931  0.4300
 5676TIP3    H238444   2.388   3.204   0.679 -0.7851  0.3483 -0.8998
 5677TIP3   OH238445   3.901   1.878   3.739 -1.0737  0.0131  0.0380
 5677TIP3    H138446   3.959   1.939   3.785 -1.9115  2.2756 -1.7334
 5677TIP3    H238447   3.959   1.810   3.705  0.2500  1.0859  0.0982
 5678TIP3   OH238448   4.520   5.418  12.262  0.1576 -0.3365  0.2530
 5678TIP3    H138449   4.589   5.447  12.202  0.1958 -0.0870  0.4187
 5678TIP3    H238450   4.516   5.323  12.249  0.0451 -0.2636 -0.2727
 5679TIP3   OH238451   6.761   0.875   5.436 -0.6229 -0.6026 -0.4949
 5679TIP3    H138452   6.693   0.815   5.404 -1.7767  0.0088  0.6731
 5679TIP3    H238453   6.843   0.830   5.418 -1.3058 -1.2221 -2.2828
 5680TIP3   OH238454   1.198   1.657  16.335 -0.1886  0.0721 -0.5537
 5680TIP3    H138455   1.254   1.619  16.403  1.1694  0.0907 -1.6045
 5680TIP3    H238456   1.226   1.749  16.329 -0.5990  0.1831 -0.8357
 5681TIP3   OH238457   2.068   1.182   2.352  0.3815  0.2178 -0.2831
 5681TIP3    H138458   2.037   1.206   2.440 -1.2337 -0.5011 -0.6044
 5681TIP3    H238459   2.137   1.118   2.367  0.9572  0.9980  0.4752
 5682TIP3   OH238460   2.967   1.618   4.626  0.0656  0.2263 -0.1587
 5682TIP3    H138461   2.997   1.702   4.662  1.4012 -0.3502  0.0883
 5682TIP3    H238462   2.974   1.557   4.698  1.0232 -0.5400 -0.8746
 5683TIP3   OH238463   0.869   2.946  15.651  0.3488 -0.1846  0.5911
 5683TIP3    H138464   0.850   3.038  15.632 -1.3300 -0.3111  1.4375
 5683TIP3    H238465   0.958   2.947  15.687 -0.0023  1.2551  1.5096
 5684TIP3   OH238466   0.708   0.143  11.810 -0.0034  0.1802 -0.5409
 5684TIP3    H138467   0.734   0.101  11.728 -0.6891  0.2834 -0.8162
 5684TIP3    H238468   0.674   0.071  11.863 -3.4195  0.5903 -1.8822
 5685TIP3   OH238469   6.012   5.752   5.145 -0.4834  0.2804  0.4149
 5685TIP3    H138470   6.030   5.827   5.202  1.1676  1.2187 -1.2468
 5685TIP3    H238471   5.943   5.783   5.086 -0.0815  0.3649 -0.0153
 5686TIP3   OH238472   5.305   6.670  17.058  0.1046  0.5786  0.1111
 5686TIP3    H138473   5.312   6.623  17.141  1.0821  1.3422  0.4736
 5686TIP3    H238474   5.375   6.634  17.003 -2.7142 -2.5550 -1.7857
 5687TIP3   OH238475   1.503   2.744  15.564 -0.2890 -0.0424  0.3599
 5687TIP3    H138476   1.463   2.658  15.579 -0.1022  0.0383  1.3846
 5687TIP3    H238477   1.523   2.777  15.652  4.4575 -1.2086  0.0420
 5688TIP3   OH238478   2.282   0.231   2.728 -0.6776 -0.4890  0.2346
 5688TIP3    H138479   2.266   0.320   2.757 -0.2547 -0.8935  1.7917
 5688TIP3    H238480   2.250   0.175   2.799 -0.2507 -1.5524 -0.3729
 5689TIP3   OH238481   0.232   3.235   1.518  0.0717 -0.2481 -0.4183
 5689TIP3    H138482   0.161   3.198   1.465 -2.0333  2.7055  0.1125
 5689TIP3    H238483   0.268   3.305   1.464  2.9637 -1.8589 -0.8014
 5690TIP3   OH238484   6.527   3.935  11.635 -0.0171 -0.1692  0.1193
 5690TIP3    H138485   6.491   3.960  11.550  1.1168  0.3494 -0.2223
 5690TIP3    H238486   6.620   3.922  11.619  0.5156  1.5245  1.5941
 5691TIP3   OH238487   2.958   2.939  17.155  0.1353 -0.5145 -0.7812
 5691TIP3    H138488   3.043   2.934  17.112  0.3805 -0.5139 -0.2929
 5691TIP3    H238489   2.930   2.847  17.162  1.1629 -0.7376  1.1774
 5692TIP3   OH238490   2.156   0.735  13.782  0.0565 -0.1599 -0.0145
 5692TIP3    H138491   2.173   0.812  13.729 -0.2328  0.5737  0.9324
 5692TIP3    H238492   2.238   0.719  13.830  0.4435 -1.0476 -0.9391
 5693TIP3   OH238493   5.700   5.601  12.363 -0.2803  0.0738  0.4155
 5693TIP3    H138494   5.641   5.529  12.384 -0.5829 -0.2071 -1.2196
 5693TIP3    H238495   5.645   5.680  12.371 -0.4497 -0.0451  0.4377
 5694TIP3   OH238496   0.691   3.080   5.157 -0.1098 -0.6508 -0.2223
 5694TIP3    H138497   0.716   3.017   5.225  1.0390 -1.3608 -1.2610
 5694TIP3    H238498   0.600   3.058   5.137 -0.7720  0.1573  1.6899
 5695TIP3   OH238499   3.623   2.832  15.655  0.4234  0.2059 -0.4488
 5695TIP3    H138500   3.640   2.908  15.712  0.3931  0.9849 -1.4561
 5695TIP3    H238501   3.638   2.756  15.712  1.2178  0.9490  0.3693
 5696TIP3   OH238502   3.439   6.496  14.064  0.2633 -0.1190 -0.0692
 5696TIP3    H138503   3.470   6.556  14.131 -0.0370  0.3864 -0.3733
 5696TIP3    H238504   3.518   6.468  14.018  0.3913  0.2016 -0.0500
 5697TIP3   OH238505   1.079   2.111  12.034  0.3158 -0.1164  0.2032
 5697TIP3    H138506   1.067   2.167  12.111  0.3424 -0.9197  0.7944
 5697TIP3    H238507   1.174   2.108  12.021  0.5973 -2.5616  2.1092
 5698TIP3   OH238508   4.975   2.246   2.308  1.0286 -0.6801  0.8051
 5698TIP3    H138509   5.021   2.329   2.292  1.0613 -0.6960  0.8163
 5698TIP3    H238510   4.997   2.224   2.399  0.6234 -0.4511  0.9620
 5699TIP3   OH238511   2.439   1.660  14.745 -0.3500 -0.1629 -0.2875
 5699TIP3    H138512   2.504   1.724  14.773 -1.5209  1.1717 -0.4801
 5699TIP3    H238513   2.450   1.587  14.805  0.5335  0.5372  0.4328
 5700TIP3   OH238514   1.017   3.597   1.264 -0.1089  0.2610 -0.0068
 5700TIP3    H138515   0.930   3.559   1.255 -0.3889  1.2110 -1.8419
 5700TIP3    H238516   1.034   3.596   1.358 -2.0733 -0.0128  0.3942
 5701TIP3   OH238517   2.824   6.440   0.845  0.1834  0.0578 -0.3761
 5701TIP3    H138518   2.827   6.415   0.937 -1.9159  4.1960  1.0793
 5701TIP3    H238519   2.759   6.382   0.806 -0.1444 -0.6736  1.1801
 5702TIP3   OH238520   0.173   4.497   4.814 -0.0950 -0.7190  0.4559
 5702TIP3    H138521   0.228   4.574   4.819 -1.0493 -0.0408  0.7167
 5702TIP3    H238522   0.150   4.490   4.721 -0.1248 -0.6112  0.4555
 5703TIP3   OH238523   1.927   2.543   3.480 -0.0816  0.2076  0.1896
 5703TIP3    H138524   2.014   2.504   3.476 -0.0301  0.3714 -0.5260
 5703TIP3    H238525   1.906   2.562   3.388 -2.2201 -2.8345 -0.1191
 5704TIP3   OH238526   2.938   6.644   5.351  0.2373  0.2740 -0.1644
 5704TIP3    H138527   2.896   6.613   5.432  0.0547  0.3749 -0.2211
 5704TIP3    H238528   2.866   6.677   5.298  0.2671 -0.4299 -0.6578
 5705TIP3   OH238529   3.099   5.567   0.319  0.7076 -0.4298 -0.0076
 5705TIP3    H138530   3.160   5.525   0.379  0.9011 -1.3153 -0.8077
 5705TIP3    H238531   3.143   5.648   0.293  1.1896 -0.6740  0.0460
 5706TIP3   OH238532   6.146   5.318   0.171  0.4424 -0.6178  0.3097
 5706TIP3    H138533   6.097   5.395   0.143  0.8303  0.0018  1.2765
 5706TIP3    H238534   6.177   5.279   0.090  0.9225  0.7144 -0.1847
 5707TIP3   OH238535   0.823   2.197  15.391 -0.2519  0.4498  0.3443
 5707TIP3    H138536   0.827   2.292  15.390  0.0574  0.4340 -0.0065
 5707TIP3    H238537   0.847   2.171  15.302  0.7026  0.0053  0.7222
 5708TIP3   OH238538   0.426   6.394  13.591  0.3567  0.2349 -0.3234
 5708TIP3    H138539   0.385   6.369  13.674  3.0712  0.0731  1.0771
 5708TIP3    H238540   0.402   6.324  13.530  0.0926 -0.8230  0.9418
 5709TIP3   OH238541   0.426   5.918  14.887  0.2313  0.5961 -0.2852
 5709TIP3    H138542   0.516   5.890  14.869  0.4152  1.6743 -1.1616
 5709TIP3    H238543   0.424   5.933  14.982  1.2314  1.3677 -0.3653
 5710TIP3   OH238544   3.300   2.909  12.789 -0.0645  0.2114  0.6307
 5710TIP3    H138545   3.289   2.916  12.884  1.4763  0.7924  0.7856
 5710TIP3    H238546   3.393   2.926  12.774 -0.4289  0.8934 -1.0616
 5711TIP3   OH238547   1.955   1.885   2.588 -0.3896 -0.0310 -1.0777
 5711TIP3    H138548   1.954   1.939   2.667 -1.7767  1.3713 -1.9805
 5711TIP3    H238549   2.041   1.900   2.549 -0.7402  1.5569 -1.2928
 5712TIP3   OH238550   0.319   5.102   1.629  0.3353  0.0618 -0.2326
 5712TIP3    H138551   0.323   5.187   1.585  0.7422  0.6688  0.9256
 5712TIP3    H238552   0.367   5.042   1.571  1.2952  0.9451 -0.3876
 5713TIP3   OH238553   4.746   5.702   1.206 -0.1005 -0.3700 -0.0618
 5713TIP3    H138554   4.787   5.649   1.275 -0.7030 -0.3368  0.3266
 5713TIP3    H238555   4.818   5.755   1.171  0.2081 -0.3528  0.5731
 5714TIP3   OH238556   0.851   2.507   4.538 -0.1434 -0.1697 -0.1858
 5714TIP3    H138557   0.760   2.482   4.523 -0.2443 -1.1596  1.7086
 5714TIP3    H238558   0.860   2.508   4.634  1.4472  1.4033 -0.2992
 5715TIP3   OH238559   5.027   4.073  14.945  0.2887  0.6546  0.1721
 5715TIP3    H138560   4.968   4.114  14.882  0.4123  0.6591  0.0580
 5715TIP3    H238561   5.080   4.145  14.978  1.1851  0.4531 -0.7653
 5716TIP3   OH238562   0.154   2.505   4.045  0.4519  0.6247  0.4809
 5716TIP3    H138563   0.203   2.584   4.068  0.7091  0.2765  1.1472
 5716TIP3    H238564   0.062   2.531   4.050  0.5261  0.7692  1.1237
 5717TIP3   OH238565   4.224   5.235   6.244 -0.0274 -0.0835 -0.2125
 5717TIP3    H138566   4.199   5.256   6.333  0.4918 -1.2621  0.2349
 5717TIP3    H238567   4.313   5.269   6.235  0.8216 -1.9425  0.5188
 5718TIP3   OH238568   0.735   1.557   4.471  0.0194  0.3215 -0.1374
 5718TIP3    H138569   0.818   1.531   4.512  0.0445 -2.2573 -1.6631
 5718TIP3    H238570   0.754   1.560   4.377 -2.1488 -3.1284 -0.8537
 5719TIP3   OH238571   2.102   6.554  14.952  0.2995 -0.0555 -0.1143
 5719TIP3    H138572   2.076   6.496  14.880 -0.2136 -0.1848  0.1646
 5719TIP3    H238573   2.134   6.495  15.020 -2.7633 -0.3414  1.2711
 5720TIP3   OH238574   5.908   1.082  12.474 -0.5641 -0.0863  0.1712
 5720TIP3    H138575   5.868   1.003  12.438  1.2064 -0.4126 -1.2199
 5720TIP3    H238576   5.995   1.053  12.503  1.1059  1.7473 -2.5954
 5721TIP3   OH238577   1.239   5.986  16.407  0.5148 -0.0593  0.0193
 5721TIP3    H138578   1.269   6.064  16.454 -1.3386  0.3635  0.5786
 5721TIP3    H238579   1.319   5.938  16.388  1.5446  0.9913  1.4385
 5722TIP3   OH238580   3.168   3.269   2.779 -0.1364 -0.3810  0.1169
 5722TIP3    H138581   3.106   3.264   2.706 -0.1854 -1.2395  0.2028
 5722TIP3    H238582   3.214   3.185   2.777 -0.2358 -0.4681  1.1592
 5723TIP3   OH238583   6.001   3.558   2.069  0.2125  0.1283 -0.5482
 5723TIP3    H138584   5.947   3.479   2.065  0.3962 -0.0075 -0.3458
 5723TIP3    H238585   6.010   3.585   1.978 -0.2376  0.1806 -0.5828
 5724TIP3   OH238586   4.879   4.638   5.099 -0.0202 -0.1022 -0.2241
 5724TIP3    H138587   4.874   4.730   5.074  0.0830  1.0195  3.3038
 5724TIP3    H238588   4.972   4.623   5.115 -0.1319 -0.5932 -0.0209
 5725TIP3   OH238589   3.063   1.607  10.738 -0.2023 -0.3991  0.1294
 5725TIP3    H138590   3.041   1.536  10.678  1.2487 -0.1257 -0.7828
 5725TIP3    H238591   3.138   1.574  10.788 -0.0154  0.2076  0.2549
 5726TIP3   OH238592   6.604   5.683  17.208 -0.8185  0.6697  0.0940
 5726TIP3    H138593   6.652   5.601  17.219 -0.3655  0.7716 -0.9508
 5726TIP3    H238594   6.651   5.729  17.138 -1.1888  1.7277  0.5149
 5727TIP3   OH238595   0.731   6.767   0.114 -0.2307  0.0760 -0.5513
 5727TIP3    H138596   0.655   6.712   0.129 -0.9355  0.7856 -1.3867
 5727TIP3    H238597   0.794   6.710   0.071 -0.8761 -0.1389 -1.2401
 5728TIP3   OH238598   2.238   1.345   2.540 -0.1096 -0.1148  0.9028
 5728TIP3    H138599   2.272   1.306   2.459  1.7759  1.3798  0.8852
 5728TIP3    H238600   2.154   1.382   2.515  0.0763 -0.3889 -0.1818
 5729TIP3   OH238601   6.406   4.049   0.272 -0.1079 -0.2140  0.1577
 5729TIP3    H138602   6.385   3.973   0.219 -2.3564 -0.9833  1.9953
 5729TIP3    H238603   6.321   4.088   0.293  0.9092  2.0377  0.3978
 5730TIP3   OH238604   1.287   2.318  16.557 -0.0020 -0.2799  0.0417
 5730TIP3    H138605   1.194   2.333  16.542  0.2536  1.7557  0.2642
 5730TIP3    H238606   1.291   2.233  16.601 -1.7619 -0.3023  0.2070
 5731TIP3   OH238607   3.988   3.812  13.784 -0.0566 -0.5224  0.0950
 5731TIP3    H138608   4.031   3.778  13.862 -0.3526 -1.1530 -0.0148
 5731TIP3    H238609   3.942   3.890  13.815  1.9311  0.7516  0.0291
 5732TIP3   OH238610   5.842   0.552  17.066  0.4215 -0.1594  0.4798
 5732TIP3    H138611   5.821   0.642  17.094  0.3736 -0.5832  1.9165
 5732TIP3    H238612   5.931   0.538  17.096  0.6462 -0.4028 -0.2822
 5733TIP3   OH238613   5.993   4.337   0.329  0.3483  0.2249  0.0659
 5733TIP3    H138614   5.899   4.316   0.332 -0.1580  1.2920 -3.1576
 5733TIP3    H238615   5.997   4.429   0.355  0.6008  0.0009  0.8231
 5734TIP3   OH238616   3.732   3.644  16.162  0.2787  0.5028  0.3804
 5734TIP3    H138617   3.773   3.559  16.150  1.3307  1.0457 -0.0699
 5734TIP3    H238618   3.779   3.702  16.101 -1.1883  1.1594 -0.1654
 5735TIP3   OH238619   3.972   1.341  15.436  0.7864  0.0614  0.0528
 5735TIP3    H138620   3.940   1.430  15.427 -0.8720 -0.0641  3.4299
 5735TIP3    H238621   3.925   1.291  15.369 -2.9195  0.7232  1.9439
 5736TIP3   OH238622   6.212   5.208   0.463  0.2922 -0.2188  0.6864
 5736TIP3    H138623   6.224   5.263   0.385 -0.2015  1.3257  1.6545
 5736TIP3    H238624   6.121   5.179   0.457 -0.2821  1.2795  1.4853
 5737TIP3   OH238625   6.607   2.338   0.720 -0.1750  0.3029  0.7980
 5737TIP3    H138626   6.634   2.382   0.640  0.7099 -4.5777 -2.0441
 5737TIP3    H238627   6.626   2.400   0.790  2.1538  3.6951 -2.4553
 5738TIP3   OH238628   0.057   2.253  15.266  0.3710  0.5919  0.3811
 5738TIP3    H138629   0.150   2.264  15.284  0.3797  0.9337  0.1353
 5738TIP3    H238630   0.047   2.277  15.174  0.1835 -0.3075  0.1639
 5739TIP3   OH238631   0.007   6.393  10.727 -0.3694  0.1035  0.5087
 5739TIP3    H138632   0.094   6.364  10.699  0.0808  1.6579  0.2198
 5739TIP3    H238633   0.011   6.390  10.823 -0.0745 -0.0291  0.4943
 5740TIP3   OH238634   6.068   4.407   5.847 -0.2365 -0.2691  0.3100
 5740TIP3    H138635   5.973   4.398   5.860 -0.1113 -1.1145  0.6944
 5740TIP3    H238636   6.076   4.466   5.772 -1.0833 -0.8256 -0.2418
 5741TIP3   OH238637   1.474   4.367   3.032  0.5223  0.1127 -0.2985
 5741TIP3    H138638   1.475   4.371   2.937 -0.5428  1.3903 -0.2735
 5741TIP3    H238639   1.555   4.408   3.059  0.9029 -0.3955 -0.6417
 5742TIP3   OH238640   6.692   0.819   3.821 -0.4146 -0.0464  0.3926
 5742TIP3    H138641   6.747   0.838   3.745 -0.6420  0.3407  0.3248
 5742TIP3    H238642   6.635   0.895   3.829 -0.1751  0.0665  1.1427
 5743TIP3   OH238643   6.482   1.951  15.008 -0.7523 -0.0734 -0.2505
 5743TIP3    H138644   6.538   1.889  15.056 -1.2736 -1.0312 -0.8641
 5743TIP3    H238645   6.499   2.035  15.051  1.7108 -0.1648 -0.8501
 5744TIP3   OH238646   2.472   0.238  12.606 -0.0041 -0.1002 -0.1377
 5744TIP3    H138647   2.431   0.284  12.534  2.0169  0.1971 -1.1782
 5744TIP3    H238648   2.464   0.145  12.584 -2.3926 -0.2448  1.0185
 5745TIP3   OH238649   4.207   1.761  13.234 -0.2958  0.2577  0.0224
 5745TIP3    H138650   4.180   1.789  13.146  0.3765 -1.1002 -0.6335
 5745TIP3    H238651   4.141   1.800  13.292 -0.6291  1.3548 -1.0442
 5746TIP3   OH238652   0.383   4.865   3.796 -0.3124  0.0551 -0.0346
 5746TIP3    H138653   0.413   4.905   3.715  0.2907 -1.1771 -0.4433
 5746TIP3    H238654   0.313   4.806   3.769  0.4119 -0.9475  0.2128
 5747TIP3   OH238655   2.400   5.460   5.410  0.1470  0.1769  0.0435
 5747TIP3    H138656   2.464   5.475   5.340  1.9494 -1.7102  1.1868
 5747TIP3    H238657   2.424   5.523   5.478  1.2672 -0.9693  0.7413
 5748TIP3   OH238658   4.745   2.556  11.649 -0.1352  0.0450  0.4511
 5748TIP3    H138659   4.710   2.474  11.685  1.0486 -0.3042  0.8504
 5748TIP3    H238660   4.840   2.545  11.653  0.0535  0.5573 -1.5254
 5749TIP3   OH238661   2.540   2.993  12.224  0.1365  0.5302  0.0083
 5749TIP3    H138662   2.447   2.973  12.229 -0.6101  3.3387 -0.5484
 5749TIP3    H238663   2.584   2.909  12.233 -2.4122 -0.7857  1.1228
 5750TIP3   OH238664   4.532   5.757   2.918  0.2731  0.6508  0.1166
 5750TIP3    H138665   4.575   5.728   2.838  0.3568  1.9047 -0.3137
 5750TIP3    H238666   4.498   5.677   2.958 -0.1139  0.0503 -1.3661
 5751TIP3   OH238667   5.882   4.146  16.432 -0.1322 -1.1610  0.2343
 5751TIP3    H138668   5.793   4.174  16.410  0.5954 -0.5545 -2.2255
 5751TIP3    H238669   5.877   4.050  16.434 -0.8311 -1.1292  0.1074
 5752TIP3   OH238670   5.440   2.977   3.868 -0.1404  0.3035  0.1039
 5752TIP3    H138671   5.413   3.061   3.833 -1.1891 -0.9510 -2.3501
 5752TIP3    H238672   5.371   2.916   3.840  2.5784 -2.1238 -1.9855
 5753TIP3   OH238673   4.244   5.072   1.924  0.2814 -0.1488  0.0356
 5753TIP3    H138674   4.266   5.143   1.985  0.7402 -0.3634  0.1181
 5753TIP3    H238675   4.226   5.117   1.842 -0.8666  0.1917  0.4518
 5754TIP3   OH238676   5.016   6.127  14.941 -0.0622  0.3432 -0.2110
 5754TIP3    H138677   5.012   6.104  15.034 -1.3139  0.0152 -0.3182
 5754TIP3    H238678   5.030   6.221  14.940 -0.5497  0.4311  0.3316
 5755TIP3   OH238679   2.843   1.889   2.997  0.0068  0.0724  0.2738
 5755TIP3    H138680   2.878   1.829   3.062  0.3410 -1.0473 -0.8957
 5755TIP3    H238681   2.826   1.970   3.045  2.1697 -0.0474  1.3490
 5756TIP3   OH238682   0.457   3.801  13.126 -0.3113 -0.7438 -0.0480
 5756TIP3    H138683   0.429   3.877  13.076 -1.1802 -0.7500  0.4135
 5756TIP3    H238684   0.540   3.775  13.085  0.1314  0.5849 -0.0563
 5757TIP3   OH238685   1.290   4.166   5.613  0.3763 -0.0022  0.3601
 5757TIP3    H138686   1.223   4.233   5.629 -0.8075 -0.9893 -0.3054
 5757TIP3    H238687   1.357   4.211   5.563  0.4636  1.1390  1.4534
 5758TIP3   OH238688   3.796   4.101   1.635  0.4004  0.3815  0.6566
 5758TIP3    H138689   3.780   4.086   1.728 -3.7849  2.1707  0.4512
 5758TIP3    H238690   3.799   4.196   1.626 -0.4215  0.2811 -1.1602
 5759TIP3   OH238691   2.421   5.315   6.791  0.2872  0.2219  0.5795
 5759TIP3    H138692   2.409   5.252   6.721  2.5370  0.0187  0.2970
 5759TIP3    H238693   2.400   5.400   6.751 -1.4302 -0.1592  0.5897
 5760TIP3   OH238694   2.816   5.407   4.367  0.2548 -0.2037 -0.1511
 5760TIP3    H138695   2.812   5.312   4.352  0.2138 -0.0893 -0.9352
 5760TIP3    H238696   2.725   5.436   4.363  0.3242 -0.0347 -0.6690
 5761TIP3   OH238697   1.084   1.791   1.502 -0.3383 -0.3877 -0.0089
 5761TIP3    H138698   1.140   1.868   1.515 -0.8662 -0.3066  2.4472
 5761TIP3    H238699   1.139   1.727   1.458  1.2287  0.2059  1.0092
 5762TIP3   OH238700   2.448   0.271   3.631 -0.1720  0.4857 -0.0458
 5762TIP3    H138701   2.358   0.239   3.623  0.2883 -0.9189  0.1369
 5762TIP3    H238702   2.501   0.192   3.641  0.9577  1.3479  1.0812
 5763TIP3   OH238703   3.301   2.656  12.164  0.0003  0.7745 -0.0019
 5763TIP3    H138704   3.347   2.637  12.246  0.1390 -0.7609 -0.3970
 5763TIP3    H238705   3.214   2.617  12.175  0.6971 -1.3123 -1.2998
 5764TIP3   OH238706   5.803   1.573   1.493  0.5556  0.1763 -0.1274
 5764TIP3    H138707   5.857   1.555   1.570 -1.1540  1.7136  1.5530
 5764TIP3    H238708   5.855   1.633   1.440  0.8684  0.8829  0.9663
 5765TIP3   OH238709   2.648   2.416  16.770 -0.5915  0.1865  0.5504
 5765TIP3    H138710   2.703   2.455  16.837 -1.3504  0.5532  0.9696
 5765TIP3    H238711   2.576   2.478  16.758 -0.7389 -0.1131 -0.2395
 5766TIP3   OH238712   6.034   6.612  15.665  0.4099  0.0484  0.0892
 5766TIP3    H138713   6.000   6.677  15.603  0.7857 -0.4381 -0.6398
 5766TIP3    H238714   5.964   6.547  15.671 -0.3382  0.9357  1.4979
 5767TIP3   OH238715   6.587   3.846   6.072  0.3602 -0.4828 -0.1295
 5767TIP3    H138716   6.530   3.921   6.056 -2.2887 -2.1022  0.8709
 5767TIP3    H238717   6.588   3.798   5.990  0.6874 -0.2007 -0.2906
 5768TIP3   OH238718   3.952   0.348  16.628 -0.2898  0.1909  0.7948
 5768TIP3    H138719   3.925   0.436  16.656 -0.3371  0.6107 -0.5058
 5768TIP3    H238720   3.871   0.308  16.596 -0.3955 -0.5812  1.9952
 5769TIP3   OH238721   4.087   3.554  13.640  0.0970 -0.5355  0.1349
 5769TIP3    H138722   4.094   3.632  13.695 -1.5748 -1.6534  2.0495
 5769TIP3    H238723   4.092   3.480  13.701 -2.5362 -1.8162 -1.0359
 5770TIP3   OH238724   1.291   4.476  16.837 -0.1482  0.3691  0.1209
 5770TIP3    H138725   1.367   4.442  16.884  0.0168 -0.0115 -0.4173
 5770TIP3    H238726   1.253   4.400  16.793  1.5198  1.1428 -2.9692
 5771TIP3   OH238727   6.500   3.262   6.560  0.0201  0.2696  0.6893
 5771TIP3    H138728   6.446   3.324   6.512  1.1734  0.1449 -0.8093
 5771TIP3    H238729   6.585   3.264   6.517 -0.2639 -3.3846 -0.4190
 5772TIP3   OH238730   0.007   3.391   2.716  0.0435  0.0726 -0.2095
 5772TIP3    H138731  -0.000   3.482   2.745 -0.3799  0.0931 -0.3696
 5772TIP3    H238732   0.058   3.348   2.784  0.3353  0.4526 -0.1832
 5773TIP3   OH238733   5.528   5.403  12.421 -0.3191  0.0738  0.2708
 5773TIP3    H138734   5.436   5.401  12.448  0.2085 -2.4547  2.2674
 5773TIP3    H238735   5.539   5.322  12.370  0.6997  0.5965 -0.3621
 5774TIP3   OH238736   3.612   5.226   1.135 -0.2793 -0.2600  0.2488
 5774TIP3    H138737   3.537   5.226   1.075  1.3028 -0.0954 -1.8553
 5774TIP3    H238738   3.601   5.307   1.185 -1.9259 -0.6590  0.6123
 5775TIP3   OH238739   1.083   4.963   5.391  0.4786  0.0922 -0.3517
 5775TIP3    H138740   1.009   4.913   5.356  0.2839  0.1202  0.0155
 5775TIP3    H238741   1.049   5.004   5.470  1.4121 -1.4964  0.9433
 5776TIP3   OH238742   2.762   5.333  13.481 -0.3466  0.4558  0.1090
 5776TIP3    H138743   2.668   5.318  13.491 -0.3015  0.7001  1.0315
 5776TIP3    H238744   2.770   5.376  13.396 -1.0200  0.0472 -0.1716
 5777TIP3   OH238745   0.581   5.551  11.475  0.1168  0.6727 -0.7002
 5777TIP3    H138746   0.502   5.499  11.490 -0.1874  0.6386 -2.1774
 5777TIP3    H238747   0.651   5.487  11.467  0.2606  0.6884  0.3826
 5778TIP3   OH238748   5.058   2.203   2.565  0.6054  0.5507 -0.4886
 5778TIP3    H138749   5.019   2.259   2.632  1.5745  0.7919 -0.1130
 5778TIP3    H238750   5.150   2.230   2.561  0.8835 -0.4086 -0.9356
 5779TIP3   OH238751   4.930   2.261   3.823  0.7472  0.4641 -0.2332
 5779TIP3    H138752   4.923   2.343   3.873  0.6942  0.4529 -0.2227
 5779TIP3    H238753   4.962   2.197   3.886 -1.2940 -0.0582  0.3254
 5780TIP3   OH238754   3.460   5.992  15.880  0.5795 -0.2057 -0.9084
 5780TIP3    H138755   3.530   5.962  15.822  0.7952 -0.7125 -0.3870
 5780TIP3    H238756   3.455   6.087  15.864  2.0674  0.0072 -0.2016
 5781TIP3   OH238757   0.577   6.075  16.317 -0.1541 -0.0335  0.5897
 5781TIP3    H138758   0.496   6.096  16.362  0.2618  0.1337  1.2805
 5781TIP3    H238759   0.576   5.980  16.307 -0.7141  0.0263  0.0431
 5782TIP3   OH238760   5.168   3.382  14.190  0.3289 -0.0508  0.2109
 5782TIP3    H138761   5.171   3.363  14.283  0.8797  0.0430  0.2161
 5782TIP3    H238762   5.095   3.442  14.180 -1.8666 -2.5378  0.1164
 5783TIP3   OH238763   3.270   2.616  16.341 -0.4319 -0.3072 -0.0399
 5783TIP3    H138764   3.269   2.708  16.366  3.5177  0.3422 -1.5518
 5783TIP3    H238765   3.204   2.575  16.397 -2.5306  3.4078  0.4963
 5784TIP3   OH238766   3.601   0.671  14.605 -0.5601 -0.2083 -0.3384
 5784TIP3    H138767   3.530   0.653  14.667  0.4045  1.7066  1.4525
 5784TIP3    H238768   3.678   0.630  14.643 -0.5465 -1.9018 -2.0494
 5785TIP3   OH238769   1.811   3.209   4.331 -0.1233  0.3532  0.0175
 5785TIP3    H138770   1.737   3.188   4.273 -0.6019  0.6146  0.5168
 5785TIP3    H238771   1.868   3.133   4.325 -0.4009  0.1722 -0.4333
 5786TIP3   OH238772   3.616   1.488  12.759 -0.3203 -0.3189 -0.2055
 5786TIP3    H138773   3.616   1.487  12.663  0.1643  1.8750 -0.2792
 5786TIP3    H238774   3.523   1.495  12.782 -0.5721 -2.4098 -0.4240
 5787TIP3   OH238775   5.010   6.671   0.638  0.1387  0.2692  0.2036
 5787TIP3    H138776   4.993   6.711   0.553 -1.8717 -0.5878  0.1499
 5787TIP3    H238777   4.927   6.678   0.685  0.1440 -2.3431  0.7696
 5788TIP3   OH238778   2.103   5.554   1.380  0.1736 -0.3673 -0.4952
 5788TIP3    H138779   2.011   5.539   1.359  0.2669 -0.7401 -0.6515
 5788TIP3    H238780   2.115   5.648   1.370 -0.2952 -0.2531 -0.0441
 5789TIP3   OH238781   2.604   2.616   5.999 -0.5583  0.2760 -0.9119
 5789TIP3    H138782   2.538   2.660   5.946 -0.9087 -0.8765 -1.4766
 5789TIP3    H238783   2.559   2.598   6.082 -0.0261  2.0332 -0.2097
 5790TIP3   OH238784   4.141   6.081  11.360  0.1998 -0.2637 -0.2023
 5790TIP3    H138785   4.072   6.120  11.306  1.2273  0.5254 -0.9998
 5790TIP3    H238786   4.132   5.987  11.346 -0.2293 -0.1292 -0.8997
 5791TIP3   OH238787   4.214   1.171  14.407  0.3404 -0.3603  0.0846
 5791TIP3    H138788   4.264   1.091  14.425 -0.1721 -0.5316  0.8048
 5791TIP3    H238789   4.207   1.175  14.312  0.9960 -0.7799  0.0128
 5792TIP3   OH238790   2.536   5.432   4.427  0.6664  0.0791  0.2817
 5792TIP3    H138791   2.455   5.480   4.409  0.3407 -0.0518  1.3379
 5792TIP3    H238792   2.507   5.347   4.459  1.1874  0.5249  2.0097
 5793TIP3   OH238793   6.620   6.467  10.523  0.5370  0.3276  0.0109
 5793TIP3    H138794   6.677   6.452  10.599 -0.4060  0.4238  0.7604
 5793TIP3    H238795   6.567   6.543  10.547 -1.8317 -1.3634  0.5561
 5794TIP3   OH238796   3.205   1.453  11.479  0.3417 -0.2256 -0.2274
 5794TIP3    H138797   3.114   1.424  11.477 -0.0196  0.8395 -0.0168
 5794TIP3    H238798   3.241   1.416  11.559 -0.0508 -0.2366 -0.0554
 5795TIP3   OH238799   4.153   0.523   2.234 -0.5503  0.2285 -0.3733
 5795TIP3    H138800   4.156   0.555   2.324 -1.2059  0.3779 -0.3970
 5795TIP3    H238801   4.167   0.428   2.241  0.0976  0.3387 -0.1811
 5796TIP3   OH238802   3.908   0.525   5.684 -0.3680  0.3302 -0.1125
 5796TIP3    H138803   3.870   0.587   5.746 -0.4102 -0.4136  0.6350
 5796TIP3    H238804   3.974   0.576   5.636 -1.0090  1.1566 -0.1295
 5797TIP3   OH238805   2.282   3.091  16.496 -0.3887 -0.0619 -0.4076
 5797TIP3    H138806   2.201   3.046  16.518 -0.9266  1.6503  1.3353
 5797TIP3    H238807   2.302   3.145  16.573  1.8826  0.3142 -1.1695
 5798TIP3   OH238808   0.085   4.817   0.275  0.0169  0.5499 -0.5628
 5798TIP3    H138809   0.157   4.817   0.212 -1.1348  0.8586 -1.9250
 5798TIP3    H238810   0.089   4.731   0.316  0.9343  0.4315 -0.8714
 5799TIP3   OH238811   3.928   1.290   4.788  0.0184 -0.0005  0.1518
 5799TIP3    H138812   3.893   1.221   4.732 -1.9712 -0.6958  2.1082
 5799TIP3    H238813   3.933   1.250   4.875  0.0853  1.9362  1.0918
 5800TIP3   OH238814   6.280   2.405   5.911  0.1515 -0.0858 -0.5773
 5800TIP3    H138815   6.316   2.354   5.839  1.2200  0.8197 -0.7104
 5800TIP3    H238816   6.289   2.348   5.988  0.6490 -0.3779 -0.8506
 5801TIP3   OH238817   4.290   3.390  16.722 -0.6921 -0.3361 -0.5198
 5801TIP3    H138818   4.249   3.349  16.645  0.0871 -0.3224 -0.9552
 5801TIP3    H238819   4.225   3.380  16.792 -3.2381  3.2188 -2.0571
 5802TIP3   OH238820   1.839   1.979   1.064 -0.2075  0.0891  0.4515
 5802TIP3    H138821   1.928   1.961   1.034 -0.6878 -0.8922 -0.4675
 5802TIP3    H238822   1.827   2.073   1.051  0.4804  0.1183 -0.0081
 5803TIP3   OH238823   4.489   1.897   1.209  0.5110  0.0779  0.2062
 5803TIP3    H138824   4.537   1.970   1.249  2.3514 -0.4914 -0.8448
 5803TIP3    H238825   4.505   1.823   1.268 -0.9914  0.3675  1.0355
 5804TIP3   OH238826   5.223   6.635  15.299 -0.2996  0.0659 -0.3846
 5804TIP3    H138827   5.263   6.562  15.251 -0.4323  0.2547 -0.7884
 5804TIP3    H238828   5.210   6.602  15.387  2.0445  0.4353  0.1664
 5805TIP3   OH238829   5.767   4.238  12.628 -0.3983  0.3078 -0.0439
 5805TIP3    H138830   5.678   4.204  12.624 -1.0204  1.8996 -2.3733
 5805TIP3    H238831   5.823   4.162  12.617 -1.6094 -0.4055 -1.7040
 5806TIP3   OH238832   3.146   5.499  13.477 -0.2730 -0.4328 -0.3495
 5806TIP3    H138833   3.107   5.438  13.414 -5.0203 -0.9948  2.6233
 5806TIP3    H238834   3.124   5.585  13.443 -1.4732 -0.6955 -0.2929
 5807TIP3   OH238835   0.687   0.285  15.185 -0.2441  0.2455 -0.6970
 5807TIP3    H138836   0.731   0.251  15.263 -0.5874  0.5667 -0.3548
 5807TIP3    H238837   0.719   0.375  15.178 -1.6275  0.8497  0.1858
 5808TIP3   OH238838   6.499   4.117   4.515  0.0650  0.4845 -0.0305
 5808TIP3    H138839   6.498   4.147   4.606 -2.2476  0.7004 -0.0614
 5808TIP3    H238840   6.553   4.182   4.469  0.8828  0.6213  1.0800
 5809TIP3   OH238841   1.968   6.772  14.271  0.3297  0.0008  0.1392
 5809TIP3    H138842   1.951   6.753  14.363  1.3336 -0.2537  0.2786
 5809TIP3    H238843   2.062   6.791  14.267  0.6076 -1.4444 -1.0571
 5810TIP3   OH238844   2.227   5.276   1.356  0.9143 -0.1297 -0.0772
 5810TIP3    H138845   2.221   5.370   1.367 -0.7803 -0.2563  0.3951
 5810TIP3    H238846   2.263   5.264   1.268 -1.8479  1.0115 -1.4844
 5811TIP3   OH238847   4.529   1.541   5.272 -0.4629  0.1351 -0.4143
 5811TIP3    H138848   4.531   1.452   5.238  0.4202  0.0345 -0.1209
 5811TIP3    H238849   4.531   1.531   5.367  0.2978  0.4665 -0.3829
 5812TIP3   OH238850   4.083   3.627   0.590  0.1399 -0.8133 -0.5078
 5812TIP3    H138851   4.032   3.674   0.657  0.3645 -1.4691  0.1303
 5812TIP3    H238852   4.068   3.677   0.510  3.1966  2.6030  0.7429
 5813TIP3   OH238853   6.610   3.975  16.573 -0.0857 -0.0075 -0.6909
 5813TIP3    H138854   6.647   3.979  16.662 -0.7871 -3.3424 -0.0976
 5813TIP3    H238855   6.683   4.000  16.516  0.8465  0.7435  0.7703
 5814TIP3   OH238856   2.789   3.173   3.757  0.2711 -0.4633  1.1600
 5814TIP3    H138857   2.741   3.096   3.726  0.2234  0.0380 -0.0551
 5814TIP3    H238858   2.752   3.191   3.843 -0.6013 -1.0434  0.9207
 5815TIP3   OH238859   1.058   1.848   3.873  0.5069 -0.0822  0.7283
 5815TIP3    H138860   1.013   1.821   3.793  3.4831 -0.7294 -0.8732
 5815TIP3    H238861   1.026   1.787   3.940 -2.9567  1.2247  0.5083
 5816TIP3   OH238862   3.622   6.626   4.639 -0.0268 -0.0982 -0.3632
 5816TIP3    H138863   3.573   6.555   4.680 -0.0077  0.3224  0.4147
 5816TIP3    H238864   3.582   6.636   4.553 -1.3942  0.2989  0.2864
 5817TIP3   OH238865   0.981   6.024   3.651 -0.1523  0.4903  0.0631
 5817TIP3    H138866   1.060   6.014   3.597  0.4878  2.3714  0.5636
 5817TIP3    H238867   0.983   5.949   3.711  1.4407  0.6531  0.2586
 5818TIP3   OH238868   6.754   5.263   4.087 -0.1550 -0.3502  0.5573
 5818TIP3    H138869   6.663   5.277   4.113 -0.3928  0.5340 -0.6702
 5818TIP3    H238870   6.749   5.198   4.016  0.0552  0.4469 -0.2032
 5819TIP3   OH238871   6.226   3.893   4.048 -0.3402 -0.7165  0.3163
 5819TIP3    H138872   6.235   3.841   4.128 -1.8231  0.6866  1.4655
 5819TIP3    H238873   6.234   3.984   4.077 -2.1424 -0.1060 -0.8846
 5820TIP3   OH238874   1.729   0.290   0.523 -0.0673 -0.1627 -0.2416
 5820TIP3    H138875   1.660   0.231   0.494 -0.9614  1.4914 -1.6558
 5820TIP3    H238876   1.804   0.268   0.467 -0.1061 -0.5165 -0.1614
 5821TIP3   OH238877   3.160   3.678   2.391  0.3666  0.1526  0.0025
 5821TIP3    H138878   3.137   3.764   2.427  1.0146  1.1520 -1.8606
 5821TIP3    H238879   3.243   3.656   2.434 -0.0493  0.1935  0.8602
 5822TIP3   OH238880   2.622   3.026  12.793  0.2048  0.3340  0.3009
 5822TIP3    H138881   2.607   2.994  12.704 -0.3472 -0.4719  0.6734
 5822TIP3    H238882   2.716   3.016  12.806  0.4652  1.4729 -0.5642
 5823TIP3   OH238883   3.557   2.437  11.267 -0.6395 -0.0903 -0.0302
 5823TIP3    H138884   3.526   2.448  11.177  1.6141  0.6152 -0.7925
 5823TIP3    H238885   3.634   2.380  11.259 -0.6755 -0.3878  1.5210
 5824TIP3   OH238886   5.023   1.993  12.714  0.5113  0.5460  0.0153
 5824TIP3    H138887   4.974   2.073  12.733  0.9905  1.0360 -0.7494
 5824TIP3    H238888   5.086   2.019  12.647 -1.0556 -1.0679 -2.2348
 5825TIP3   OH238889   2.290   5.539  16.158 -0.1824  0.7425 -0.3753
 5825TIP3    H138890   2.298   5.599  16.232 -1.0735  0.8282 -0.3314
 5825TIP3    H238891   2.219   5.479  16.184  0.3163  0.0205 -0.6534
 5826TIP3   OH238892   4.933   1.131   0.708 -0.1361  0.1874  0.2125
 5826TIP3    H138893   4.907   1.222   0.720  1.1721  0.6196  0.0008
 5826TIP3    H238894   4.912   1.111   0.617  0.4733  0.6075 -0.0261
 5827TIP3   OH238895   3.216   4.138   4.076  0.1269  0.3994  0.6017
 5827TIP3    H138896   3.240   4.186   3.996  0.0287 -0.6394 -0.0831
 5827TIP3    H238897   3.195   4.206   4.140 -0.7307  1.2664 -0.5501
 5828TIP3   OH238898   1.875   3.066  14.909 -0.0071  0.3902  0.0197
 5828TIP3    H138899   1.884   3.057  15.003  1.9977  1.5618  0.0124
 5828TIP3    H238900   1.937   3.136  14.886 -0.3056  0.0058 -2.1760
 5829TIP3   OH238901   5.540   5.240  12.090 -0.5172  0.4953 -0.6916
 5829TIP3    H138902   5.449   5.269  12.080 -1.0574 -1.6119 -2.7011
 5829TIP3    H238903   5.533   5.152  12.126  0.6976  0.1432 -1.2940
 5830TIP3   OH238904   0.662   4.946   3.323 -0.6556  0.1037 -0.2486
 5830TIP3    H138905   0.704   5.010   3.265  0.6990 -0.1979  0.3412
 5830TIP3    H238906   0.653   4.867   3.270  2.6389 -0.9206  0.4216
 5831TIP3   OH238907   1.065   6.667   3.852 -0.4806 -0.1947  0.2442
 5831TIP3    H138908   1.079   6.747   3.904 -0.4210 -0.4955  0.6962
 5831TIP3    H238909   1.035   6.603   3.915 -0.9118 -0.4226 -0.1923
 5832TIP3   OH238910   5.432   2.511   4.680 -0.4186  0.2341 -0.5749
 5832TIP3    H138911   5.430   2.417   4.698 -0.2682  0.3239 -0.0537
 5832TIP3    H238912   5.363   2.525   4.615  0.4305 -0.4396 -1.6606
 5833TIP3   OH238913   6.549   6.760   6.547 -0.4864  0.3049  0.3803
 5833TIP3    H138914   6.533   6.815   6.624 -1.5789 -0.3145  0.6095
 5833TIP3    H238915   6.642   6.774   6.527 -0.0448  0.1039  2.1160
 5834TIP3   OH238916   1.642   5.385   0.651 -0.0675  0.1256  0.3045
 5834TIP3    H138917   1.605   5.423   0.571 -0.3575 -0.4097  0.1802
 5834TIP3    H238918   1.723   5.343   0.623  0.1043  0.3919  0.3915
 5835TIP3   OH238919   1.277   6.031  16.113  0.3196  0.0376 -0.0411
 5835TIP3    H138920   1.356   6.047  16.165 -1.4942  0.0819  2.9619
 5835TIP3    H238921   1.224   6.109  16.126 -1.3096 -1.0678  0.2847
 5836TIP3   OH238922   2.823   5.954   3.522 -0.8466  0.0112  0.1055
 5836TIP3    H138923   2.760   5.934   3.454 -0.8269  0.3478 -0.0162
 5836TIP3    H238924   2.795   5.903   3.598  1.7619 -4.1891 -1.4136
 5837TIP3   OH238925   5.285   2.672  14.603 -0.0906 -0.0439  0.2027
 5837TIP3    H138926   5.366   2.644  14.561 -0.7448 -0.4130 -0.8328
 5837TIP3    H238927   5.293   2.640  14.693  0.8935 -0.1048  0.1075
 5838TIP3   OH238928   0.869   0.359  12.249  0.3060 -0.2232 -0.0154
 5838TIP3    H138929   0.959   0.335  12.267  0.1206 -1.6165 -0.8465
 5838TIP3    H238930   0.873   0.410  12.168  0.1678 -2.0496 -1.2194
 5839TIP3   OH238931   0.697   1.825  15.434  0.2254 -0.0705  0.0343
 5839TIP3    H138932   0.727   1.766  15.365  0.9457 -1.1125  1.1867
 5839TIP3    H238933   0.640   1.887  15.389 -0.2002 -1.3598 -1.3050
 5840TIP3   OH238934   3.914   4.983  11.910  0.0451 -0.2053  0.3156
 5840TIP3    H138935   3.890   4.989  11.818 -1.0486  0.7636  0.6440
 5840TIP3    H238936   4.003   5.019  11.914 -0.6962  1.7526 -0.0747
 5841TIP3   OH238937   0.977   6.685   1.066  0.0149  0.4633  0.9623
 5841TIP3    H138938   0.937   6.598   1.074 -0.1052  0.3267 -0.6799
 5841TIP3    H238939   0.916   6.743   1.111 -0.5755 -0.1319  0.9582
 5842TIP3   OH238940   0.874   0.209   3.806  0.1984  0.0678  0.0021
 5842TIP3    H138941   0.912   0.162   3.731  0.0726 -1.0879  0.6454
 5842TIP3    H238942   0.792   0.163   3.825  0.3525  0.1795  1.0086
 5843TIP3   OH238943   3.170   1.598  11.228  0.0584 -0.1570 -0.1978
 5843TIP3    H138944   3.195   1.540  11.300  1.9293  0.6230 -0.1622
 5843TIP3    H238945   3.086   1.635  11.256  0.9802  0.5544  1.8949
 5844TIP3   OH238946   1.832   4.841  13.545 -0.1817 -0.4947 -0.4194
 5844TIP3    H138947   1.873   4.879  13.467 -1.1229  0.6632 -0.3778
 5844TIP3    H238948   1.822   4.749  13.525  0.6923 -0.4421 -1.1782
 5845TIP3   OH238949   5.350   3.703  16.873  0.2871  0.1575 -0.1922
 5845TIP3    H138950   5.389   3.652  16.803  1.4544 -0.2722  0.7296
 5845TIP3    H238951   5.271   3.742  16.835 -0.6733 -2.3162 -0.9298
 5846TIP3   OH238952   2.556   4.172  16.132  0.1164  0.3154  0.3592
 5846TIP3    H138953   2.621   4.232  16.095  0.4363  0.1273  0.6191
 5846TIP3    H238954   2.598   4.086  16.130 -0.1165  0.1966  0.5474
 5847TIP3   OH238955   6.049   4.612   5.165  0.3924 -0.6362  0.0979
 5847TIP3    H138956   5.994   4.686   5.190 -0.9004 -2.3941  2.8810
 5847TIP3    H238957   6.137   4.637   5.193  0.0500  0.0354  0.6003
 5848TIP3   OH238958   1.859   0.262  14.179 -0.2298  0.3365 -0.2750
 5848TIP3    H138959   1.861   0.181  14.230  0.6447  0.1934 -0.5128
 5848TIP3    H238960   1.946   0.268  14.140 -0.5606  0.9584 -0.9491
 5849TIP3   OH238961   0.784   0.697  12.872 -0.0969  0.2315  0.0214
 5849TIP3    H138962   0.777   0.669  12.963 -0.8654  0.0381 -0.0944
 5849TIP3    H238963   0.708   0.753  12.858  0.5982  1.1522 -0.1962
 5850TIP3   OH238964   2.431   6.389   2.454 -0.2737  0.1559 -0.6578
 5850TIP3    H138965   2.471   6.423   2.534 -1.5164  0.8193 -0.2825
 5850TIP3    H238966   2.463   6.446   2.384 -1.5492  1.5309 -0.1730
 5851TIP3   OH238967   6.588   6.290  15.924  0.3745 -0.7550 -0.4454
 5851TIP3    H138968   6.599   6.385  15.921 -0.2379 -0.6678 -0.0587
 5851TIP3    H238969   6.502   6.275  15.885 -0.1327 -1.0336  0.7628
 5852TIP3   OH238970   2.670   5.686  16.692 -0.1248 -0.2993  0.0303
 5852TIP3    H138971   2.728   5.639  16.752  1.1866  0.5399 -0.5297
 5852TIP3    H238972   2.589   5.635  16.692 -0.1842 -0.2967  2.5035
 5853TIP3   OH238973   2.561   6.253  12.059 -0.8053  0.1258 -0.4478
 5853TIP3    H138974   2.609   6.309  11.998 -1.5792  0.5883 -0.6518
 5853TIP3    H238975   2.523   6.184  12.005 -1.0659  0.2456 -0.4225
 5854TIP3   OH238976   3.566   2.855  12.809  0.0065 -0.4139  0.2111
 5854TIP3    H138977   3.599   2.812  12.888 -0.5743  1.0546  1.3043
 5854TIP3    H238978   3.636   2.917  12.786 -0.0675 -0.4448 -0.0936
 5855TIP3   OH238979   1.205   5.062  13.225  0.0623  0.3908 -0.4725
 5855TIP3    H138980   1.279   5.120  13.244 -1.6808  2.5125  0.1936
 5855TIP3    H238981   1.174   5.090  13.139  0.1356 -0.6463 -0.8545
 5856TIP3   OH238982   2.216   1.701  17.088  0.8542  0.4915  0.2084
 5856TIP3    H138983   2.174   1.785  17.107 -1.2355 -0.7045  1.2802
 5856TIP3    H238984   2.254   1.712  17.001 -0.1135  2.2653 -0.0319
 5857TIP3   OH238985   2.610   1.486  12.095 -0.6708  0.3844 -0.4325
 5857TIP3    H138986   2.584   1.465  12.005 -1.2550  0.4529 -0.2868
 5857TIP3    H238987   2.549   1.555  12.122 -0.1377  0.7665 -0.1751
 5858TIP3   OH238988   3.117   4.538   5.724 -0.1828 -0.7025  0.6134
 5858TIP3    H138989   3.046   4.591   5.760  0.1991 -0.0706  0.4530
 5858TIP3    H238990   3.074   4.478   5.664 -0.5740 -0.2534  0.4383
 5859TIP3   OH238991   2.061   1.832   6.508  0.2593  0.0307 -0.2026
 5859TIP3    H138992   1.971   1.861   6.522  0.9169  2.4199 -0.4529
 5859TIP3    H238993   2.081   1.777   6.584 -1.0083  0.5169  0.5131
 5860TIP3   OH238994   0.223   1.800   6.243 -0.0088 -0.0475 -0.0599
 5860TIP3    H138995   0.182   1.883   6.268  0.6992 -0.1585  1.6379
 5860TIP3    H238996   0.317   1.816   6.255  0.0272 -1.9281  3.3689
 5861TIP3   OH238997   1.900   2.463  14.908  0.3203 -0.4514  0.2643
 5861TIP3    H138998   1.959   2.509  14.968  1.2833 -0.1632 -0.8519
 5861TIP3    H238999   1.836   2.529  14.882  0.2533 -0.4126  0.5260
 5862TIP3   OH239000   0.339   1.650  16.453 -0.2472  0.1425  0.0825
 5862TIP3    H139001   0.245   1.656  16.467 -0.6328 -3.4570  0.0189
 5862TIP3    H239002   0.349   1.642  16.358  0.0766  0.1606  0.1115
 5863TIP3   OH239003   2.991   3.523  15.064 -0.0922  0.5192  0.5553
 5863TIP3    H139004   3.047   3.592  15.027  0.1369  0.3937  0.6690
 5863TIP3    H239005   2.901   3.553  15.045 -0.0005  0.9409  0.7677
 5864TIP3   OH239006   3.646   0.661   3.200 -0.1957  0.5093  0.7186
 5864TIP3    H139007   3.560   0.650   3.240  0.6424  2.9372  3.5600
 5864TIP3    H239008   3.704   0.605   3.251  0.1885 -0.1046 -0.3414
 5865TIP3   OH239009   5.369   5.107   4.801 -0.0597 -0.2903 -0.2580
 5865TIP3    H139010   5.291   5.160   4.819  0.5797  0.7490 -0.4897
 5865TIP3    H239011   5.343   5.018   4.825 -1.1810  0.1050  0.0642
 5866TIP3   OH239012   2.722   3.363  17.063  0.2715  0.5561  0.0557
 5866TIP3    H139013   2.757   3.276  17.042 -0.0486  0.9259 -2.1758
 5866TIP3    H239014   2.628   3.354  17.052  0.3631  1.6145 -2.0886
 5867TIP3   OH239015   1.976   3.332  11.697  0.7947  0.3436 -0.2627
 5867TIP3    H139016   1.895   3.314  11.744  2.0121  1.6748  2.6187
 5867TIP3    H239017   2.030   3.254  11.712  0.6156  0.0981 -0.8675
 5868TIP3   OH239018   2.346   2.989   1.314 -0.2215  0.3977 -0.6088
 5868TIP3    H139019   2.390   3.073   1.325  0.3386  0.3916 -2.4614
 5868TIP3    H239020   2.403   2.939   1.256 -1.5954 -0.4338 -1.3104
 5869TIP3   OH239021   5.399   2.088  16.738 -0.0062 -0.7839 -0.6144
 5869TIP3    H139022   5.329   2.141  16.775  2.3221  1.0948  1.5256
 5869TIP3    H239023   5.455   2.152  16.693  0.6022 -2.1161 -1.7958
 5870TIP3   OH239024   5.009   2.957   3.613 -0.8725 -0.1899  0.1054
 5870TIP3    H139025   4.975   3.000   3.535 -1.4454 -1.2519 -0.2461
 5870TIP3    H239026   4.953   2.991   3.684 -0.3036  0.8295  0.0877
 5871TIP3   OH239027   6.419   4.538  14.241  0.4246  0.0721 -0.5441
 5871TIP3    H139028   6.474   4.513  14.316  1.1434  1.6517 -0.5018
 5871TIP3    H239029   6.438   4.472  14.175  1.5641 -0.0341 -0.1392
 5872TIP3   OH239030   3.894   5.801   0.034 -0.6800 -0.1804  0.1468
 5872TIP3    H139031   3.888   5.717   0.079  0.8322 -0.5003 -0.2171
 5872TIP3    H239032   3.978   5.837   0.060 -1.4033  1.3617  0.4921
 5873TIP3   OH239033   5.068   4.071   2.860 -0.3729 -0.0389 -0.2169
 5873TIP3    H139034   4.982   4.061   2.900 -1.2193 -0.0666 -1.9594
 5873TIP3    H239035   5.050   4.104   2.772  1.3697 -0.3943 -0.7432
 5874TIP3   OH239036   2.260   5.671   2.093  0.5785 -0.5603  0.6588
 5874TIP3    H139037   2.263   5.765   2.107 -1.8520 -0.3108 -0.0941
 5874TIP3    H239038   2.175   5.644   2.128  1.4311 -2.5937  1.3461
 5875TIP3   OH239039   5.852   0.270   3.714  0.2223  0.7741  0.7027
 5875TIP3    H139040   5.804   0.352   3.706  0.5951  0.9315 -0.0762
 5875TIP3    H239041   5.886   0.253   3.626  1.7234  0.7635  1.2454
 5876TIP3   OH239042   5.558   2.452   4.916  0.1381  0.3155  0.1141
 5876TIP3    H139043   5.559   2.492   5.003 -0.4198 -1.5169  1.0052
 5876TIP3    H239044   5.504   2.511   4.863 -0.8003  0.6640  1.4199
 5877TIP3   OH239045   4.621   0.776  15.365 -0.1713  0.6295 -0.1909
 5877TIP3    H139046   4.545   0.833  15.375 -1.1095 -0.4932 -0.7176
 5877TIP3    H239047   4.666   0.810  15.288 -0.1379  1.2692  0.0968
 5878TIP3   OH239048   1.169   3.928  12.285  1.2309  0.0225 -0.0722
 5878TIP3    H139049   1.183   3.833  12.281 -0.8208 -0.3664  0.4441
 5878TIP3    H239050   1.223   3.957  12.359 -0.5311 -1.3331  1.8687
 5879TIP3   OH239051   6.713   2.165  16.662 -0.2427 -0.2029 -0.2675
 5879TIP3    H139052   6.763   2.224  16.606 -0.9703  1.2222  0.5158
 5879TIP3    H239053   6.665   2.109  16.602  1.1072 -0.5913 -1.0314
 5880TIP3   OH239054   3.568   4.519   0.324  0.2879 -0.1901  0.6067
 5880TIP3    H139055   3.499   4.578   0.294  0.4716  0.0151  0.5818
 5880TIP3    H239056   3.569   4.448   0.260  3.1323  2.0281 -2.1228
 5881TIP3   OH239057   0.593   0.335  12.283  0.0707 -0.2027 -0.0741
 5881TIP3    H139058   0.674   0.290  12.260 -2.3239 -4.2627 -1.7768
 5881TIP3    H239059   0.542   0.335  12.201 -1.6874  2.2771  0.8919
 5882TIP3   OH239060   0.338   1.305  11.175  0.0642  0.0069 -0.1923
 5882TIP3    H139061   0.428   1.297  11.144 -0.1603  0.4942 -1.0074
 5882TIP3    H239062   0.329   1.237  11.242  0.8082 -0.5434 -0.6382
 5883TIP3   OH239063   3.820   4.517  14.289  0.5458  0.6809  0.1534
 5883TIP3    H139064   3.732   4.487  14.308  1.1003 -1.4853 -0.4479
 5883TIP3    H239065   3.842   4.477  14.205  2.5919  0.0114  0.9398
 5884TIP3   OH239066   5.170   0.793   4.691 -0.0514  0.5875 -0.1382
 5884TIP3    H139067   5.230   0.822   4.622 -0.7915 -0.0749 -1.0845
 5884TIP3    H239068   5.101   0.860   4.692  0.9356  1.6566  1.3361
 5885TIP3   OH239069   6.756   1.586   2.401 -0.4681 -0.2698 -0.4244
 5885TIP3    H139070   6.795   1.636   2.330 -0.3651  1.3002  0.6839
 5885TIP3    H239071   6.781   1.633   2.481 -0.5415 -1.9832  0.6768
 5886TIP3   OH239072   5.646   5.799  13.610  0.3535  0.2649  0.2047
 5886TIP3    H139073   5.707   5.728  13.590  0.5241  0.1852  0.9620
 5886TIP3    H239074   5.564   5.773  13.570  1.2519  1.2488 -2.4758
 5887TIP3   OH239075   2.287   1.546   5.763 -0.7327 -0.2199  0.0567
 5887TIP3    H139076   2.295   1.555   5.668 -0.6285 -2.3516 -0.1847
 5887TIP3    H239077   2.270   1.452   5.777  0.2969 -0.1490  2.2052
 5888TIP3   OH239078   0.786   5.577   2.108 -0.0995  0.6127 -0.1027
 5888TIP3    H139079   0.747   5.502   2.063  1.6171  0.0686 -0.7587
 5888TIP3    H239080   0.818   5.633   2.038  1.1973  0.5242  0.3833
 5889TIP3   OH239081   4.120   6.499   1.829  0.1510 -0.4884  0.0960
 5889TIP3    H139082   4.178   6.500   1.905 -0.5100  1.2182  0.6272
 5889TIP3    H239083   4.118   6.408   1.801  1.9657 -0.8167  0.9082
 5890TIP3   OH239084   5.993   4.117  11.880 -0.2634  0.2871  0.2432
 5890TIP3    H139085   6.043   4.108  11.799  0.5001  2.6234  0.3733
 5890TIP3    H239086   5.957   4.030  11.896 -0.7077 -0.1880 -2.7560
 5891TIP3   OH239087   5.266   5.873   5.667 -0.0636 -0.1267 -0.6507
 5891TIP3    H139088   5.246   5.942   5.605 -0.0496 -0.6787 -1.2802
 5891TIP3    H239089   5.332   5.911   5.725 -0.3066  0.4970 -0.7765
 5892TIP3   OH239090   3.262   6.735  12.898  0.3220 -0.3686 -0.1525
 5892TIP3    H139091   3.303   6.671  12.956 -2.3309 -0.2759  2.0165
 5892TIP3    H239092   3.305   6.818  12.919  0.3733 -0.5901  0.6184
 5893TIP3   OH239093   6.530   0.857   4.174  0.2140 -0.3047 -0.1253
 5893TIP3    H139094   6.580   0.783   4.208 -0.9443 -0.7484  0.6787
 5893TIP3    H239095   6.521   0.838   4.080  0.2556 -0.9834  0.0001
 5894TIP3   OH239096   5.008   6.046  17.057 -0.1704 -0.2044 -0.4080
 5894TIP3    H139097   4.933   6.038  16.998 -1.3094  1.5653  0.7436
 5894TIP3    H239098   5.025   6.140  17.063 -0.3204 -0.2840  2.3294
 5895TIP3   OH239099   2.320   4.217  12.177  0.3750 -0.3778  0.0340
 5895TIP3    H139100   2.355   4.193  12.263  1.9543 -2.0800 -1.0202
 5895TIP3    H239101   2.332   4.312  12.172 -0.8198 -0.0454  2.1095
 5896TIP3   OH239102   4.361   0.754  16.615  0.5496 -0.9070 -0.0413
 5896TIP3    H139103   4.340   0.785  16.703  1.2929 -0.3451 -0.0540
 5896TIP3    H239104   4.433   0.692  16.628 -0.1014 -1.7104 -0.1467
 5897TIP3   OH239105   2.119   4.518  16.216  0.0419 -0.6828 -0.0540
 5897TIP3    H139106   2.090   4.451  16.155  1.7477 -1.1074 -0.4514
 5897TIP3    H239107   2.071   4.597  16.190  1.0132 -0.7405 -2.2554
 5898TIP3   OH239108   0.231   2.300  11.687 -0.0008 -0.1429 -0.0459
 5898TIP3    H139109   0.239   2.286  11.593  0.5167 -0.7433  0.0863
 5898TIP3    H239110   0.302   2.249  11.726  0.8313  1.3936  0.5667
 5899TIP3   OH239111   2.511   6.245  11.424 -0.2480  0.0879  0.0754
 5899TIP3    H139112   2.579   6.312  11.430  0.7930 -0.9891  0.8578
 5899TIP3    H239113   2.544   6.184  11.358 -0.6168 -0.2635  0.2121
 5900TIP3   OH239114   6.772   1.549  15.379 -0.0436  0.2481  0.0251
 5900TIP3    H139115   6.696   1.498  15.351  0.4693 -1.7204  1.9660
 5900TIP3    H239116   6.736   1.634  15.402 -1.2819  0.1081 -1.2196
 5901TIP3   OH239117   0.696   6.005  12.520  0.0929  0.6848  0.6559
 5901TIP3    H139118   0.688   6.034  12.611  2.1037  1.3851  0.6629
 5901TIP3    H239119   0.696   6.086  12.469 -0.3962  0.3322  0.0875
 5902TIP3   OH239120   4.996   1.222  10.688  0.0545  0.1568 -0.1739
 5902TIP3    H139121   5.062   1.270  10.638 -0.2872  0.7900 -0.0280
 5902TIP3    H239122   4.922   1.213  10.626  0.1907 -0.3622 -0.2670
 5903TIP3   OH239123   4.579   3.987   0.215 -0.0777  0.3866  0.2248
 5903TIP3    H139124   4.508   3.985   0.279 -0.3381  1.4883 -0.0027
 5903TIP3    H239125   4.659   3.973   0.266 -0.4996 -2.1054  0.3287
 5904TIP3   OH239126   2.633   0.230  15.769  0.2636 -0.2139  0.1954
 5904TIP3    H139127   2.659   0.306  15.717  1.0808 -0.5084  0.1595
 5904TIP3    H239128   2.541   0.217  15.749  0.2349  0.4917 -0.1450
 5905TIP3   OH239129   5.271   1.226   0.865 -0.1399  0.7952  0.1600
 5905TIP3    H139130   5.340   1.210   0.930  0.1247 -0.1644 -0.3369
 5905TIP3    H239131   5.293   1.311   0.827 -0.0966  1.2000  1.0719
 5906TIP3   OH239132   6.304   0.783  14.301 -0.2336 -0.2503  0.3010
 5906TIP3    H139133   6.292   0.692  14.273  1.7605  0.2516 -2.6488
 5906TIP3    H239134   6.395   0.787  14.328 -0.6399  0.6299  1.6013
 5907TIP3   OH239135   1.665   4.839   1.687  0.2915 -0.3961 -0.1410
 5907TIP3    H139136   1.637   4.750   1.666  3.1241 -1.2189 -0.7724
 5907TIP3    H239137   1.716   4.867   1.611  0.7076  1.2054  0.6834
 5908TIP3   OH239138   1.103   3.986   0.889  0.5773 -0.5709 -0.6966
 5908TIP3    H139139   1.139   3.916   0.944  1.1463 -0.9776 -1.5606
 5908TIP3    H239140   1.121   3.957   0.799  1.9594  1.2602 -1.0703
 5909TIP3   OH239141   5.961   2.941   3.019  0.1151  0.1810 -0.1214
 5909TIP3    H139142   5.937   2.975   2.933  0.9091  1.2248  0.0447
 5909TIP3    H239143   5.896   2.978   3.079 -0.8043 -1.0388 -0.3350
 5910TIP3   OH239144   5.292   0.873  15.098 -0.6275 -0.1276  0.0109
 5910TIP3    H139145   5.222   0.939  15.095 -0.0943  0.4913  0.9465
 5910TIP3    H239146   5.259   0.806  15.157 -0.7081 -0.1690 -0.0797
 5911TIP3   OH239147   0.371   2.973  13.984 -0.0252 -0.0240  0.4571
 5911TIP3    H139148   0.370   3.014  13.898  0.0501  1.8627  1.3004
 5911TIP3    H239149   0.393   3.044  14.044 -1.8195 -0.8654  2.2362
 5912TIP3   OH239150   0.817   0.308   5.719 -0.5861  0.1483 -0.5743
 5912TIP3    H139151   0.875   0.370   5.676  1.2199 -0.4879  0.7984
 5912TIP3    H239152   0.874   0.234   5.742 -2.2600 -1.1511 -0.4267
 5913TIP3   OH239153   5.132   0.197   2.198 -0.1778  0.5494  0.2434
 5913TIP3    H139154   5.051   0.146   2.195  0.8829 -1.2516  0.3519
 5913TIP3    H239155   5.156   0.199   2.291  0.4698  0.0921  0.0937
 5914TIP3   OH239156   2.118   2.386   4.487  0.3028 -0.8097 -0.1685
 5914TIP3    H139157   2.157   2.300   4.503  1.3779 -0.1256  1.1177
 5914TIP3    H239158   2.193   2.446   4.482 -0.4860  0.2544  0.3812
 5915TIP3   OH239159   1.795   1.059  11.679  0.1556  0.4097  0.1459
 5915TIP3    H139160   1.797   1.113  11.600  1.5895 -0.5026 -0.4864
 5915TIP3    H239161   1.827   1.117  11.749  1.9489  0.3597 -0.5758
 5916TIP3   OH239162   4.857   0.635  15.036  0.2831 -0.5715  0.0403
 5916TIP3    H139163   4.829   0.581  15.109  1.5935 -1.4314 -0.0644
 5916TIP3    H239164   4.871   0.573  14.964 -0.0122  0.1397 -0.6547
 5917TIP3   OH239165   2.041   6.432  12.457  0.3316  0.2428  0.0948
 5917TIP3    H139166   2.078   6.405  12.373 -0.0096  1.2635 -0.4030
 5917TIP3    H239167   2.092   6.385  12.522  0.1199 -1.1385 -0.7073
 5918TIP3   OH239168   0.852   5.270   4.167 -0.1202  0.1567  0.2571
 5918TIP3    H139169   0.795   5.345   4.185  0.0718  0.0394  1.4027
 5918TIP3    H239170   0.935   5.309   4.141 -0.3082  0.3281 -0.1047
 5919TIP3   OH239171   0.774   4.735  12.075 -0.7195  0.7233 -0.8385
 5919TIP3    H139172   0.742   4.691  11.996 -2.0426  1.1809 -0.5778
 5919TIP3    H239173   0.695   4.761  12.123  0.0371  1.7884 -0.0971
 5920TIP3   OH239174   4.577   5.228  16.099  0.2311  0.2999 -0.7889
 5920TIP3    H139175   4.646   5.269  16.046  0.6981 -0.6014 -0.9075
 5920TIP3    H239176   4.583   5.271  16.184  1.6344 -0.4367 -0.4766
 5921TIP3   OH239177   5.420   2.969  14.594 -0.4597 -0.2534 -0.3749
 5921TIP3    H139178   5.503   2.963  14.548  0.0273  1.6032  0.2127
 5921TIP3    H239179   5.433   2.917  14.674  0.1702  0.0926 -0.2469
 5922TIP3   OH239180   2.162   2.056   5.106  0.2734  0.4261  0.5460
 5922TIP3    H139181   2.198   1.999   5.039  0.4607 -0.0475  1.0443
 5922TIP3    H239182   2.088   2.007   5.142  1.0143  0.0636  1.6355
 5923TIP3   OH239183   5.329   3.801  16.495 -0.5259  0.1481 -0.3906
 5923TIP3    H139184   5.271   3.726  16.510 -2.2271  0.8651 -2.8427
 5923TIP3    H239185   5.322   3.852  16.576 -0.7869 -1.3558  0.5881
 5924TIP3   OH239186   4.652   1.044  11.485  0.0137 -0.4950 -0.3033
 5924TIP3    H139187   4.653   1.137  11.505  0.8318 -0.5143 -0.2430
 5924TIP3    H239188   4.733   1.028  11.437  1.2809 -1.6903  2.0701
 5925TIP3   OH239189   4.516   6.247   4.598  0.3183 -0.4744  0.4025
 5925TIP3    H139190   4.444   6.253   4.660 -0.2270  2.8066 -0.3727
 5925TIP3    H239191   4.580   6.191   4.641 -0.8632  0.0904  3.0706
 5926TIP3   OH239192   3.507   0.897  16.039 -0.2050  0.2886  0.9012
 5926TIP3    H139193   3.567   0.964  16.008 -0.2752 -0.0948 -0.1210
 5926TIP3    H239194   3.420   0.938  16.035 -0.2492  0.1407  0.2663
 5927TIP3   OH239195   6.232   5.998  11.947  0.4112 -0.1428 -0.6114
 5927TIP3    H139196   6.163   5.951  11.994  1.2612 -1.4226 -0.5876
 5927TIP3    H239197   6.208   5.989  11.854  0.2074 -0.0124 -0.5729
 5928TIP3   OH239198   4.967   3.221  16.819  1.1416  0.4074 -0.6421
 5928TIP3    H139199   4.963   3.208  16.724  0.4259 -0.7718 -0.4682
 5928TIP3    H239200   5.001   3.310  16.829  2.2662  0.1743 -1.9942
 5929TIP3   OH239201   5.174   3.016   2.404  0.6019  0.1042 -0.2693
 5929TIP3    H139202   5.164   3.074   2.480  0.2355 -0.3753  0.0562
 5929TIP3    H239203   5.199   3.074   2.333  2.8838  0.3453  0.6299
 5930TIP3   OH239204   6.063   0.391   6.210 -0.0800 -0.1083 -0.4717
 5930TIP3    H139205   6.128   0.330   6.175  0.8362  0.6809 -0.1904
 5930TIP3    H239206   6.113   0.448   6.269 -0.5447  2.0549 -2.0442
 5931TIP3   OH239207   5.040   0.994  15.260  0.1336  0.1958 -0.3181
 5931TIP3    H139208   5.075   1.043  15.186 -0.0034  0.9995  0.1335
 5931TIP3    H239209   5.116   0.949  15.297  0.2985  0.2191 -0.6263
 5932TIP3   OH239210   4.479   0.350   2.707  0.0711 -0.1626  0.3964
 5932TIP3    H139211   4.477   0.355   2.611 -2.6420  0.0413  0.3979
 5932TIP3    H239212   4.534   0.274   2.725  1.3193  0.2692 -1.2562
 5933TIP3   OH239213   6.337   5.137   2.003 -0.4467  0.7755  0.3990
 5933TIP3    H139214   6.303   5.080   1.934 -0.2668  0.6021  0.4526
 5933TIP3    H239215   6.300   5.103   2.084 -0.4901  0.8497  0.4099
 5934TIP3   OH239216   2.122   0.182  14.108 -0.0818 -0.2902 -0.6293
 5934TIP3    H139217   2.173   0.248  14.061 -0.5625  1.4351  1.0927
 5934TIP3    H239218   2.187   0.121  14.143  0.6406  0.7477 -0.1170
 5935TIP3   OH239219   0.130   6.066  15.007 -0.2865  0.0686 -0.3560
 5935TIP3    H139220   0.209   6.052  14.955 -0.5028 -0.7488 -0.4747
 5935TIP3    H239221   0.134   6.001  15.077  0.0493  1.2273  0.7388
 5936TIP3   OH239222   4.210   4.301   0.353 -0.2757 -0.1710 -0.1200
 5936TIP3    H139223   4.135   4.240   0.356  0.2028 -0.7457  0.3276
 5936TIP3    H239224   4.173   4.385   0.382 -0.4531 -0.7720  1.5274
 5937TIP3   OH239225   4.207   0.260  16.918 -0.2642  1.0233 -0.8335
 5937TIP3    H139226   4.180   0.220  16.836 -1.3960 -0.3955  0.1755
 5937TIP3    H239227   4.202   0.354  16.902  0.8320  0.8178 -2.7682
 5938TIP3   OH239228   3.327   1.592   2.753  0.6698 -0.3735  0.0909
 5938TIP3    H139229   3.241   1.556   2.777  1.1471 -1.1150  0.7200
 5938TIP3    H239230   3.389   1.542   2.805  1.4572  0.5000  0.0133
 5939TIP3   OH239231   0.722   1.385   1.989  0.8405 -0.3317 -0.1576
 5939TIP3    H139232   0.673   1.457   1.949  0.9321 -0.1203  0.1100
 5939TIP3    H239233   0.763   1.340   1.915 -0.0043 -0.6963 -0.4147
 5940TIP3   OH239234   3.651   1.617  16.362 -0.2719  0.4702 -0.6137
 5940TIP3    H139235   3.666   1.664  16.444 -0.5662  1.1226 -0.9216
 5940TIP3    H239236   3.619   1.531  16.388 -0.3361  0.6652 -0.0461
 5941TIP3   OH239237   4.402   2.942   6.252  0.0814 -0.3604  0.1211
 5941TIP3    H139238   4.308   2.933   6.270  0.4038 -0.9240  1.6902
 5941TIP3    H239239   4.422   3.032   6.278 -0.0340 -0.2060 -0.3133
 5942TIP3   OH239240   2.750   0.891   3.744  0.2087 -0.2867 -0.2127
 5942TIP3    H139241   2.775   0.800   3.728 -2.5248 -1.0195 -0.8126
 5942TIP3    H239242   2.760   0.902   3.839 -0.1969 -1.4990 -0.0071
 5943TIP3   OH239243   0.155   4.072  11.478 -0.4542  0.3863 -0.0836
 5943TIP3    H139244   0.148   4.041  11.387 -2.4113 -0.4264  0.2884
 5943TIP3    H239245   0.236   4.122  11.480 -1.0861  1.6937 -2.6694
 5944TIP3   OH239246   5.921   1.581   1.820  0.6702  0.7760 -0.4560
 5944TIP3    H139247   5.926   1.676   1.814  0.4664  0.6972 -2.8476
 5944TIP3    H239248   5.878   1.564   1.904  0.9711  2.7578  0.1389
 5945TIP3   OH239249   2.260   6.677  13.291  0.3247 -0.3857  0.0173
 5945TIP3    H139250   2.305   6.761  13.284  0.8620 -0.7268 -0.8180
 5945TIP3    H239251   2.179   6.689  13.241  0.1885 -0.2223  0.2805
 5946TIP3   OH239252   0.262   2.360  14.493 -0.1510  0.5298 -0.0916
 5946TIP3    H139253   0.238   2.306  14.569 -0.1954  0.9237  0.1824
 5946TIP3    H239254   0.324   2.424  14.529 -0.2207  0.7576 -0.3796
 5947TIP3   OH239255   3.832   3.328  10.929  0.2756 -0.0506  0.5141
 5947TIP3    H139256   3.885   3.349  10.853 -1.0170 -1.0320 -0.7298
 5947TIP3    H239257   3.746   3.366  10.909  0.5643  1.9202  2.6799
 5948TIP3   OH239258   5.881   4.816   4.587  0.3698  0.4912  0.1640
 5948TIP3    H139259   5.962   4.829   4.637  0.5034  1.1825 -0.2259
 5948TIP3    H239260   5.827   4.892   4.609  0.6247  1.0559 -1.1103
 5949TIP3   OH239261   5.654   1.161  14.634 -0.1177  1.3162 -0.4901
 5949TIP3    H139262   5.679   1.077  14.594 -0.8282  1.7469 -1.9379
 5949TIP3    H239263   5.714   1.225  14.595  1.0064  1.4038  1.2680
 5950TIP3   OH239264   4.541   3.926   5.485 -0.4519  0.6825  0.6680
 5950TIP3    H139265   4.462   3.953   5.437 -0.1416 -0.4913 -0.5642
 5950TIP3    H239266   4.517   3.934   5.577 -1.7172  1.1705  0.3191
 5951TIP3   OH239267   3.127   4.158   4.697 -0.1233 -0.3378 -0.3899
 5951TIP3    H139268   3.064   4.200   4.756  0.1670  0.8919 -0.9008
 5951TIP3    H239269   3.075   4.097   4.645 -0.3861 -1.4139  1.0862
 5952TIP3   OH239270   5.833   2.605  15.664  0.8429  0.4190  0.4550
 5952TIP3    H139271   5.829   2.626  15.571  0.8097  1.4297  0.6761
 5952TIP3    H239272   5.926   2.589  15.681  0.8731  0.4171  0.2921
 5953TIP3   OH239273   1.449   3.512  14.099 -0.7015 -0.5768 -0.3897
 5953TIP3    H139274   1.456   3.508  14.195  2.1000 -0.6105 -0.5187
 5953TIP3    H239275   1.494   3.593  14.075 -0.7289 -0.9427 -1.7352
 5954TIP3   OH239276   4.462   1.156  12.840 -0.8683 -0.4577 -0.2982
 5954TIP3    H139277   4.499   1.081  12.888  1.8384  0.8611 -0.1163
 5954TIP3    H239278   4.492   1.144  12.750  2.0216  1.6679  0.2404
 5955TIP3   OH239279   2.184   5.200   4.362  0.7729  0.0423  0.3071
 5955TIP3    H139280   2.155   5.109   4.355 -0.2553  0.1726  2.1509
 5955TIP3    H239281   2.159   5.240   4.279  0.4283 -1.1324 -0.1748
 5956TIP3   OH239282   0.727   1.377   0.330  0.4882  0.9330  0.2197
 5956TIP3    H139283   0.651   1.419   0.370 -0.4878 -0.3849 -0.2013
 5956TIP3    H239284   0.696   1.291   0.302  1.6635  1.0129 -1.5215
 5957TIP3   OH239285   1.003   1.943   1.745 -0.3491 -0.4570  0.1257
 5957TIP3    H139286   1.082   1.909   1.788  1.2807  2.3724 -0.3676
 5957TIP3    H239287   1.030   1.958   1.654 -1.2414  1.1792  0.1062
 5958TIP3   OH239288   5.350   4.428   0.131  0.1271 -0.1430 -0.1065
 5958TIP3    H139289   5.324   4.388   0.048 -1.8120 -1.4525  1.0583
 5958TIP3    H239290   5.443   4.408   0.139  0.5160  0.5840 -2.2391
 5959TIP3   OH239291   4.195   1.615  16.037 -0.1868  0.3038 -1.2882
 5959TIP3    H139292   4.273   1.626  15.983 -0.4451  1.1628 -1.4986
 5959TIP3    H239293   4.186   1.699  16.083 -0.0169 -0.3810  0.0309
 5960TIP3   OH239294   3.597   4.531   3.841 -0.1996  0.2265  0.2818
 5960TIP3    H139295   3.650   4.570   3.910  0.3814  2.7370 -1.4778
 5960TIP3    H239296   3.541   4.602   3.810 -1.2991 -1.1427 -1.0317
 5961TIP3   OH239297   1.456   2.987  16.472  0.8136  0.2610 -0.0760
 5961TIP3    H139298   1.485   3.078  16.459  0.7156  0.2065 -0.7338
 5961TIP3    H239299   1.361   2.990  16.462  0.6230  0.3508  1.5677
 5962TIP3   OH239300   1.609   0.591  16.352  0.1019 -0.1681 -0.1649
 5962TIP3    H139301   1.682   0.566  16.409  0.8120 -1.5955 -1.5980
 5962TIP3    H239302   1.532   0.550  16.391  0.7560 -2.0610 -0.7544
 5963TIP3   OH239303   5.650   4.966  14.801 -0.4097  0.0874 -0.5665
 5963TIP3    H139304   5.683   4.889  14.846  0.3276  0.3763 -0.6092
 5963TIP3    H239305   5.555   4.963  14.816 -0.3253 -0.5257 -0.1093
 5964TIP3   OH239306   1.219   4.805   2.064 -0.2413 -0.0033  0.2997
 5964TIP3    H139307   1.162   4.880   2.046 -1.0687 -0.7868 -0.4074
 5964TIP3    H239308   1.159   4.734   2.087  0.3430 -1.1838 -1.6078
 5965TIP3   OH239309   2.078   3.818   1.817  0.1951  0.2610 -0.2986
 5965TIP3    H139310   2.093   3.801   1.724  3.6703  0.1685  0.1537
 5965TIP3    H239311   2.117   3.905   1.832  0.1168  0.0715  1.1413
 5966TIP3   OH239312   6.251   2.386   6.310 -0.1125 -0.1064 -0.8919
 5966TIP3    H139313   6.295   2.343   6.236 -0.5928 -1.1003 -0.6058
 5966TIP3    H239314   6.218   2.314   6.364 -1.0493  0.6231 -0.4704
 5967TIP3   OH239315   6.115   3.690  15.294  0.1032 -0.0712 -0.4229
 5967TIP3    H139316   6.130   3.779  15.324  0.0591  0.3756 -1.6766
 5967TIP3    H239317   6.043   3.697  15.231  1.4708 -0.6363 -2.1441
 5968TIP3   OH239318   1.282   0.012  13.147 -0.4862  0.2154  0.4243
 5968TIP3    H139319   1.306   0.009  13.240 -0.1857 -0.4895  0.3324
 5968TIP3    H239320   1.359   0.048  13.103 -0.1573 -0.5934  0.3135
 5969TIP3   OH239321   1.606   4.199   0.957  0.0339 -0.0601  0.5537
 5969TIP3    H139322   1.530   4.257   0.956 -0.2494 -0.4259  0.8428
 5969TIP3    H239323   1.585   4.132   1.021  0.1411 -0.7764 -0.1416
 5970TIP3   OH239324   6.496   1.213  14.223 -0.4098  0.1823 -0.4054
 5970TIP3    H139325   6.505   1.121  14.198 -1.4431  0.1684 -0.7702
 5970TIP3    H239326   6.402   1.229  14.222 -0.2158  1.3897 -0.8924
 5971TIP3   OH239327   2.363   0.041   3.981  0.2461 -0.2222 -0.3289
 5971TIP3    H139328   2.308   0.060   3.904  0.0644 -0.1806 -0.1899
 5971TIP3    H239329   2.332  -0.044   4.012  0.0703 -0.0708 -0.0854
 5972TIP3   OH239330   0.436   4.614   2.405 -0.0716  0.3260  0.2612
 5972TIP3    H139331   0.346   4.639   2.383  0.0837  2.3148  1.5961
 5972TIP3    H239332   0.489   4.685   2.370  0.6753  0.6580  1.9852
 5973TIP3   OH239333   5.126   5.395   1.264 -0.2721 -0.0235 -0.4119
 5973TIP3    H139334   5.155   5.478   1.302 -0.9951  0.5725 -1.1258
 5973TIP3    H239335   5.205   5.339   1.265  0.6578  1.2049 -1.3577
 5974TIP3   OH239336   6.261   5.434   1.936 -1.0630 -0.0017 -0.2884
 5974TIP3    H139337   6.301   5.355   1.972  1.1531  1.5347  0.9024
 5974TIP3    H239338   6.199   5.463   2.004 -0.5017  0.2557  0.1243
 5975TIP3   OH239339   1.523   6.481  16.476  0.1936  0.0797 -0.2448
 5975TIP3    H139340   1.503   6.444  16.562 -0.0105 -0.3492 -0.4767
 5975TIP3    H239341   1.503   6.575  16.485 -2.9965 -0.4320 -0.7433
 5976TIP3   OH239342   4.267   4.102  16.331  0.6437  0.0877 -0.1284
 5976TIP3    H139343   4.314   4.077  16.410  0.5834 -3.1385 -0.9811
 5976TIP3    H239344   4.299   4.190  16.311  1.9864  0.2799  2.4367
 5977TIP3   OH239345   2.991   0.974   6.165 -0.5257 -0.1998 -0.2803
 5977TIP3    H139346   2.963   1.064   6.147  0.7236  0.2826  0.0629
 5977TIP3    H239347   2.921   0.919   6.130 -1.1821  0.9013 -0.7352
 5978TIP3   OH239348   2.835   3.325   4.243  0.5322  0.5394  0.3054
 5978TIP3    H139349   2.827   3.357   4.333  0.2670 -0.1431  0.5313
 5978TIP3    H239350   2.809   3.399   4.188  1.1768  1.1263  0.7693
 5979TIP3   OH239351   2.749   5.965   1.404  0.2513 -0.2857  0.2124
 5979TIP3    H139352   2.664   5.933   1.374 -0.2257  1.8926 -1.0398
 5979TIP3    H239353   2.804   5.888   1.408 -0.7836 -1.3128 -2.6022
 5980TIP3   OH239354   3.818   5.566   0.161 -0.1961 -0.1492  0.0053
 5980TIP3    H139355   3.749   5.517   0.116  0.7145 -1.7458  0.2577
 5980TIP3    H239356   3.862   5.500   0.214  1.1403  0.9578  0.3083
 5981TIP3   OH239357   0.163   2.964   4.185  0.4904  0.4273 -0.1450
 5981TIP3    H139358   0.078   2.928   4.210  1.8018 -1.8044  1.4770
 5981TIP3    H239359   0.205   2.987   4.268  2.7058 -1.6297 -0.5889
 5982TIP3   OH239360   4.198   4.877  15.785 -0.1055 -0.0226 -0.3331
 5982TIP3    H139361   4.272   4.926  15.821 -0.2455  1.3259 -1.7756
 5982TIP3    H239362   4.133   4.876  15.854 -0.4069  2.5636 -0.5111
 5983TIP3   OH239363   4.092   1.913  14.211 -0.0825 -0.7200 -0.2897
 5983TIP3    H139364   4.149   1.912  14.134 -0.2226 -1.5252 -0.3861
 5983TIP3    H239365   4.006   1.889  14.179 -0.2464 -0.5922  0.0439
 5984TIP3   OH239366   1.556   5.480  16.856  0.1916 -0.2651  0.0444
 5984TIP3    H139367   1.602   5.397  16.869 -1.4198 -1.5188 -1.8301
 5984TIP3    H239368   1.625   5.543  16.834  1.3611 -1.2179  0.8920
 5985TIP3   OH239369   0.248   3.337   4.446 -0.2701  0.0305  0.0018
 5985TIP3    H139370   0.161   3.378   4.447  0.4192  1.5305  1.1527
 5985TIP3    H239371   0.289   3.370   4.366 -0.7971 -0.8153 -0.6344
 5986TIP3   OH239372   1.351   1.680  14.729 -0.2361  0.3853  0.4120
 5986TIP3    H139373   1.300   1.675  14.810  0.9119  0.8368  1.1928
 5986TIP3    H239374   1.329   1.600  14.682 -1.0504  0.1978  1.0912
 5987TIP3   OH239375   0.986   6.137  16.725 -0.0300  0.0102  0.2509
 5987TIP3    H139376   0.968   6.067  16.662 -2.1708 -1.1739  2.0377
 5987TIP3    H239377   0.954   6.217  16.682  1.2569 -0.2316 -1.2838
 5988TIP3   OH239378   1.909   6.308   1.409 -0.0144  0.2232  0.0485
 5988TIP3    H139379   1.864   6.323   1.492 -2.1262 -0.3534 -0.9269
 5988TIP3    H239380   1.954   6.390   1.391  1.9715 -0.2006  2.5702
 5989TIP3   OH239381   1.373   5.609  15.592  0.3920 -0.7363  0.0082
 5989TIP3    H139382   1.420   5.561  15.524  1.9641  0.4484  0.1973
 5989TIP3    H239383   1.442   5.646  15.647 -0.8268 -0.7468  1.6089
 5990TIP3   OH239384   3.326   1.356   5.532 -0.5532  0.3157 -0.1011
 5990TIP3    H139385   3.266   1.409   5.586  0.6506  1.6284  0.0070
 5990TIP3    H239386   3.412   1.396   5.546 -0.1645  0.5926 -2.8879
 5991TIP3   OH239387   4.488   6.413  17.207  0.1042 -0.7282  0.0481
 5991TIP3    H139388   4.464   6.482  17.145  0.5792  0.9601  1.6589
 5991TIP3    H239389   4.405   6.372  17.230 -0.2357 -0.4455 -0.6271
 5992TIP3   OH239390   3.145   6.715   5.534  0.3494  0.5833  0.3753
 5992TIP3    H139391   3.096   6.789   5.571  0.8078  0.9159  0.3229
 5992TIP3    H239392   3.084   6.676   5.471  0.8285  2.2463 -1.2270
 5993TIP3   OH239393   0.789   6.533   4.914  0.5351 -0.0908  0.2154
 5993TIP3    H139394   0.798   6.528   5.010 -2.8143 -1.2274  0.5923
 5993TIP3    H239395   0.751   6.619   4.898 -0.2511 -0.4522  0.0882
 5994TIP3   OH239396   1.696   0.864   1.264 -0.3316 -0.1114 -0.6783
 5994TIP3    H139397   1.708   0.938   1.204  2.7519 -1.4635 -1.9485
 5994TIP3    H239398   1.766   0.874   1.328 -1.5236 -0.5384  0.7457
 5995TIP3   OH239399   1.030   1.456  12.907  0.5183  0.1612  0.1359
 5995TIP3    H139400   1.026   1.551  12.905  1.8991  0.2739  1.0502
 5995TIP3    H239401   0.940   1.427  12.921  0.0938  1.3224 -0.1264
 5996TIP3   OH239402   6.016   4.750  15.171  0.2629  0.7147 -0.7773
 5996TIP3    H139403   5.947   4.758  15.238  1.3238 -1.2454  0.6329
 5996TIP3    H239404   6.069   4.829  15.182 -0.1125  0.8613  0.0906
 5997TIP3   OH239405   2.607   3.423  11.850 -0.1876  0.2020  0.0195
 5997TIP3    H139406   2.544   3.352  11.838  0.3916 -0.4721  0.7986
 5997TIP3    H239407   2.570   3.475  11.921  0.1875 -0.2798  0.5809
 5998TIP3   OH239408   0.799   3.607  15.736  0.0068 -0.1086  0.3134
 5998TIP3    H139409   0.771   3.698  15.723  1.1214  0.0515 -1.2199
 5998TIP3    H239410   0.824   3.603  15.828  1.0228  1.4592  0.1408
 5999TIP3   OH239411   0.379   4.433   3.536 -0.1335 -0.4302  0.1605
 5999TIP3    H139412   0.312   4.494   3.506 -0.5129 -0.0274  1.7393
 5999TIP3    H239413   0.446   4.489   3.575 -0.5775 -0.9873  1.8114
 6000TIP3   OH239414   5.025   0.693  16.527 -0.4784 -0.2570  0.1706
 6000TIP3    H139415   4.986   0.648  16.601 -0.4314  0.0578  0.3889
 6000TIP3    H239416   5.026   0.785  16.553 -3.1605  0.3123 -1.3795
 6001TIP3   OH239417   5.461   6.527  10.971  0.2015 -0.1660 -0.2579
 6001TIP3    H139418   5.423   6.442  10.946  0.6368 -0.1228 -1.1161
 6001TIP3    H239419   5.519   6.549  10.898  0.1007  0.8719 -0.0350
 6002TIP3   OH239420   4.988   5.785  12.304 -0.5283 -0.2156 -0.0094
 6002TIP3    H139421   5.044   5.745  12.238 -0.0901  0.7295 -0.2309
 6002TIP3    H239422   5.047   5.814  12.373 -0.9208 -0.6524  0.5203
 6003TIP3   OH239423   4.220   1.061  16.394 -0.0012  0.0303 -0.3163
 6003TIP3    H139424   4.204   1.138  16.340 -1.9995 -0.3309 -0.2974
 6003TIP3    H239425   4.293   1.016  16.351  0.7884  1.5755 -0.6718
 6004TIP3   OH239426   2.025   3.138   5.687 -0.3181  0.0623  0.0255
 6004TIP3    H139427   2.006   3.092   5.769  0.5878  0.9948  0.7798
 6004TIP3    H239428   2.015   3.071   5.620 -1.1592 -0.7042  0.8778
 6005TIP3   OH239429   0.670   4.897  15.783  0.1519  0.4246 -0.0050
 6005TIP3    H139430   0.741   4.848  15.741  0.7034 -0.1138  1.4910
 6005TIP3    H239431   0.619   4.932  15.710 -1.4057 -3.9101 -1.2879
 6006TIP3   OH239432   1.901   6.539  10.848  0.1205  0.1501 -0.2760
 6006TIP3    H139433   1.894   6.508  10.758  1.1341  1.6424 -0.9140
 6006TIP3    H239434   1.825   6.501  10.892  0.9449 -2.6769 -1.0768
 6007TIP3   OH239435   5.070   0.382   3.342  0.0661 -0.2551 -0.4763
 6007TIP3    H139436   5.093   0.289   3.341  0.8143 -0.0762 -0.1526
 6007TIP3    H239437   5.026   0.395   3.426  1.0247 -0.0659 -0.0001
 6008TIP3   OH239438   5.578   0.864   4.088  0.1646 -0.3858  0.2373
 6008TIP3    H139439   5.605   0.930   4.152  0.7677  0.0690 -0.4640
 6008TIP3    H239440   5.637   0.877   4.014 -0.0180 -1.4122 -0.1028
 6009TIP3   OH239441   1.025   4.162  14.190 -0.3646 -0.1673 -0.4518
 6009TIP3    H139442   1.079   4.241  14.187 -1.9630  0.9401 -1.6822
 6009TIP3    H239443   1.008   4.140  14.099 -0.9370 -1.2427 -0.1075
 6010TIP3   OH239444   4.319   1.724  16.664  0.3214 -0.2373  0.4076
 6010TIP3    H139445   4.288   1.652  16.608  1.0072  0.4464 -0.9054
 6010TIP3    H239446   4.403   1.693  16.698  1.1486  0.3013 -1.0202
 6011TIP3   OH239447   5.258   4.020   4.807  0.2684  0.2386 -0.0803
 6011TIP3    H139448   5.172   4.043   4.773  0.1799  0.6923  0.4231
 6011TIP3    H239449   5.318   4.081   4.763  0.2354  0.3942  0.0855
 6012TIP3   OH239450   1.833   3.541  14.281  0.2954  0.6790 -0.0566
 6012TIP3    H139451   1.851   3.513  14.191  1.3474 -0.6180  0.5186
 6012TIP3    H239452   1.739   3.557  14.283 -0.4300 -2.8116 -0.5137
 6013TIP3   OH239453   4.722   5.385   3.243 -0.3218 -0.0976  0.3166
 6013TIP3    H139454   4.691   5.369   3.153  0.3779 -0.3482  0.1160
 6013TIP3    H239455   4.814   5.407   3.233  0.0063 -1.0774  1.0575
 6014TIP3   OH239456   0.433   5.274  13.329  0.4104 -0.2752  0.3097
 6014TIP3    H139457   0.389   5.207  13.277  1.0873 -1.2293  0.9366
 6014TIP3    H239458   0.378   5.286  13.406  1.5599 -2.0441  1.4880
 6015TIP3   OH239459   6.669   5.374  13.543  0.7657 -0.3218 -0.7642
 6015TIP3    H139460   6.614   5.353  13.468 -2.2287  1.0317  0.8913
 6015TIP3    H239461   6.685   5.290  13.586 -1.0161 -0.6540 -0.6772
 6016TIP3   OH239462   3.524   3.159  14.305  0.0837  0.4641  0.4065
 6016TIP3    H139463   3.599   3.198  14.260  1.3405  0.0042  2.0055
 6016TIP3    H239464   3.534   3.065  14.290 -1.3633  0.5066 -1.0887
 6017TIP3   OH239465   6.199   2.679   5.891  0.0671  0.4138 -0.5324
 6017TIP3    H139466   6.233   2.590   5.895  2.7052  1.3436  0.2568
 6017TIP3    H239467   6.132   2.683   5.959  0.8315 -0.6351  0.3192
 6018TIP3   OH239468   1.029   3.480   6.272 -0.2201 -0.1768 -0.2899
 6018TIP3    H139469   1.031   3.505   6.364  1.6467 -0.1461 -0.2944
 6018TIP3    H239470   0.992   3.557   6.227 -0.0267  0.2762  0.3085
 6019TIP3   OH239471   1.377   5.184  16.515  0.2447  0.0328  0.3026
 6019TIP3    H139472   1.435   5.133  16.459  0.7967  1.0858 -0.1219
 6019TIP3    H239473   1.314   5.224  16.455 -2.0751 -2.4586  0.9142
 6020TIP3   OH239474   6.555   0.049  15.302 -0.0092  0.4353  0.4887
 6020TIP3    H139475   6.618   0.045  15.230  0.7695  0.8326  1.1445
 6020TIP3    H239476   6.490   0.114  15.273 -0.5709 -0.5397 -0.5265
 6021TIP3   OH239477   6.160   5.671   2.819 -0.5229 -0.1738  0.3983
 6021TIP3    H139478   6.139   5.765   2.817 -0.3925 -0.0991  1.6250
 6021TIP3    H239479   6.078   5.628   2.794  0.1626  0.2908 -3.0909
 6022TIP3   OH239480   0.293   1.915  15.493 -0.6974  0.6164  0.1858
 6022TIP3    H139481   0.358   1.874  15.550 -1.2596 -0.7359 -0.0991
 6022TIP3    H239482   0.236   1.964  15.552 -0.9271 -0.2973  0.7476
 6023TIP3   OH239483   6.507   2.634   5.210 -0.2495 -0.1931 -0.0043
 6023TIP3    H139484   6.592   2.670   5.235 -0.2560  0.3878 -0.7922
 6023TIP3    H239485   6.444   2.679   5.267 -0.3130  1.4522 -1.3070
 6024TIP3   OH239486   1.597   6.168   3.650  0.3781  0.1786  0.4440
 6024TIP3    H139487   1.584   6.203   3.738 -0.8813 -0.2060  0.4246
 6024TIP3    H239488   1.670   6.106   3.659  1.4518  1.4354  0.8312
 6025TIP3   OH239489   4.839   2.628   1.906  0.2721 -0.1631  0.2129
 6025TIP3    H139490   4.785   2.614   1.984 -0.2662 -0.6302 -0.2357
 6025TIP3    H239491   4.869   2.719   1.913 -1.5098  0.4776 -0.1063
 6026TIP3   OH239492   4.710   4.329  13.659 -0.0922 -0.0102  0.0761
 6026TIP3    H139493   4.661   4.381  13.723 -1.4586 -0.8251 -0.2698
 6026TIP3    H239494   4.741   4.393  13.595  1.6000  0.8755  1.6733
 6027TIP3   OH239495   0.480   6.548  11.490 -0.3774 -0.6090 -0.4186
 6027TIP3    H139496   0.394   6.526  11.526 -0.2715 -0.1757  0.1048
 6027TIP3    H239497   0.462   6.618  11.427 -0.2526  0.4485  0.6895
 6028TIP3   OH239498   1.814   5.914   2.930 -0.1842 -0.1176  0.0192
 6028TIP3    H139499   1.762   5.940   2.854 -1.7350  1.3477  1.5049
 6028TIP3    H239500   1.904   5.936   2.906 -0.5899 -0.0296 -1.5280
 6029TIP3   OH239501   6.582   3.073  12.925  0.0696  0.3706 -0.5665
 6029TIP3    H139502   6.661   3.126  12.918 -1.3812  2.5863 -1.0635
 6029TIP3    H239503   6.548   3.090  13.013  0.2200 -0.7433 -0.2712
 6030TIP3   OH239504   1.759   5.336  14.034 -0.2349  0.6056 -0.3919
 6030TIP3    H139505   1.837   5.294  14.072  0.7581  1.1708 -1.6918
 6030TIP3    H239506   1.761   5.425  14.068 -1.0412  0.2584  0.5702
 6031TIP3   OH239507   3.932   4.882  12.438 -0.6396  0.0838 -0.1364
 6031TIP3    H139508   3.870   4.905  12.507  0.7004  2.7854  0.2951
 6031TIP3    H239509   3.967   4.797  12.464 -2.7908 -0.6732  0.5304
 6032TIP3   OH239510   4.266   4.719   4.531  0.0954 -0.4563  0.3630
 6032TIP3    H139511   4.333   4.656   4.559  0.9906 -0.2396 -1.1336
 6032TIP3    H239512   4.204   4.667   4.480 -1.8182 -0.9533  2.9798
 6033TIP3   OH239513   0.485   1.849   6.157  0.1195  0.4999  0.1538
 6033TIP3    H139514   0.533   1.771   6.183  0.0180  0.3880  0.0100
 6033TIP3    H239515   0.552   1.916   6.143  0.1291  0.7364  1.2790
 6034TIP3   OH239516   3.345   1.000   2.496 -0.1261 -0.5713  0.1317
 6034TIP3    H139517   3.313   0.914   2.523  1.0433 -1.0003  0.1821
 6034TIP3    H239518   3.345   1.052   2.577  0.9148 -1.0804  0.4630
 6035TIP3   OH239519   1.672   1.222   4.537 -0.2317 -0.5318  0.1283
 6035TIP3    H139520   1.580   1.242   4.518 -0.0988 -0.1834 -0.1535
 6035TIP3    H239521   1.690   1.272   4.617 -0.4909 -1.1706  0.5925
 6036TIP3   OH239522   4.225   2.727  11.041 -0.6099  0.4400  0.2193
 6036TIP3    H139523   4.169   2.670  11.093  1.3878 -2.0043 -0.1393
 6036TIP3    H239524   4.300   2.746  11.097  0.5309 -0.4370 -0.9659
 6037TIP3   OH239525   4.618   3.837   2.995  0.2925 -0.2499  0.2884
 6037TIP3    H139526   4.574   3.907   3.044 -0.8709 -1.4811  1.0492
 6037TIP3    H239527   4.613   3.761   3.052 -0.5606 -1.5921 -1.4697
 6038TIP3   OH239528   5.722   3.517  15.363  0.4845 -0.0999 -0.9852
 6038TIP3    H139529   5.740   3.610  15.352  3.0329 -0.4813 -0.8226
 6038TIP3    H239530   5.787   3.488  15.428 -0.7056 -1.8542 -0.5129
 6039TIP3   OH239531   5.159   2.211  12.862 -0.1253 -0.4296 -0.0671
 6039TIP3    H139532   5.205   2.242  12.784  1.3432  2.0590  1.6688
 6039TIP3    H239533   5.098   2.283  12.883 -0.0108 -0.7619  1.4500
 6040TIP3   OH239534   6.429   4.557  11.787  0.2473 -0.0491 -0.0999
 6040TIP3    H139535   6.349   4.514  11.757  0.2542 -1.1320  1.3174
 6040TIP3    H239536   6.400   4.614  11.858  0.6952 -0.2758  0.2728
 6041TIP3   OH239537   2.936   0.568   4.585 -0.3568 -0.3617  0.1859
 6041TIP3    H139538   2.851   0.543   4.620 -0.0793  1.6805  2.5860
 6041TIP3    H239539   2.923   0.658   4.555  0.7334 -0.3691 -0.3433
 6042TIP3   OH239540   5.277   1.140   5.559  0.8066 -0.8639  0.3397
 6042TIP3    H139541   5.246   1.134   5.649  1.8679 -1.7004  0.6806
 6042TIP3    H239542   5.221   1.081   5.509 -0.1088 -0.0144  0.3420
 6043TIP3   OH239543   6.408   3.785  16.000  0.2032  0.5587  0.6158
 6043TIP3    H139544   6.395   3.870  15.959  1.5686 -0.2982 -1.8331
 6043TIP3    H239545   6.480   3.799  16.062  0.2706  1.2492  0.3877
 6044TIP3   OH239546   3.024   3.656   3.249 -0.2719  0.3636  0.0109
 6044TIP3    H139547   3.117   3.632   3.250 -0.5618 -0.8338 -0.1976
 6044TIP3    H239548   3.004   3.669   3.156 -0.2906  0.7648  0.0668
 6045TIP3   OH239549   1.224   5.606   5.103 -0.2496 -0.6638 -0.2062
 6045TIP3    H139550   1.136   5.639   5.118  0.1138  0.5683 -0.6255
 6045TIP3    H239551   1.281   5.671   5.143  0.5124 -0.6823 -1.2161
 6046TIP3   OH239552   2.316   5.793   4.692 -0.0408  0.3179 -0.2782
 6046TIP3    H139553   2.276   5.706   4.692 -1.8380  1.1206 -0.9038
 6046TIP3    H239554   2.382   5.788   4.761  1.9373 -2.4203 -2.1472
 6047TIP3   OH239555   3.899   3.045   3.404  0.9640 -0.2548 -0.2107
 6047TIP3    H139556   3.892   3.068   3.311 -0.9704  0.9963  0.1848
 6047TIP3    H239557   3.895   3.129   3.450  1.3578 -0.8878  1.0301
 6048TIP3   OH239558   0.084   0.182   1.647 -0.3046 -0.4679 -0.0858
 6048TIP3    H139559  -0.005   0.174   1.614 -0.2322  1.8421 -1.0156
 6048TIP3    H239560   0.106   0.094   1.678 -2.0234 -1.6990 -2.0793
 6049TIP3   OH239561   6.145   6.132  16.214 -0.0370 -0.2594 -0.1506
 6049TIP3    H139562   6.216   6.080  16.177 -0.2822  0.4131 -1.6452
 6049TIP3    H239563   6.066   6.083  16.192 -0.0723 -1.1578  1.7661
 6050TIP3   OH239564   2.384   6.589  16.406  0.0724 -0.7252 -0.4173
 6050TIP3    H139565   2.306   6.622  16.361 -0.6639  0.0997  1.3801
 6050TIP3    H239566   2.355   6.507  16.446  0.1945 -0.5361  0.0602
 6051TIP3   OH239567   6.546   1.288   1.647 -0.0391  0.1779  0.1128
 6051TIP3    H139568   6.474   1.296   1.585  0.2652 -1.4196 -0.4817
 6051TIP3    H239569   6.574   1.378   1.663 -2.7889  0.9437  1.1555
 6052TIP3   OH239570   0.237   2.530  13.346  0.4012  0.1095  0.6786
 6052TIP3    H139571   0.230   2.572  13.432  0.3548  1.6336 -0.0283
 6052TIP3    H239572   0.316   2.477  13.351  0.1310 -0.2112  1.8055
 6053TIP3   OH239573   4.078   4.965   2.258 -0.3636 -0.1784  0.0422
 6053TIP3    H139574   4.052   5.011   2.338  1.4370  1.8564 -0.4426
 6053TIP3    H239575   4.173   4.977   2.253 -0.6750  2.4772 -3.9138
 6054TIP3   OH239576   3.986   6.742  10.879  0.0090  0.3075 -0.7177
 6054TIP3    H139577   3.934   6.662  10.881 -1.4914  1.2645 -0.2790
 6054TIP3    H239578   3.923   6.813  10.891  1.4356  1.5141  0.0504
 6055TIP3   OH239579   3.030   1.989   0.585 -0.6107 -0.4562 -0.4969
 6055TIP3    H139580   3.098   2.008   0.649 -0.0834 -0.3774 -1.0740
 6055TIP3    H239581   2.958   1.953   0.637 -1.1405  1.8401  0.4777
 6056TIP3   OH239582   5.566   6.621   2.213  0.2121  0.4420 -0.5315
 6056TIP3    H139583   5.544   6.576   2.131 -1.1188 -1.6806  0.8825
 6056TIP3    H239584   5.494   6.683   2.227 -1.2578 -1.3764  0.4736
 6057TIP3   OH239585   0.147   4.872   1.729  0.4794 -0.4080 -0.0927
 6057TIP3    H139586   0.193   4.948   1.694 -1.5903  0.2622 -1.5828
 6057TIP3    H239587   0.070   4.909   1.772  1.0133 -1.5094  1.9345
 6058TIP3   OH239588   5.975   5.493   5.292 -0.0219  0.0463 -0.9637
 6058TIP3    H139589   5.981   5.587   5.273  0.8433  0.6806  1.8627
 6058TIP3    H239590   6.065   5.461   5.285 -0.0315 -0.1569 -0.2660
 6059TIP3   OH239591   3.498   2.171   3.952 -0.6015  0.2329  0.2651
 6059TIP3    H139592   3.417   2.121   3.953 -0.4962 -0.0785 -2.3009
 6059TIP3    H239593   3.526   2.171   3.861  3.5569 -1.6625  1.3225
 6060TIP3   OH239594   0.873   5.001   0.816  0.7525  0.4742  0.4287
 6060TIP3    H139595   0.898   5.057   0.890 -1.7228  1.5903  0.5315
 6060TIP3    H239596   0.782   5.027   0.796  0.8684 -0.7661 -2.1151
 6061TIP3   OH239597   3.312   1.304   1.514  0.0482 -0.7652 -0.6425
 6061TIP3    H139598   3.316   1.380   1.573 -2.2724  0.5538 -2.0472
 6061TIP3    H239599   3.361   1.236   1.560  0.2097  0.8587  1.7794
 6062TIP3   OH239600   2.173   0.884   5.160  0.0613  0.5849 -0.0921
 6062TIP3    H139601   2.217   0.831   5.227 -0.6209  0.0516 -0.0561
 6062TIP3    H239602   2.097   0.921   5.204  0.0037  0.8098 -0.3785
 6063TIP3   OH239603   0.223   3.453  15.432 -0.6620 -0.0322 -0.1736
 6063TIP3    H139604   0.200   3.382  15.492 -0.1419  1.0251  1.3514
 6063TIP3    H239605   0.292   3.416  15.377 -0.8365 -0.9068  0.1810
 6064TIP3   OH239606   6.565   4.210   1.337  0.2546  0.3938  0.5111
 6064TIP3    H139607   6.657   4.230   1.325  0.7958 -1.7977  0.6139
 6064TIP3    H239608   6.560   4.170   1.424  0.0261 -3.4546 -1.1037
 6065TIP3   OH239609   4.688   2.104  15.609 -0.0738 -0.3534  0.3065
 6065TIP3    H139610   4.623   2.094  15.540 -0.2264 -2.7946  0.7105
 6065TIP3    H239611   4.673   2.193  15.643 -1.0505  0.3004 -1.6809
 6066TIP3   OH239612   2.645   4.402  13.498 -0.3762 -0.1660 -0.4646
 6066TIP3    H139613   2.719   4.454  13.529 -0.3715  0.7709 -1.9554
 6066TIP3    H239614   2.655   4.318  13.542  0.5741  0.5243  0.7056
 6067TIP3   OH239615   0.507   3.383   1.944 -0.7588 -0.3213  0.0447
 6067TIP3    H139616   0.471   3.432   1.870 -1.8053 -1.0471  0.0494
 6067TIP3    H239617   0.436   3.382   2.008 -0.4807 -1.1768  0.3512
 6068TIP3   OH239618   3.050   4.718  13.189  0.4206 -0.0092  0.2948
 6068TIP3    H139619   3.117   4.707  13.122  0.7604 -1.0998  0.7927
 6068TIP3    H239620   3.008   4.632  13.196 -0.5997  0.4777  0.4567
 6069TIP3   OH239621   0.771   6.706  13.626 -0.3504  0.2888  0.5204
 6069TIP3    H139622   0.766   6.801  13.610 -0.2044  0.5489  1.9481
 6069TIP3    H239623   0.683   6.682  13.654 -0.6884 -0.2257 -0.9062
 6070TIP3   OH239624   0.962   3.598  12.934  0.3924 -0.2878 -0.4222
 6070TIP3    H139625   1.008   3.567  12.856 -0.2734  0.9097 -1.3292
 6070TIP3    H239626   0.970   3.527  12.997  0.2410 -1.6261 -1.8640
 6071TIP3   OH239627   5.176   0.747   5.652 -0.0707  0.0541 -0.8993
 6071TIP3    H139628   5.144   0.757   5.742 -0.4564 -0.3115 -0.9916
 6071TIP3    H239629   5.266   0.780   5.655  0.1230 -0.5116 -0.2393
 6072TIP3   OH239630   6.614   4.194  11.812  0.3765 -0.4416 -0.3032
 6072TIP3    H139631   6.705   4.220  11.803  0.4754 -1.0093 -1.0274
 6072TIP3    H239632   6.617   4.099  11.823 -0.1723 -0.6130 -1.4669
 6073TIP3   OH239633   6.180   5.311  17.016 -0.0216 -0.5653  0.0798
 6073TIP3    H139634   6.183   5.394  17.062  1.4240  0.3573 -1.5392
 6073TIP3    H239635   6.272   5.289  16.999 -0.4474 -1.1993 -1.6619
 6074TIP3   OH239636   2.876   1.362   1.580  0.4765  0.2415 -0.0751
 6074TIP3    H139637   2.821   1.312   1.641  0.8687  0.4976  0.4909
 6074TIP3    H239638   2.958   1.313   1.576  1.0376  1.0735  0.8442
 6075TIP3   OH239639   4.671   2.776   1.258  0.1649  0.1573 -0.1807
 6075TIP3    H139640   4.741   2.831   1.294 -0.2912  0.8611 -0.3505
 6075TIP3    H239641   4.704   2.686   1.267  1.2442  0.4956 -0.5887
 6076TIP3   OH239642   3.754   2.497   4.201  0.0874 -0.1981 -0.3773
 6076TIP3    H139643   3.703   2.537   4.272 -0.0020 -0.5108 -0.2678
 6076TIP3    H239644   3.689   2.454   4.146  0.1476  0.1171 -0.7011
 6077TIP3   OH239645   1.603   3.285   1.958  0.2572 -0.6120 -0.1508
 6077TIP3    H139646   1.552   3.238   1.892  0.2668  0.1856 -0.7408
 6077TIP3    H239647   1.669   3.332   1.908  0.4813 -0.2734  0.4606
 6078TIP3   OH239648   0.504   2.662  16.050 -0.4127 -0.3215  0.3825
 6078TIP3    H139649   0.533   2.752  16.063 -0.5933 -0.2262  0.1358
 6078TIP3    H239650   0.578   2.618  16.008 -0.3441 -0.2774  0.4565
 6079TIP3   OH239651   0.118   0.909  12.076  0.8452 -0.3110  0.3928
 6079TIP3    H139652   0.207   0.899  12.111  0.8273 -1.2903  0.1933
 6079TIP3    H239653   0.061   0.881  12.148  0.7938 -1.8856 -0.2118
 6080TIP3   OH239654   4.055   5.414  12.508  0.1720  0.5181  0.1554
 6080TIP3    H139655   4.125   5.469  12.472 -0.4471  0.1637 -1.6354
 6080TIP3    H239656   4.017   5.370  12.433 -1.6772  0.3110  1.1610
 6081TIP3   OH239657   5.929   2.922  15.618 -0.3413  0.0286  0.1673
 6081TIP3    H139658   5.879   2.971  15.554  1.3236 -0.5537 -1.6927
 6081TIP3    H239659   5.887   2.836  15.620  0.2117 -0.2977 -1.0093
 6082TIP3   OH239660   3.203   3.995  14.419  0.1261  0.0968 -0.3832
 6082TIP3    H139661   3.195   4.082  14.457 -0.7942 -0.7897  1.6334
 6082TIP3    H239662   3.114   3.959  14.424  0.1851 -0.4926 -2.4743
 6083TIP3   OH239663   5.831   5.219  16.342  0.1062  0.7598 -0.0965
 6083TIP3    H139664   5.770   5.207  16.270  1.7671 -1.0598 -1.3108
 6083TIP3    H239665   5.784   5.273  16.405 -2.1365  0.7371 -1.6486
 6084TIP3   OH239666   2.703   3.087  15.158 -0.4250  0.1562  0.3835
 6084TIP3    H139667   2.631   3.068  15.218 -0.1001  0.2428  0.8052
 6084TIP3    H239668   2.660   3.105  15.074 -0.7939 -1.6538  0.1375
 6085TIP3   OH239669   0.121   2.702   1.182 -0.0823  0.6085  0.4890
 6085TIP3    H139670   0.187   2.726   1.117  0.9720  1.4209  1.8253
 6085TIP3    H239671   0.039   2.737   1.146  0.2470 -0.0997 -1.0130
 6086TIP3   OH239672   0.612   0.949   3.326  0.2394 -0.6624 -0.0144
 6086TIP3    H139673   0.608   0.987   3.238  0.8871 -3.0596 -1.1688
 6086TIP3    H239674   0.549   1.000   3.377 -1.8512 -0.6253 -2.4425
 6087TIP3   OH239675   2.389   1.987  11.933  0.1150  0.1958  0.5248
 6087TIP3    H139676   2.417   1.985  12.025 -0.6956 -0.4718  0.7642
 6087TIP3    H239677   2.333   1.910  11.923 -0.2424  0.5660 -0.3927
 6088TIP3   OH239678   0.745   0.098  12.221 -0.1193 -0.2003  0.3847
 6088TIP3    H139679   0.806   0.162  12.184  0.6571 -0.5982  0.9311
 6088TIP3    H239680   0.735   0.031  12.153 -0.5420  0.2515  0.0041
 6089TIP3   OH239681   0.920   4.172  14.500 -0.9098 -0.2738  0.2154
 6089TIP3    H139682   0.881   4.233  14.438  0.9873 -0.0792 -0.8486
 6089TIP3    H239683   0.978   4.116  14.448 -0.3440 -1.0490  1.5880
 6090TIP3   OH239684   2.575   4.158  15.141  0.1392 -0.0684 -0.0099
 6090TIP3    H139685   2.624   4.238  15.161 -0.2003 -0.1278  1.1450
 6090TIP3    H239686   2.612   4.093  15.200  0.3090 -0.7439 -0.8385
 6091TIP3   OH239687   5.650   4.390  16.422 -0.0842  0.4898  0.2603
 6091TIP3    H139688   5.604   4.308  16.435 -2.3136  1.2485 -1.9891
 6091TIP3    H239689   5.695   4.380  16.338  0.0012  1.3965  0.1794
 6092TIP3   OH239690   5.770   4.949  15.944  0.2655 -0.1744  0.6659
 6092TIP3    H139691   5.696   4.932  15.886  1.9594  0.2243 -1.7230
 6092TIP3    H239692   5.816   4.865  15.950 -0.5186 -0.5339  2.4864
 6093TIP3   OH239693   0.555   5.744   2.511  0.9172 -0.3554  0.1986
 6093TIP3    H139694   0.537   5.684   2.438  0.7543 -0.9885  0.7436
 6093TIP3    H239695   0.477   5.737   2.567  0.4542  1.1314 -0.2276
 6094TIP3   OH239696   2.001   5.786  14.934 -0.1564  0.3131  0.3498
 6094TIP3    H139697   2.016   5.803  15.027  1.8380  0.5020  0.0425
 6094TIP3    H239698   2.063   5.844  14.889  2.0078 -2.7212 -0.9462
 6095TIP3   OH239699   1.307   1.519   1.741 -0.3211  0.4853  0.2769
 6095TIP3    H139700   1.314   1.443   1.683  1.5657  0.1088  0.9141
 6095TIP3    H239701   1.261   1.485   1.818 -1.5533  0.6123 -0.3954
 6096TIP3   OH239702   0.961   5.139  10.600 -0.1178 -0.3703  0.9066
 6096TIP3    H139703   1.029   5.205  10.612  0.2055 -0.4087 -0.5401
 6096TIP3    H239704   0.879   5.189  10.597  0.1207 -0.0333 -0.1328
 6097TIP3   OH239705   5.443   2.566  15.195 -0.0524 -0.3096  0.7771
 6097TIP3    H139706   5.445   2.660  15.182 -1.1242 -0.5432 -1.4308
 6097TIP3    H239707   5.503   2.531  15.129  0.1592 -1.1981  1.4222
 6098TIP3   OH239708   5.781   0.832  16.735  0.2716 -0.9922  0.4261
 6098TIP3    H139709   5.815   0.860  16.820  0.3426 -2.1956  0.8159
 6098TIP3    H239710   5.686   0.839  16.744  0.2879 -0.8549  0.5067
 6099TIP3   OH239711   0.632   3.464   4.356  0.6468 -0.4227  0.7187
 6099TIP3    H139712   0.689   3.418   4.418 -0.3389 -1.9128  0.5889
 6099TIP3    H239713   0.686   3.477   4.278  1.2433 -0.4649  1.1182
 6100TIP3   OH239714   1.378   2.428  12.498 -0.2125  0.4780 -0.3211
 6100TIP3    H139715   1.293   2.471  12.500 -0.3512  0.2922  3.0417
 6100TIP3    H239716   1.433   2.488  12.447 -2.0436  1.1111 -1.6616
 6101TIP3   OH239717   6.708   0.987   1.013  0.0717  0.4169  0.5581
 6101TIP3    H139718   6.639   0.930   0.981 -0.5331  0.8070  1.1296
 6101TIP3    H239719   6.662   1.065   1.044  0.7940  0.7991  0.6942
 6102TIP3   OH239720   3.634   3.914  13.928 -0.9876 -0.0524 -0.9637
 6102TIP3    H139721   3.615   3.847  13.994 -1.9162  0.7860 -0.3661
 6102TIP3    H239722   3.558   3.911  13.869 -1.3712  0.9445 -0.5345
 6103TIP3   OH239723   4.871   1.053  10.156 -0.0047 -0.3921 -0.3358
 6103TIP3    H139724   4.860   0.961  10.179 -1.5314 -0.7137 -2.1125
 6103TIP3    H239725   4.793   1.096  10.194 -0.0203 -0.0871 -0.7077
 6104TIP3   OH239726   5.777   0.041   0.189 -0.2885  0.4647 -0.4869
 6104TIP3    H139727   5.720  -0.012   0.244 -1.0177 -0.5350 -2.1253
 6104TIP3    H239728   5.861  -0.005   0.191  0.2019  1.3447  1.0565
 6105TIP3   OH239729   2.016   5.010  15.143 -0.2086  0.1591 -0.4879
 6105TIP3    H139730   2.098   5.057  15.155 -0.2590 -0.0527  0.7539
 6105TIP3    H239731   1.968   5.061  15.077  1.0367  0.1005 -1.4665
 6106TIP3   OH239732   1.477   1.515   6.009 -0.0536  0.3056  0.2833
 6106TIP3    H139733   1.385   1.487   6.009 -0.3508  1.0895 -1.6463
 6106TIP3    H239734   1.524   1.444   6.053 -1.6472  0.2187  1.9601
 6107TIP3   OH239735   5.361   5.808   2.548 -0.4072  0.1475  0.3598
 6107TIP3    H139736   5.425   5.750   2.589 -2.6838 -1.4311  1.9047
 6107TIP3    H239737   5.346   5.770   2.461 -0.7353 -0.6918  0.7758
 6108TIP3   OH239738   2.406   0.842   3.019 -0.2458  0.0782  0.4798
 6108TIP3    H139739   2.489   0.887   3.037  0.4034 -1.6311  2.0012
 6108TIP3    H239740   2.369   0.825   3.105  1.2166 -5.2961  0.3691
 6109TIP3   OH239741   3.996   3.716  12.318 -0.3889  0.4155 -0.5742
 6109TIP3    H139742   4.050   3.771  12.261 -0.5550  1.8556  0.6027
 6109TIP3    H239743   4.034   3.728  12.406 -0.4730 -1.3123 -0.2631
 6110TIP3   OH239744   4.246   2.139  13.026  0.0001  0.1732 -0.0364
 6110TIP3    H139745   4.158   2.171  13.006  0.2314  0.5560 -0.4709
 6110TIP3    H239746   4.264   2.074  12.958 -0.1463 -0.2818  0.3586
 6111TIP3   OH239747   2.404   3.900  11.989 -0.2490 -0.2478  0.4154
 6111TIP3    H139748   2.409   3.939  11.902  0.3080  1.7515  1.2723
 6111TIP3    H239749   2.423   3.973  12.049  0.1806 -1.7293  2.1784
 6112TIP3   OH239750   1.608   1.323  13.743 -0.5245 -0.1001  0.4093
 6112TIP3    H139751   1.522   1.360  13.722 -0.2243  0.9153  0.9595
 6112TIP3    H239752   1.637   1.370  13.821  1.1261  0.5219 -0.5281
 6113TIP3   OH239753   3.032   2.781   3.519  0.1669  0.1193 -0.3153
 6113TIP3    H139754   3.126   2.772   3.504  0.5106  1.7557  0.5966
 6113TIP3    H239755   3.000   2.831   3.443 -0.0824 -0.8272 -0.8568
 6114TIP3   OH239756   4.616   4.321   3.106 -0.1938 -0.0595 -0.4056
 6114TIP3    H139757   4.588   4.277   3.025 -1.6971  1.6336 -0.8953
 6114TIP3    H239758   4.554   4.291   3.172  0.8033 -1.1517  0.0596
 6115TIP3   OH239759   0.714   5.746  11.660 -0.5019 -0.5957  0.0100
 6115TIP3    H139760   0.772   5.671  11.669 -1.7472 -1.3593  2.7705
 6115TIP3    H239761   0.641   5.714  11.608 -1.1608 -1.4529  1.4102
 6116TIP3   OH239762   0.627   2.104   4.955 -0.1780  0.1549  0.2519
 6116TIP3    H139763   0.546   2.108   5.006  0.2091 -1.2373  1.0250
 6116TIP3    H239764   0.619   2.023   4.904  0.7302 -0.0058  0.3570
 6117TIP3   OH239765   5.507   2.802   0.517 -0.1749  0.3460  0.3579
 6117TIP3    H139766   5.478   2.793   0.608 -2.3399  0.7278 -0.2469
 6117TIP3    H239767   5.491   2.716   0.478  1.7128 -0.1298  0.5599
 6118TIP3   OH239768   5.171   2.792   2.604  0.4842 -0.2040  0.0692
 6118TIP3    H139769   5.197   2.868   2.551  0.4710 -0.7178 -0.6998
 6118TIP3    H239770   5.250   2.737   2.607 -0.0310 -1.0478 -0.9887
 6119TIP3   OH239771   0.703   0.271   0.070  0.1624  0.2022 -0.0783
 6119TIP3    H139772   0.717   0.178   0.088  2.5638  0.2009 -1.5904
 6119TIP3    H239773   0.656   0.303   0.147 -0.3028 -2.1282  0.7025
 6120TIP3   OH239774   0.832   0.348  12.519 -0.7755  0.1479 -0.6000
 6120TIP3    H139775   0.885   0.271  12.540 -0.8620  0.4544  0.8992
 6120TIP3    H239776   0.821   0.345  12.424 -1.2873 -2.0061 -0.5162
 6121TIP3   OH239777   4.239   1.352  16.888 -0.1494 -0.2251 -0.5151
 6121TIP3    H139778   4.212   1.416  16.821  2.0073  0.4562 -0.8088
 6121TIP3    H239779   4.262   1.274  16.838 -0.1545 -0.2944 -0.4076
 6122TIP3   OH239780   2.816   5.203   4.869 -0.6842  0.5895  0.0244
 6122TIP3    H139781   2.790   5.208   4.776  0.5303 -1.0178 -0.4355
 6122TIP3    H239782   2.911   5.209   4.867 -0.6722  1.0041  1.2373
 6123TIP3   OH239783   5.377   5.760   2.959  0.3755 -0.1072 -0.3345
 6123TIP3    H139784   5.352   5.725   3.044  0.1187 -0.5952 -0.6052
 6123TIP3    H239785   5.313   5.828   2.941  1.2745  0.9959  0.4971
 6124TIP3   OH239786   3.433   1.567  15.169 -0.2483  0.3865  0.2154
 6124TIP3    H139787   3.520   1.558  15.130 -1.3792 -0.9225 -2.2268
 6124TIP3    H239788   3.384   1.621  15.107 -1.5659  0.0074  0.8831
 6125TIP3   OH239789   6.108   2.135   3.132  0.0610  0.6526 -1.0837
 6125TIP3    H139790   6.070   2.185   3.059 -1.2971  1.9378  0.4241
 6125TIP3    H239791   6.160   2.199   3.180 -0.0115  0.1070 -0.2630
 6126TIP3   OH239792   2.379   1.224  16.314  0.3081 -0.2973 -0.4410
 6126TIP3    H139793   2.414   1.286  16.378  2.8431 -1.2874 -0.7285
 6126TIP3    H239794   2.285   1.240  16.313  0.6277  2.1298  0.9494
 6127TIP3   OH239795   1.138   3.778   1.092  0.6204  0.0452 -0.4145
 6127TIP3    H139796   1.079   3.715   1.133 -0.9602  0.5640 -1.7920
 6127TIP3    H239797   1.226   3.743   1.108 -0.1650 -2.0152 -0.3794
 6128TIP3   OH239798   5.727   1.563   0.480  0.2237 -0.3789 -0.1936
 6128TIP3    H139799   5.754   1.602   0.563 -0.7921 -0.2785  0.1079
 6128TIP3    H239800   5.761   1.622   0.413  1.4952 -0.7321  0.1181
 6129TIP3   OH239801   4.793   2.817   3.283 -0.0112 -0.3677 -0.4552
 6129TIP3    H139802   4.751   2.890   3.328 -2.9620 -2.8283  1.1114
 6129TIP3    H239803   4.835   2.766   3.352 -0.5484 -1.6907 -1.0551
 6130TIP3   OH239804   4.415   1.347   2.338 -0.1837  0.2670  0.2952
 6130TIP3    H139805   4.417   1.398   2.419  1.2018  1.6540 -0.5584
 6130TIP3    H239806   4.353   1.393   2.282  0.1223  0.2960 -0.0249
 6131TIP3   OH239807   1.692   6.269   2.482 -0.1010  0.4550 -0.3106
 6131TIP3    H139808   1.619   6.281   2.542 -0.7155  0.0428 -0.9544
 6131TIP3    H239809   1.760   6.328   2.514  1.6489 -3.2805  3.8861
 6132TIP3   OH239810   3.833   5.315   0.598  0.0309 -0.0640  0.2630
 6132TIP3    H139811   3.816   5.233   0.552  0.3345  0.1350 -0.2023
 6132TIP3    H239812   3.889   5.365   0.540  0.1703  0.3175  0.7154
 6133TIP3   OH239813   5.367   1.598  15.402 -0.0196  0.1359  0.2296
 6133TIP3    H139814   5.308   1.639  15.339 -0.0042 -1.3279 -0.7979
 6133TIP3    H239815   5.376   1.662  15.473 -2.2978  0.6587  0.1092
 6134TIP3   OH239816   0.148   6.126  14.182 -0.1604 -0.9484  0.3760
 6134TIP3    H139817   0.180   6.056  14.239  1.2432 -1.9377 -1.5257
 6134TIP3    H239818   0.131   6.083  14.099 -0.7877  0.7033 -0.3860
 6135TIP3   OH239819   2.432   6.434   3.638  0.4787  0.7351 -0.1701
 6135TIP3    H139820   2.337   6.446   3.638  0.1453 -1.5069 -0.5765
 6135TIP3    H239821   2.452   6.406   3.549  1.2358 -0.6215  0.4044
 6136TIP3   OH239822   4.893   1.335  14.261 -0.0731 -0.2012 -0.0119
 6136TIP3    H139823   4.892   1.348  14.166 -1.0825  0.6428  0.0961
 6136TIP3    H239824   4.802   1.321  14.284  0.0109  0.8169  0.9897
 6137TIP3   OH239825   3.577   1.495   2.571 -0.5705  0.5039 -0.1438
 6137TIP3    H139826   3.525   1.540   2.637 -1.0906  0.1064 -0.2797
 6137TIP3    H239827   3.653   1.552   2.557 -1.0192  1.1366 -0.0268
 6138TIP3   OH239828   2.665   4.747   2.065 -0.2190  0.3660  0.3240
 6138TIP3    H139829   2.628   4.774   2.149  1.4584  1.3676  0.7771
 6138TIP3    H239830   2.614   4.669   2.041 -2.1294  1.2591  1.2263
 6139TIP3   OH239831   0.916   4.395   0.387 -0.2829  0.4424 -0.2810
 6139TIP3    H139832   0.935   4.383   0.480  0.4271  0.2008 -0.4560
 6139TIP3    H239833   0.829   4.356   0.376 -0.9669  1.6536  0.5415
 6140TIP3   OH239834   3.892   4.253  13.695 -0.1863 -0.1976  0.0125
 6140TIP3    H139835   3.883   4.217  13.607 -0.5934 -1.9393  0.7320
 6140TIP3    H239836   3.874   4.179  13.754 -2.1093  1.4126  1.5894
 6141TIP3   OH239837   4.822   5.986  14.810 -0.7951 -0.3700  0.1940
 6141TIP3    H139838   4.895   6.036  14.846 -1.0889  0.9967 -1.0144
 6141TIP3    H239839   4.770   6.050  14.761 -2.3345 -1.4750  0.2970
 6142TIP3   OH239840   3.619   1.650  14.318  0.0030 -0.5532 -0.7807
 6142TIP3    H139841   3.586   1.732  14.355 -0.3994 -0.6893 -0.8393
 6142TIP3    H239842   3.542   1.595  14.307  0.2866 -0.9857 -0.6361
 6143TIP3   OH239843   4.774   0.579  15.539  0.4225  0.1598 -0.0002
 6143TIP3    H139844   4.841   0.647  15.547  0.5036 -0.0839  1.8035
 6143TIP3    H239845   4.706   0.618  15.483  0.6537  1.5742  0.6736
 6144TIP3   OH239846   0.901   4.832  16.171 -0.5111 -0.4491 -0.4593
 6144TIP3    H139847   0.861   4.746  16.157 -0.8846 -0.1326 -1.3931
 6144TIP3    H239848   0.993   4.814  16.188 -0.6627 -1.0532 -0.2473
 6145TIP3   OH239849   2.755   4.762   2.635 -0.2357  0.4832 -0.2766
 6145TIP3    H139850   2.727   4.754   2.726 -0.2547 -0.5283 -0.3593
 6145TIP3    H239851   2.827   4.700   2.625 -0.1963  0.6183 -0.9382
 6146TIP3   OH239852   5.433   4.959  11.961 -0.1776 -0.4470 -0.0646
 6146TIP3    H139853   5.460   4.868  11.971  0.3658 -0.3301 -0.4527
 6146TIP3    H239854   5.430   4.974  11.867 -0.4355 -0.1118 -0.0086
 6147TIP3   OH239855   3.576   5.013  11.777 -0.4374 -0.1632 -0.4273
 6147TIP3    H139856   3.615   4.927  11.795 -1.1213 -0.1905  1.0622
 6147TIP3    H239857   3.517   4.997  11.704 -2.2746 -1.5346  1.2330
 6148TIP3   OH239858   1.814   0.342  12.498 -0.3639 -0.1135  0.2232
 6148TIP3    H139859   1.720   0.328  12.487 -0.1187 -0.3832 -1.7515
 6148TIP3    H239860   1.820   0.402  12.572 -2.0823 -0.0424  0.3553
 6149TIP3   OH239861   6.297   2.847  15.732 -0.5260  0.1779  0.2902
 6149TIP3    H139862   6.285   2.848  15.637  0.2755  0.4986  0.1836
 6149TIP3    H239863   6.217   2.808  15.766 -1.2995  1.0950 -0.4419
 6150TIP3   OH239864   4.874   4.277   5.649  0.4467  0.5875 -0.0641
 6150TIP3    H139865   4.792   4.237   5.678  0.5235 -0.4479 -1.2111
 6150TIP3    H239866   4.847   4.356   5.601  0.0390 -0.3163 -1.3586
 6151TIP3   OH239867   0.571   5.614  12.599 -0.0587 -0.2017 -0.1104
 6151TIP3    H139868   0.487   5.648  12.629  0.1831 -0.9437  1.5355
 6151TIP3    H239869   0.555   5.587  12.508 -1.0887  1.2986 -0.4108
 6152TIP3   OH239870   3.268   6.572  12.268  0.3099 -0.9412  0.0327
 6152TIP3    H139871   3.325   6.643  12.294  0.1953 -1.1262  0.8287
 6152TIP3    H239872   3.266   6.513  12.344  0.8247 -2.0642 -0.7933
 6153TIP3   OH239873   5.066   5.338   4.346  0.8324  0.0351  0.3188
 6153TIP3    H139874   5.098   5.427   4.331 -1.2650  0.7303 -0.3956
 6153TIP3    H239875   5.091   5.319   4.436 -0.8564  2.4036  1.4140
 6154TIP3   OH239876   2.590   2.609  12.464  0.1332  0.4916  0.1871
 6154TIP3    H139877   2.526   2.651  12.522 -0.9468  1.4017 -1.5571
 6154TIP3    H239878   2.548   2.527  12.438  1.6538 -1.1268  2.5056
 6155TIP3   OH239879   0.285   3.641   2.514  0.4299  0.1431  0.4229
 6155TIP3    H139880   0.341   3.717   2.496 -0.4981  0.9150  0.7197
 6155TIP3    H239881   0.342   3.581   2.562  1.3323  0.4103 -0.2682
 6156TIP3   OH239882   3.248   2.293   3.209 -0.0405  0.2783 -0.3604
 6156TIP3    H139883   3.253   2.307   3.304  2.5843  0.4958 -0.4509
 6156TIP3    H239884   3.214   2.204   3.200  2.4624 -0.9143  0.9628
 6157TIP3   OH239885   4.356   4.990   6.648  0.2120  0.2775 -0.0285
 6157TIP3    H139886   4.287   4.961   6.588 -0.4352  0.9991  0.3454
 6157TIP3    H239887   4.393   5.068   6.608 -0.4895  0.9918  0.6784
 6158TIP3   OH239888   3.187   5.061  13.599 -0.8518  1.0424 -0.0031
 6158TIP3    H139889   3.123   5.131  13.612 -1.3859  0.5830 -0.1417
 6158TIP3    H239890   3.231   5.084  13.517 -1.6361  0.7578 -0.5160
 6159TIP3   OH239891   6.354   1.384   4.087 -0.3123  0.1167  0.7078
 6159TIP3    H139892   6.402   1.301   4.089 -2.1765 -1.0077  1.0864
 6159TIP3    H239893   6.357   1.416   4.177  2.1605  1.5864  0.1874
 6160TIP3   OH239894   5.276   0.441  15.002 -0.0913  0.0865  0.3986
 6160TIP3    H139895   5.281   0.471  15.092 -1.3197  1.3820  0.0776
 6160TIP3    H239896   5.190   0.398  14.996  0.0035 -0.0331 -0.1313
 6161TIP3   OH239897   0.762   3.988  16.596  0.5343  0.3203 -0.4994
 6161TIP3    H139898   0.825   3.964  16.664 -0.7072 -2.4736 -0.1798
 6161TIP3    H239899   0.741   4.079  16.614  1.3436  0.0906  2.0163
 6162TIP3   OH239900   0.610   4.421  14.165 -0.5658 -0.3329 -0.4697
 6162TIP3    H139901   0.633   4.460  14.081 -0.5839 -2.3635 -1.4939
 6162TIP3    H239902   0.516   4.437  14.174 -0.1655  1.9192  0.3545
 6163TIP3   OH239903   0.427   0.493   5.298 -0.2057  0.0261 -0.3264
 6163TIP3    H139904   0.365   0.561   5.322 -1.2390 -1.0016  0.0118
 6163TIP3    H239905   0.393   0.413   5.339 -0.7672 -1.3517 -3.2069
 6164TIP3   OH239906   5.814   0.319   6.299 -0.2048 -0.0983  0.1394
 6164TIP3    H139907   5.806   0.337   6.392  2.7586  1.3402  0.2140
 6164TIP3    H239908   5.901   0.351   6.275 -0.6087 -0.9924 -3.0031
 6165TIP3   OH239909   1.346   4.340   4.802 -0.3266  0.4196 -0.3697
 6165TIP3    H139910   1.347   4.395   4.723 -3.4895  0.4279 -0.5206
 6165TIP3    H239911   1.296   4.390   4.866 -0.0858 -0.7331  0.7632
 6166TIP3   OH239912   3.284   2.667   3.184  1.0069 -0.0594 -0.1491
 6166TIP3    H139913   3.362   2.657   3.239  0.6786 -0.1281  0.3091
 6166TIP3    H239914   3.255   2.757   3.200 -0.7397 -0.9425  2.0171
 6167TIP3   OH239915   5.703   1.324  10.057 -0.0478  0.4927  0.6286
 6167TIP3    H139916   5.639   1.340   9.987 -0.2305 -4.1805 -0.6181
 6167TIP3    H239917   5.658   1.350  10.137 -1.0043  3.1684 -0.6468
 6168TIP3   OH239918   5.776   5.819   5.966 -0.4087 -0.1366 -0.0559
 6168TIP3    H139919   5.689   5.842   5.933 -0.1563  0.6755 -0.1775
 6168TIP3    H239920   5.805   5.897   6.015 -0.1719 -0.7793  0.8533
 6169TIP3   OH239921   3.815   2.479  12.889  0.1193  0.3393  0.0033
 6169TIP3    H139922   3.884   2.467  12.824  0.6616  1.2413  0.3828
 6169TIP3    H239923   3.811   2.574  12.901 -1.3264  0.3157 -0.1526
 6170TIP3   OH239924   3.355   4.712   2.706  0.5136  0.1078 -0.4263
 6170TIP3    H139925   3.274   4.744   2.745  0.3893 -2.6831  1.9280
 6170TIP3    H239926   3.425   4.750   2.760  0.6490  0.4150 -0.8110
 6171TIP3   OH239927   6.043   0.474  13.058 -0.1043 -0.0794  0.3489
 6171TIP3    H139928   5.985   0.550  13.064  0.1331  0.0034  2.2276
 6171TIP3    H239929   6.124   0.503  13.101  0.4452 -0.9977 -0.0441
 6172TIP3   OH239930   0.967   1.481  16.340  0.5651  0.0410  0.5336
 6172TIP3    H139931   1.036   1.548  16.340  0.4721  0.2447 -1.9212
 6172TIP3    H239932   0.984   1.429  16.418  2.5607  1.0247  0.8266
 6173TIP3   OH239933   3.719   2.154   2.780  0.1520 -0.1310 -0.1992
 6173TIP3    H139934   3.761   2.224   2.830  0.4149 -0.2202 -0.2930
 6173TIP3    H239935   3.786   2.085   2.775  1.0176  0.7591 -2.6288
 6174TIP3   OH239936   3.378   3.810   5.614 -0.3674 -0.3309 -0.1028
 6174TIP3    H139937   3.470   3.789   5.632 -0.2051  0.5698  0.1242
 6174TIP3    H239938   3.361   3.889   5.664 -1.4548 -0.8343  0.3440
 6175TIP3   OH239939   0.082   0.119   2.261 -0.0828  0.8910 -0.4468
 6175TIP3    H139940   0.080   0.097   2.168 -2.4922 -1.1271 -0.0187
 6175TIP3    H239941   0.108   0.211   2.264 -3.7244  2.2265 -3.3989
 6176TIP3   OH239942   6.453   0.273   4.118 -0.5457 -0.0898 -0.2672
 6176TIP3    H139943   6.505   0.206   4.161 -0.7383 -0.9587 -1.3313
 6176TIP3    H239944   6.497   0.287   4.034  0.4766  2.3675  0.5809
 6177TIP3   OH239945   3.263   5.977   5.243  0.0316 -0.0969 -0.0398
 6177TIP3    H139946   3.303   6.034   5.177  1.9745 -3.4258 -2.0735
 6177TIP3    H239947   3.216   5.911   5.193 -1.4763 -0.7658  2.1079
 6178TIP3   OH239948   1.947   3.056  12.814 -0.2818  0.1112  0.1758
 6178TIP3    H139949   1.974   2.994  12.746  1.8959 -0.8906  1.8349
 6178TIP3    H239950   1.970   3.142  12.778 -0.8251 -0.2315 -1.0495
 6179TIP3   OH239951   2.450   6.405  13.472  0.4459 -0.1163  0.7107
 6179TIP3    H139952   2.485   6.336  13.417  3.2012  0.4448  1.6009
 6179TIP3    H239953   2.437   6.364  13.558  1.6429  0.2750  1.1129
 6180TIP3   OH239954   4.090   3.695   1.390 -0.4151 -0.1914 -0.2586
 6180TIP3    H139955   4.155   3.738   1.334 -0.6815 -0.0517 -0.4596
 6180TIP3    H239956   4.124   3.607   1.401 -0.1472 -0.0962 -0.2981
 6181TIP3   OH239957   2.545   3.034  12.527  0.0747 -0.0000  0.2758
 6181TIP3    H139958   2.591   3.052  12.445  0.6763  0.6226  0.7361
 6181TIP3    H239959   2.455   3.060  12.510 -0.0891 -1.0418 -0.5790
 6182TIP3   OH239960   1.913   5.095   1.188 -0.4960 -0.5795 -0.1059
 6182TIP3    H139961   1.862   5.015   1.174 -1.2352 -0.4947  1.7859
 6182TIP3    H239962   1.847   5.164   1.198  0.1013  0.0827 -0.5944
 6183TIP3   OH239963   3.978   1.205  15.017  0.5880 -1.1621 -0.2313
 6183TIP3    H139964   4.011   1.293  14.998 -1.3046 -0.3061  0.2508
 6183TIP3    H239965   3.910   1.219  15.083 -1.8391 -2.6314 -2.2721
 6184TIP3   OH239966   5.217   6.275   1.525 -0.1167 -0.7387 -0.3368
 6184TIP3    H139967   5.273   6.204   1.495 -0.1311 -1.3309  1.0076
 6184TIP3    H239968   5.268   6.354   1.507  1.4060 -1.2960  1.3389
 6185TIP3   OH239969   3.686   0.824   4.404  0.2949 -0.3806 -0.2001
 6185TIP3    H139970   3.716   0.754   4.345 -0.3801 -0.6981 -0.1860
 6185TIP3    H239971   3.598   0.845   4.372 -1.1263 -2.2677  2.1384
 6186TIP3   OH239972   1.083   3.184   6.791  0.1495  0.1536 -0.7875
 6186TIP3    H139973   1.063   3.210   6.701  0.6041 -0.4535 -1.0723
 6186TIP3    H239974   1.038   3.249   6.845  1.0176  1.3550 -1.4600
 6187TIP3   OH239975   3.946   0.858   0.757  0.2171 -0.1081  0.6371
 6187TIP3    H139976   3.929   0.879   0.849 -0.5440  1.0810  0.2495
 6187TIP3    H239977   3.940   0.763   0.752  3.0148 -0.5046  2.3506
 6188TIP3   OH239978   4.217   1.205  10.948 -0.0826 -0.2682 -0.4754
 6188TIP3    H139979   4.165   1.126  10.964 -1.5199  0.6763 -0.3791
 6188TIP3    H239980   4.173   1.249  10.876 -0.6940  1.6006  0.9436
 6189TIP3   OH239981   4.070   2.182  14.763 -0.0343  0.0930  0.2438
 6189TIP3    H139982   4.007   2.181  14.691 -1.3059  3.1387  1.1355
 6189TIP3    H239983   4.152   2.211  14.724 -0.5546  1.1207 -0.1122
 6190TIP3   OH239984   4.704   3.230  16.422 -0.1698 -0.0791 -0.3963
 6190TIP3    H139985   4.609   3.243  16.420 -0.1506  0.4800  0.9460
 6190TIP3    H239986   4.737   3.285  16.351 -0.9891 -2.2060 -2.5523
 6191TIP3   OH239987   1.860   5.106   0.262 -0.3915 -0.4423 -0.3974
 6191TIP3    H139988   1.800   5.134   0.193 -0.4260  2.0174  0.5474
 6191TIP3    H239989   1.936   5.071   0.215 -1.4533 -1.1700 -1.6247
 6192TIP3   OH239990   2.903   5.970   4.704  0.2552 -0.1104  0.3351
 6192TIP3    H139991   2.818   5.968   4.747  0.4913  0.2076  0.8265
 6192TIP3    H239992   2.951   6.040   4.749  0.4764  0.2940 -0.5060
 6193TIP3   OH239993   0.052   2.756   1.849 -0.4301  0.1775 -0.1686
 6193TIP3    H139994   0.044   2.783   1.758 -2.6553 -0.6264 -0.2667
 6193TIP3    H239995   0.034   2.836   1.899 -1.2015  0.1910 -0.4524
 6194TIP3   OH239996   5.349   4.888   1.524 -0.0187  0.4735 -0.1471
 6194TIP3    H139997   5.325   4.801   1.492  0.0777  0.8830 -1.3912
 6194TIP3    H239998   5.361   4.940   1.444 -0.8427  1.8318  0.5821
 6195TIP3   OH239999   6.148   6.011   3.378  0.4001  0.2395  0.4222
 6195TIP3    H140000   6.124   5.939   3.320  2.3953 -0.3481  0.2408
 6195TIP3    H240001   6.190   6.075   3.320 -1.5170  1.7026  0.5446
 6196TIP3   OH240002   1.887   6.077   2.107 -0.4346  0.2481 -0.4993
 6196TIP3    H140003   1.842   6.161   2.118 -0.0260  0.4712 -0.4841
 6196TIP3    H240004   1.844   6.036   2.031 -1.0575  0.1843 -0.1144
 6197TIP3   OH240005   4.082   4.978  11.407  0.1882  0.4822  0.3141
 6197TIP3    H140006   4.048   5.014  11.325 -0.2360  1.3439  0.8522
 6197TIP3    H240007   4.177   4.987  11.399  0.4030 -2.2885 -1.3615
 6198TIP3   OH240008   1.557   3.265  16.416  0.3672 -0.2733  0.0123
 6198TIP3    H140009   1.596   3.326  16.354  0.3724  0.1626  0.4332
 6198TIP3    H240010   1.497   3.319  16.467  0.1581 -0.6817  0.2052
 6199TIP3   OH240011   5.558   2.830  14.783 -0.0377 -0.2350  0.4184
 6199TIP3    H140012   5.634   2.884  14.802 -0.5969  0.7310 -0.0086
 6199TIP3    H240013   5.593   2.743  14.766  1.1909  0.5967 -1.7063
 6200TIP3   OH240014   0.333   0.483  15.780  0.2769 -0.0847  0.0226
 6200TIP3    H140015   0.348   0.425  15.706 -0.3762  0.4357 -0.5303
 6200TIP3    H240016   0.353   0.429  15.857  0.4385 -0.7948 -0.5030
 6201TIP3   OH240017   4.624   5.287  14.013  0.0774  0.6361 -0.5645
 6201TIP3    H140018   4.643   5.381  14.009  0.4848  0.5644 -0.4421
 6201TIP3    H240019   4.708   5.247  14.036 -0.4162  0.3661  0.8339
 6202TIP3   OH240020   5.551   4.810   2.074 -0.2176 -0.0729  0.1821
 6202TIP3    H140021   5.543   4.740   2.139  2.2118 -0.8195 -0.2235
 6202TIP3    H240022   5.634   4.853   2.094  0.9376 -0.6900 -2.6576
 6203TIP3   OH240023   4.953   3.541  12.813 -0.2956  0.1011  0.1366
 6203TIP3    H140024   4.958   3.624  12.859  0.5356  0.3825 -0.4406
 6203TIP3    H240025   5.045   3.516  12.797 -0.5079  0.6181 -2.4122
 6204TIP3   OH240026   5.097   6.287   1.011  0.3592 -0.2851  0.4928
 6204TIP3    H140027   5.037   6.228   0.965  0.6904  1.0291 -1.7952
 6204TIP3    H240028   5.049   6.370   1.018  1.7131  0.7180 -1.1611
 6205TIP3   OH240029   1.602   5.277   5.309 -0.0283 -0.0641  0.2798
 6205TIP3    H140030   1.636   5.358   5.346  0.0092  0.6953 -1.3581
 6205TIP3    H240031   1.619   5.284   5.215 -1.5249 -1.2280 -0.1161
 6206TIP3   OH240032   0.710   3.331  12.424  0.1257  0.0961  0.0385
 6206TIP3    H140033   0.753   3.250  12.450 -0.4514 -0.2219  0.0202
 6206TIP3    H240034   0.682   3.316  12.334  1.1299  0.7855 -0.4032
 6207TIP3   OH240035   0.081   3.365   0.357  0.2462 -0.2035  0.6651
 6207TIP3    H140036   0.054   3.379   0.448  2.3660  1.1370  1.1748
 6207TIP3    H240037   0.152   3.428   0.344 -0.1362 -0.2212 -2.0082
 6208TIP3   OH240038   1.795   2.641  16.894 -0.0658  0.1183  0.3350
 6208TIP3    H140039   1.789   2.594  16.977 -0.0806  0.3189  0.4488
 6208TIP3    H240040   1.704   2.656  16.868 -0.0727 -0.6202 -0.1105
 6209TIP3   OH240041   6.670   1.267  15.726  0.3502  0.1417 -0.2374
 6209TIP3    H140042   6.716   1.237  15.647 -1.1131 -0.4746 -0.8838
 6209TIP3    H240043   6.693   1.203  15.793 -0.2037 -0.6253 -0.7737
 6210TIP3   OH240044   2.565   1.596   4.641 -0.1934  0.1585 -0.2642
 6210TIP3    H140045   2.571   1.575   4.547 -0.5710 -0.6443 -0.1177
 6210TIP3    H240046   2.593   1.516   4.685  0.5970  0.7419  0.3194
 6211TIP3   OH240047   3.462   0.749   4.624  0.4113  0.6074  0.7181
 6211TIP3    H140048   3.536   0.776   4.570  0.1723  0.5624  0.3686
 6211TIP3    H240049   3.397   0.715   4.562  0.8697 -1.1804  1.1640
 6212TIP3   OH240050   4.265   6.121   0.451 -0.3212  0.5085  0.4865
 6212TIP3    H140051   4.183   6.169   0.439 -0.8475  0.2503  2.6780
 6212TIP3    H240052   4.240   6.039   0.492  0.8663 -0.4838 -0.6669
 6213TIP3   OH240053   1.538   3.667  11.354  0.2533 -0.4758  0.5782
 6213TIP3    H140054   1.598   3.598  11.383 -0.2507 -0.9801  0.4362
 6213TIP3    H240055   1.594   3.744  11.342  0.9845 -1.1032 -0.1865
 6214TIP3   OH240056   4.136   2.090   5.928  0.2340 -0.1558  0.0729
 6214TIP3    H140057   4.110   2.155   5.993 -0.0483 -0.2132  0.0211
 6214TIP3    H240058   4.230   2.102   5.918  0.2009  0.1769  0.1375
 6215TIP3   OH240059   0.851   4.191   4.902  0.0039  0.2759  0.8217
 6215TIP3    H140060   0.864   4.282   4.875 -0.8082  0.7280  1.8582
 6215TIP3    H240061   0.802   4.151   4.830  0.5519  0.5966  0.2636
 6216TIP3   OH240062   3.793   5.973   3.313  1.2090 -0.4763  0.4641
 6216TIP3    H140063   3.828   5.931   3.234  0.7565  0.2251 -0.1206
 6216TIP3    H240064   3.698   5.967   3.303  1.1456 -0.6576  1.1151
 6217TIP3   OH240065   6.065   2.579   0.181 -0.2139  0.1933 -0.1816
 6217TIP3    H140066   6.040   2.580   0.089 -0.6957 -0.6592 -0.0657
 6217TIP3    H240067   6.011   2.511   0.221  2.0868 -1.6086  0.1265
 6218TIP3   OH240068   2.317   5.191  10.781 -0.0974 -0.3192 -0.3624
 6218TIP3    H140069   2.254   5.196  10.710  1.4252  1.7945 -1.6649
 6218TIP3    H240070   2.317   5.278  10.820  0.9224 -0.7236  0.6086
 6219TIP3   OH240071   3.553   1.954   4.207  0.1682  0.0098 -0.1311
 6219TIP3    H140072   3.640   1.994   4.195 -0.0415  0.1161 -1.3625
 6219TIP3    H240073   3.571   1.860   4.215  0.4074  0.0440 -0.2610
 6220TIP3   OH240074   4.625   0.724  12.195 -0.3915 -0.1749 -0.6869
 6220TIP3    H140075   4.624   0.819  12.202 -1.5202 -0.0774 -1.7420
 6220TIP3    H240076   4.710   0.704  12.155  1.5884  0.0113  3.0367
 6221TIP3   OH240077   5.332   2.774  12.214  0.5443  0.0120  0.3155
 6221TIP3    H140078   5.332   2.831  12.291 -0.0087 -0.8366  0.9475
 6221TIP3    H240079   5.417   2.731  12.216  0.1765 -0.6928  0.9647
 6222TIP3   OH240080   4.567   3.523   6.107 -0.1866 -0.1067  0.1267
 6222TIP3    H140081   4.653   3.553   6.137 -0.7138  0.7919  0.8295
 6222TIP3    H240082   4.505   3.574   6.160 -1.1522 -1.5905  0.4928
 6223TIP3   OH240083   3.380   1.872   0.363 -0.4936 -0.5022  0.6346
 6223TIP3    H140084   3.372   1.853   0.456 -0.3106 -3.1688  0.1952
 6223TIP3    H240085   3.474   1.877   0.347 -0.4774 -1.4634  0.3781
 6224TIP3   OH240086   0.878   6.561   0.006 -0.3864 -0.3527 -0.2703
 6224TIP3    H140087   0.861   6.468   0.023 -0.4178 -0.4063 -0.5801
 6224TIP3    H240088   0.973   6.568   0.008 -0.1588 -0.9981 -3.1292
 6225TIP3   OH240089   6.398   3.304   4.360  0.1145  0.8943 -0.2325
 6225TIP3    H140090   6.352   3.278   4.440  0.3158  0.6326 -0.1988
 6225TIP3    H240091   6.405   3.223   4.310  0.7676  0.8734 -0.1202
 6226TIP3   OH240092   5.979   1.851   2.241  0.0214  0.7148 -0.6603
 6226TIP3    H140093   6.073   1.844   2.255 -0.3094 -0.9296  1.1268
 6226TIP3    H240094   5.944   1.873   2.327 -1.5541 -2.9098 -0.1883
 6227TIP3   OH240095   2.660   2.191  15.146 -0.8368  0.1419  0.7134
 6227TIP3    H140096   2.592   2.245  15.187 -0.9615 -0.8343  1.8785
 6227TIP3    H240097   2.727   2.183  15.214  0.3856  0.9333 -0.3590
 6228TIP3   OH240098   5.613   3.610  11.921 -0.3298  0.1703  0.1552
 6228TIP3    H140099   5.529   3.653  11.906 -0.2498  0.1091 -0.4875
 6228TIP3    H240100   5.668   3.637  11.848 -0.3920 -1.2903 -0.4782
 6229TIP3   OH240101   1.485   6.259  15.694  0.0871 -0.1850 -0.0877
 6229TIP3    H140102   1.516   6.331  15.639  0.9611 -0.6641 -0.2457
 6229TIP3    H240103   1.557   6.243  15.755  0.6397 -1.9866 -1.1070
 6230TIP3   OH240104   2.123   5.103   5.516  0.4175 -0.3161  0.1704
 6230TIP3    H140105   2.131   5.162   5.591 -1.4608 -0.9648  0.9115
 6230TIP3    H240106   2.093   5.159   5.445 -2.5560 -0.4903  1.1745
 6231TIP3   OH240107   6.435   4.614  15.334  0.1162 -0.0300  0.0494
 6231TIP3    H140108   6.345   4.636  15.307  0.6611  2.8469  0.2742
 6231TIP3    H240109   6.449   4.526  15.300 -2.8166 -0.6286  0.1006
 6232TIP3   OH240110   2.648   3.914   5.270 -0.4519 -0.2080 -0.0249
 6232TIP3    H140111   2.572   3.970   5.257  0.3744  1.0937  0.5696
 6232TIP3    H240112   2.679   3.894   5.181 -0.6153  0.4898 -0.2441
 6233TIP3   OH240113   3.871   3.626  11.605 -0.3695  0.2942  0.6239
 6233TIP3    H140114   3.870   3.565  11.678  0.8631 -0.4810  0.0266
 6233TIP3    H240115   3.784   3.620  11.567 -0.2469 -1.1609  0.5334
 6234TIP3   OH240116   2.595   5.091  14.667 -0.0209 -0.1485  0.2941
 6234TIP3    H140117   2.585   5.185  14.682 -1.1285 -0.3360  0.8520
 6234TIP3    H240118   2.658   5.084  14.595  1.0468  0.9736  1.0753
 6235TIP3   OH240119   2.006   3.235   1.809  0.3143 -0.3292  0.0601
 6235TIP3    H140120   2.074   3.231   1.741  1.2197 -0.0950  0.9287
 6235TIP3    H240121   1.956   3.154   1.797  0.0907 -0.0192 -1.2451
 6236TIP3   OH240122   3.966   4.432  13.030 -0.2715  0.3209 -0.0152
 6236TIP3    H140123   3.985   4.507  13.085 -1.6279 -0.4316  1.5592
 6236TIP3    H240124   3.971   4.357  13.089  2.9138 -1.1782 -1.8767
 6237TIP3   OH240125   6.519   6.287   4.784 -0.1375 -0.1618  0.2289
 6237TIP3    H140126   6.504   6.272   4.691 -0.6242 -3.1679  0.6744
 6237TIP3    H240127   6.596   6.344   4.787 -0.0155 -0.1215 -1.9972
 6238TIP3   OH240128   0.179   1.205  16.582  0.6828  0.7333 -0.4873
 6238TIP3    H140129   0.232   1.210  16.502  2.0106  2.8044  0.4435
 6238TIP3    H240130   0.089   1.218  16.552  0.9569 -0.2503 -1.8152
 6239TIP3   OH240131   5.785   2.248  15.623  0.3277  0.3340  0.2710
 6239TIP3    H140132   5.810   2.310  15.555 -2.0682  1.8365  0.6489
 6239TIP3    H240133   5.724   2.188  15.580  0.3792  0.0244  0.6219
 6240TIP3   OH240134   4.232   2.574   6.025 -0.1969  0.2253  0.3102
 6240TIP3    H140135   4.157   2.541   5.976 -0.1929  0.8857 -0.1430
 6240TIP3    H240136   4.197   2.593   6.112 -0.6304  0.8283  0.0067
 6241TIP3   OH240137   1.145   5.537  16.517  0.1514  0.2789 -0.7061
 6241TIP3    H140138   1.075   5.494  16.467  0.7330 -0.9160 -0.5447
 6241TIP3    H240139   1.169   5.472  16.583  0.5077  1.2041  0.0873
 6242TIP3   OH240140   5.821   4.487  12.523  0.0491  0.2347 -0.4812
 6242TIP3    H140141   5.737   4.522  12.554 -0.0737 -2.0399  2.1892
 6242TIP3    H240142   5.832   4.405  12.572  3.6691  0.2406 -1.0216
 6243TIP3   OH240143   0.942   1.827   0.499 -0.1313  0.7707 -0.0868
 6243TIP3    H140144   0.922   1.777   0.578 -2.1577 -1.2246 -1.7483
 6243TIP3    H240145   1.033   1.804   0.478 -0.3667 -0.6270  0.3273
 6244TIP3   OH240146   4.630   0.866   5.330 -0.0864  0.1663  0.4229
 6244TIP3    H140147   4.647   0.938   5.269  0.8174 -2.3106 -2.5215
 6244TIP3    H240148   4.709   0.861   5.384 -0.2295  1.3951  0.7894
 6245TIP3   OH240149   1.398   3.751   3.053  0.3799  0.2784  0.0751
 6245TIP3    H140150   1.466   3.722   2.993 -0.8900  0.5960 -1.5927
 6245TIP3    H240151   1.380   3.674   3.108  1.0112 -0.2684 -0.4720
 6246TIP3   OH240152   1.784   3.325  13.813 -0.2522 -0.9283 -0.4184
 6246TIP3    H140153   1.749   3.352  13.728  0.0883 -0.2788 -0.3624
 6246TIP3    H240154   1.839   3.250  13.794  0.9509  0.0705 -0.9944
 6247TIP3   OH240155   3.174   2.490  16.117 -0.1682 -0.2495  0.1521
 6247TIP3    H140156   3.212   2.531  16.039  1.6911 -3.1599 -0.6649
 6247TIP3    H240157   3.212   2.538  16.191  1.7898 -0.3508 -0.7341
 6248TIP3   OH240158   0.218   4.462   3.952  0.1348 -0.2478 -0.1691
 6248TIP3    H140159   0.205   4.371   3.926 -1.2846 -0.8532  2.3234
 6248TIP3    H240160   0.282   4.496   3.890  2.1690 -3.4800 -0.0869
 6249TIP3   OH240161   0.993   1.065   5.922  0.7504  0.1746  0.1221
 6249TIP3    H140162   1.065   1.017   5.963  2.1445  0.3803 -1.9709
 6249TIP3    H240163   0.956   1.003   5.859  1.6554  1.2816 -1.5867
 6250TIP3   OH240164   2.310   5.252   2.519  0.3626 -0.2424 -0.0821
 6250TIP3    H140165   2.403   5.234   2.528  0.0059 -1.3051  2.2652
 6250TIP3    H240166   2.288   5.302   2.598 -0.7644  1.4004 -1.3818
 6251TIP3   OH240167   0.604   0.441  14.869  0.0249 -0.1353 -0.0902
 6251TIP3    H140168   0.509   0.430  14.872  0.2169 -1.7987  1.7845
 6251TIP3    H240169   0.623   0.508  14.935  0.1235  0.7279 -0.9717
 6252TIP3   OH240170   6.043   2.816  12.465 -0.2322  0.5068  0.3640
 6252TIP3    H140171   6.035   2.813  12.560 -0.5799 -0.8241  0.3128
 6252TIP3    H240172   6.136   2.807  12.448 -0.3030 -0.8608  0.5654
 6253TIP3   OH240173   5.712   6.395  13.010  0.2847 -0.1562 -0.4561
 6253TIP3    H140174   5.727   6.368  13.101 -2.7715 -0.2499  0.1176
 6253TIP3    H240175   5.713   6.313  12.960 -0.3433 -0.3744 -0.1179
 6254TIP3   OH240176   6.464   0.897  15.512  0.3203  0.3436 -0.3044
 6254TIP3    H140177   6.557   0.876  15.504 -0.0115 -0.6156 -2.5696
 6254TIP3    H240178   6.451   0.915  15.605  3.2135  2.7655 -0.2110
 6255TIP3   OH240179   3.059   6.049   1.266 -0.4239 -0.0209  0.1148
 6255TIP3    H140180   2.982   6.099   1.239  0.6455  1.9060  0.4589
 6255TIP3    H240181   3.098   6.101   1.335  1.3720 -0.7847 -0.2726
 6256TIP3   OH240182   1.482   2.679   2.047 -0.2059 -0.1669  0.5131
 6256TIP3    H140183   1.417   2.645   1.985 -0.4195  0.0601  0.6094
 6256TIP3    H240184   1.460   2.637   2.130 -0.0801 -0.2748  0.4911
 6257TIP3   OH240185   0.873   5.866  16.958 -0.4531  0.1882  0.1274
 6257TIP3    H140186   0.913   5.779  16.959 -0.3013  0.2563 -0.0198
 6257TIP3    H240187   0.808   5.863  17.028  0.5925  0.4546  1.1354
 6258TIP3   OH240188   2.330   4.840  14.301  0.6406  0.5409  0.0439
 6258TIP3    H140189   2.257   4.807  14.353  0.0620  0.3967 -0.8541
 6258TIP3    H240190   2.401   4.777  14.318 -0.6815 -1.7649 -2.2817
 6259TIP3   OH240191   5.624   3.445   5.431  0.1998 -0.0088  0.1286
 6259TIP3    H140192   5.647   3.354   5.413  1.8619  0.1453  1.2622
 6259TIP3    H240193   5.565   3.441   5.506 -0.3029 -0.1734 -0.2673
 6260TIP3   OH240194   6.427   3.424  17.099  0.2944  0.1748 -0.0779
 6260TIP3    H140195   6.505   3.368  17.097 -0.5756 -1.1144  0.4194
 6260TIP3    H240196   6.376   3.396  17.023 -0.2571  0.1408  0.3049
 6261TIP3   OH240197   2.110   2.457  15.270  0.3162  0.2327 -0.2035
 6261TIP3    H140198   2.203   2.457  15.295  0.4384 -1.1988 -0.5335
 6261TIP3    H240199   2.107   2.505  15.188  0.7957  0.1057 -0.2975
 6262TIP3   OH240200   1.296   4.017  12.519 -0.1699 -0.6964  0.1631
 6262TIP3    H140201   1.249   4.071  12.583  0.1372 -0.8491  0.5171
 6262TIP3    H240202   1.329   3.943  12.569 -1.0851 -1.5333 -0.4199
 6263TIP3   OH240203   3.709   0.776  12.352  0.2509  0.1656  0.0203
 6263TIP3    H140204   3.759   0.848  12.314 -2.1918  0.1179 -3.8984
 6263TIP3    H240205   3.713   0.706  12.286 -0.1386 -2.0926  2.2196
 6264TIP3   OH240206   2.687   5.453  14.432  0.3279 -0.7604  0.2984
 6264TIP3    H140207   2.779   5.447  14.405  0.7101  1.5983  0.9317
 6264TIP3    H240208   2.641   5.476  14.352  0.3288 -1.4131  0.0974
 6265TIP3   OH240209   3.074   0.621   3.027  0.4679 -0.3999  0.0161
 6265TIP3    H140210   3.163   0.590   3.043 -0.1011 -3.1517 -1.5949
 6265TIP3    H240211   3.019   0.564   3.081 -0.5110 -1.1393 -1.6880
 6266TIP3   OH240212   0.244   3.466  14.986 -0.3935  0.0753 -0.5015
 6266TIP3    H140213   0.275   3.375  14.988  0.0618  0.2224 -0.7726
 6266TIP3    H240214   0.163   3.462  14.935 -0.5500 -0.2280 -0.2368
 6267TIP3   OH240215   6.296   1.204   5.480 -0.4819 -0.0915  0.6211
 6267TIP3    H140216   6.293   1.223   5.574  0.2066  0.2328  0.5846
 6267TIP3    H240217   6.368   1.258   5.447 -1.0396  0.1871 -0.1828
 6268TIP3   OH240218   0.488   3.370  12.603  0.2199  0.4177  0.2281
 6268TIP3    H140219   0.576   3.351  12.570 -0.0843 -0.6422 -0.0121
 6268TIP3    H240220   0.430   3.313  12.552 -0.6877  1.5848 -0.0752
 6269TIP3   OH240221   5.374   3.470   0.554  0.2164  0.1575  0.5190
 6269TIP3    H140222   5.420   3.400   0.598  0.5563 -0.3534 -0.6121
 6269TIP3    H240223   5.282   3.442   0.553  0.3699 -0.3290 -0.0350
 6270TIP3   OH240224   1.111   3.302   0.672  0.7918 -0.3790  0.1652
 6270TIP3    H140225   1.182   3.324   0.613 -1.0009  0.7452 -1.7001
 6270TIP3    H240226   1.061   3.234   0.626 -0.2113 -0.0334  0.7084
 6271TIP3   OH240227   4.656   0.877  16.451  0.5090  0.1728 -0.3676
 6271TIP3    H140228   4.569   0.862  16.487  0.8641 -1.2205 -0.0520
 6271TIP3    H240229   4.650   0.963  16.408 -0.8541  0.3286  0.1114
 6272TIP3   OH240230   3.758   5.005  11.179 -0.0645 -0.8531 -0.4633
 6272TIP3    H140231   3.777   4.929  11.125 -0.7646 -1.7133  0.4551
 6272TIP3    H240232   3.824   5.070  11.153  2.3634 -2.7042  0.6266
 6273TIP3   OH240233   6.721   1.302   0.689  0.4596 -0.5199  0.7241
 6273TIP3    H140234   6.720   1.285   0.595  0.0500  1.0917  0.4071
 6273TIP3    H240235   6.630   1.321   0.711  1.0539  3.4490  0.5058
 6274TIP3   OH240236   4.831   6.520  11.926 -0.6190 -0.0125  0.1045
 6274TIP3    H140237   4.799   6.590  11.870  1.7226 -0.0598 -1.4002
 6274TIP3    H240238   4.904   6.559  11.973 -1.1932 -0.6220  1.5657
 6275TIP3   OH240239   1.869   0.714  11.367  0.2961  0.2953  0.4319
 6275TIP3    H140240   1.813   0.675  11.435 -0.3165  2.1938  1.0798
 6275TIP3    H240241   1.811   0.725  11.292  0.3546  0.3395  0.3931
 6276TIP3   OH240242   0.006   2.327  11.136  0.4222  0.7368 -0.6221
 6276TIP3    H140243   0.024   2.370  11.219 -0.0608 -0.4455  0.1158
 6276TIP3    H240244  -0.003   2.234  11.158 -1.2034  0.5841 -1.7667
 6277TIP3   OH240245   0.395   5.117   5.030 -0.4241  0.0858  0.7660
 6277TIP3    H140246   0.319   5.175   5.030  0.0446  0.9104  4.0555
 6277TIP3    H240247   0.392   5.074   5.115  2.1383 -0.7726  0.5127
 6278TIP3   OH240248   2.487   1.669   6.632 -0.3309  0.5122  0.7043
 6278TIP3    H140249   2.485   1.760   6.661 -2.5157  0.7178  0.0861
 6278TIP3    H240250   2.458   1.619   6.708 -3.5382  0.8189 -0.1782
 6279TIP3   OH240251   2.384   1.154  10.494 -0.2711  0.2645 -0.2571
 6279TIP3    H140252   2.456   1.156  10.558  2.0571  0.6612 -2.7401
 6279TIP3    H240253   2.363   1.246  10.478  1.2736  0.3205 -2.2267
 6280TIP3   OH240254   5.554   5.784  16.208  0.0047 -0.1587  0.3415
 6280TIP3    H140255   5.585   5.779  16.117  1.3431  0.2105  0.7532
 6280TIP3    H240256   5.459   5.780  16.201  0.0499  0.6566 -1.1393
 6281TIP3   OH240257   1.307   1.538  16.589 -0.1898  0.2553  0.4645
 6281TIP3    H140258   1.236   1.481  16.561 -0.2573  1.5770 -2.4524
 6281TIP3    H240259   1.375   1.478  16.621 -0.8314 -1.3810 -1.0990
 6282TIP3   OH240260   3.444   4.799  15.054  0.3699  0.0821 -0.2317
 6282TIP3    H140261   3.484   4.720  15.018 -0.3993 -0.3398 -0.1899
 6282TIP3    H240262   3.404   4.770  15.136 -1.2124  0.1421 -0.9335
 6283TIP3   OH240263   5.386   1.736   2.825  0.0087  0.6037 -0.2502
 6283TIP3    H140264   5.431   1.678   2.886  1.3030  1.2450 -0.5473
 6283TIP3    H240265   5.326   1.679   2.777  0.3140 -0.2384  0.3421
 6284TIP3   OH240266   4.265   4.094  16.817  0.3105  0.1400  0.3547
 6284TIP3    H140267   4.238   4.081  16.726 -0.6373 -0.4532  0.7049
 6284TIP3    H240268   4.306   4.012  16.843  1.7324  0.7375  0.0989
 6285TIP3   OH240269   2.735   6.656   2.462  0.1652  0.4493 -1.0509
 6285TIP3    H140270   2.734   6.560   2.458  1.1377  0.4032 -0.3581
 6285TIP3    H240271   2.820   6.681   2.426  1.7433  0.8080  2.5167
 6286TIP3   OH240272   5.891   1.531  14.165  0.1571 -0.6848  0.3485
 6286TIP3    H140273   5.954   1.544  14.094 -0.6202  0.2377 -0.1948
 6286TIP3    H240274   5.823   1.597  14.150 -0.4957 -1.0754  1.4269
 6287TIP3   OH240275   5.053   3.544  12.145  0.5971 -0.9037  0.5820
 6287TIP3    H140276   4.991   3.471  12.134 -2.9303  1.7271  1.0780
 6287TIP3    H240277   5.031   3.604  12.074 -0.2492  1.8968  3.0136
 6288TIP3   OH240278   4.217   2.754   1.223 -0.0842  0.3083 -0.0195
 6288TIP3    H140279   4.261   2.839   1.221  1.3666 -0.4261 -0.6780
 6288TIP3    H240280   4.287   2.690   1.214 -1.1363 -0.9855  0.5630
 6289TIP3   OH240281   0.374   1.323  15.076 -0.1490  0.2064  0.3373
 6289TIP3    H140282   0.444   1.257  15.077 -0.0719  0.2879  0.3277
 6289TIP3    H240283   0.299   1.278  15.038  0.4345  0.6712 -1.4494
 6290TIP3   OH240284   2.335   0.528   3.585  0.7534 -0.1944  0.4783
 6290TIP3    H140285   2.379   0.443   3.591 -1.8550 -1.6337  0.4151
 6290TIP3    H240286   2.289   0.525   3.501 -1.2837  0.2667  1.5293
 6291TIP3   OH240287   1.932   2.005   1.943  0.0571 -0.1076  0.9281
 6291TIP3    H140288   1.839   2.026   1.937  0.3663  0.8400 -1.5968
 6291TIP3    H240289   1.936   1.910   1.934 -0.6012  0.0227 -1.3065
 6292TIP3   OH240290   1.935   2.247  13.390 -0.4056  0.2394 -0.1807
 6292TIP3    H140291   1.951   2.174  13.330  1.3120  0.6390 -0.2619
 6292TIP3    H240292   1.872   2.303  13.343 -0.1603 -0.1596 -1.0149
 6293TIP3   OH240293   3.599   3.412   5.270 -0.2067  0.5150 -0.5949
 6293TIP3    H140294   3.551   3.426   5.352  0.3857  0.7306 -0.2793
 6293TIP3    H240295   3.570   3.326   5.240 -1.7505  1.1608 -1.0842
 6294TIP3   OH240296   0.366   5.875  12.907 -0.2531 -0.4507  0.0230
 6294TIP3    H140297   0.439   5.928  12.937  0.4696 -0.3452 -1.8263
 6294TIP3    H240298   0.343   5.820  12.983  2.2215 -1.0337  0.4132
 6295TIP3   OH240299   1.377   2.074   3.084 -0.3518  0.3643  0.4984
 6295TIP3    H140300   1.429   2.092   3.163  0.0128 -0.7557  0.5264
 6295TIP3    H240301   1.423   2.121   3.014 -1.5281  2.6829  1.1517
 6296TIP3   OH240302   1.598   1.543  15.294  0.2958 -0.1967 -0.7665
 6296TIP3    H140303   1.624   1.461  15.337  1.9440  1.0032  0.6879
 6296TIP3    H240304   1.511   1.561  15.329  1.0439  0.0372  1.0968
 6297TIP3   OH240305   4.693   4.195  13.216  0.4946  0.3940 -0.0352
 6297TIP3    H140306   4.606   4.234  13.202  0.4884 -0.2931 -2.2751
 6297TIP3    H240307   4.678   4.126  13.280 -0.3176  1.2035  0.6832
 6298TIP3   OH240308   5.950   2.965  13.597  0.4335  0.2274 -0.4781
 6298TIP3    H140309   5.890   3.008  13.658 -0.3289  1.6716 -2.1334
 6298TIP3    H240310   6.035   2.969  13.640 -0.2633  0.1355  0.9741
 6299TIP3   OH240311   5.625   5.447  11.336  0.4862 -0.1876  0.0966
 6299TIP3    H140312   5.668   5.513  11.282 -0.9687  2.8184  2.3781
 6299TIP3    H240313   5.541   5.431  11.292 -0.3009  1.5601  0.8708
 6300TIP3   OH240314   2.162   4.885  15.921 -0.0192  0.0256 -0.1045
 6300TIP3    H140315   2.152   4.800  15.878 -0.1274  0.1940 -0.4175
 6300TIP3    H240316   2.253   4.910  15.904 -0.6359  1.1158 -2.1817
 6301TIP3   OH240317   0.995   3.556  16.907  0.5878  0.2557  0.8256
 6301TIP3    H140318   0.968   3.566  16.998  1.7694  0.8964  1.1328
 6301TIP3    H240319   1.086   3.586  16.907  0.7726 -0.2775 -0.4562
 6302TIP3   OH240320   2.395   4.856  16.514 -0.0442  0.6794 -0.1762
 6302TIP3    H140321   2.341   4.829  16.588 -1.3684  0.2442 -1.2549
 6302TIP3    H240322   2.428   4.775  16.476 -0.7490  0.7736 -1.0370
 6303TIP3   OH240323   1.265   3.894  13.279 -0.0695 -0.2904  0.4333
 6303TIP3    H140324   1.278   3.821  13.340  2.3460 -0.2004  0.1289
 6303TIP3    H240325   1.211   3.858  13.209  1.8502 -2.1713 -0.2220
 6304TIP3   OH240326   0.962   5.441  15.806 -0.0115 -0.5572  0.8206
 6304TIP3    H140327   1.033   5.453  15.743 -0.8704  0.8708  0.0624
 6304TIP3    H240328   0.902   5.380  15.763 -0.3068 -0.0407  0.4804
 6305TIP3   OH240329   4.663   3.254  11.945  0.0948 -0.3346 -0.1788
 6305TIP3    H140330   4.696   3.291  11.863 -2.4344  2.2496 -0.2117
 6305TIP3    H240331   4.741   3.230  11.994  1.7985  0.9149 -2.1122
 6306TIP3   OH240332   3.159   4.771   0.078 -0.2717  0.1601  0.2306
 6306TIP3    H140333   3.190   4.753   0.167 -0.9472 -1.3390  0.1822
 6306TIP3    H240334   3.066   4.793   0.089 -0.2211  0.5344 -0.0611
 6307TIP3   OH240335   3.232   6.489   4.942  0.1368  0.2596  0.1479
 6307TIP3    H140336   3.304   6.540   4.978  0.0173  0.4277  0.1527
 6307TIP3    H240337   3.185   6.550   4.885  0.2011  0.0523 -0.1265
 6308TIP3   OH240338   6.498   3.043   3.617  0.3609  0.0551 -0.2538
 6308TIP3    H140339   6.473   3.065   3.527  2.0241  2.2948 -0.2814
 6308TIP3    H240340   6.577   3.095   3.632  0.3892 -0.6276  2.3600
 6309TIP3   OH240341   3.819   2.372   2.931  0.0061 -0.4713 -0.1105
 6309TIP3    H140342   3.903   2.396   2.890 -1.1296  0.5358 -2.0084
 6309TIP3    H240343   3.832   2.389   3.024  0.7474  3.5603 -0.7598
 6310TIP3   OH240344   2.443   1.790  15.170 -0.6448 -0.3649  0.3070
 6310TIP3    H140345   2.370   1.732  15.148 -0.6394 -0.1035 -0.4327
 6310TIP3    H240346   2.431   1.809  15.263 -0.6907 -1.4810  0.5424
 6311TIP3   OH240347   4.595   1.817  16.554  0.3073  0.2876 -0.4543
 6311TIP3    H140348   4.541   1.877  16.503 -0.9993 -0.8759 -0.5022
 6311TIP3    H240349   4.685   1.840  16.530 -0.1587  2.0521 -0.6188
 6312TIP3   OH240350   5.996   2.971  12.200  0.2247 -0.3954  0.4277
 6312TIP3    H140351   6.013   2.911  12.128 -1.1708 -1.0095  0.5692
 6312TIP3    H240352   6.008   2.918  12.279  0.3614 -0.1079  0.6015
 6313TIP3   OH240353   2.482   2.514  11.260  0.4170 -0.3745  0.2870
 6313TIP3    H140354   2.450   2.594  11.220 -0.7358 -0.8415  0.2315
 6313TIP3    H240355   2.570   2.503  11.225  0.3547  0.5381 -0.1820
 6314TIP3   OH240356   2.013   3.142   4.119  0.1342  0.1333 -0.7510
 6314TIP3    H140357   2.063   3.175   4.045  1.1390 -0.9618 -0.5942
 6314TIP3    H240358   1.922   3.164   4.099  0.1512 -1.6270 -3.1743
 6315TIP3   OH240359   5.195   0.227  11.248 -0.2944  0.1820  0.9818
 6315TIP3    H140360   5.211   0.139  11.215  1.0906  0.3520  1.1409
 6315TIP3    H240361   5.216   0.285  11.174 -0.8800  0.4009  0.9802
 6316TIP3   OH240362   0.700   6.316  16.268 -0.1833 -0.3409 -0.0930
 6316TIP3    H140363   0.657   6.373  16.332 -0.9492  0.4260 -1.2599
 6316TIP3    H240364   0.646   6.238  16.266  0.3964 -0.7959  0.8874
 6317TIP3   OH240365   2.336   5.880   3.081 -0.1353 -0.6026  0.5023
 6317TIP3    H140366   2.389   5.947   3.036 -0.6488 -0.9482 -0.6738
 6317TIP3    H240367   2.303   5.923   3.159  0.0170  0.3446  0.0569
 6318TIP3   OH240368   5.266   4.985   4.158 -0.0946  0.3910 -0.4428
 6318TIP3    H140369   5.218   4.948   4.232 -2.2883  0.9668 -1.4622
 6318TIP3    H240370   5.358   4.983   4.184 -0.1314 -4.3008  0.1796
 6319TIP3   OH240371   4.271   4.520  17.024  0.1209 -0.1229 -0.2035
 6319TIP3    H140372   4.237   4.557  17.106 -0.3305  1.2683 -0.9976
 6319TIP3    H240373   4.282   4.427  17.043 -2.7810 -0.3984  0.5705
 6320TIP3   OH240374   0.633   6.376  16.800  0.1941  0.1184  0.1892
 6320TIP3    H140375   0.539   6.378  16.782 -0.0692 -3.0938  0.4972
 6320TIP3    H240376   0.641   6.316  16.875  2.4240  1.2434  0.9247
 6321TIP3   OH240377   1.722   4.425  10.753 -0.3008 -0.4644 -0.6075
 6321TIP3    H140378   1.701   4.332  10.756  0.5708 -0.6386  0.7006
 6321TIP3    H240379   1.657   4.466  10.810  0.0799 -0.4351 -0.1896
 6322TIP3   OH240380   4.876   0.284  13.913 -0.2947  0.5488 -0.6448
 6322TIP3    H140381   4.866   0.379  13.916  0.1859  0.6696 -2.2346
 6322TIP3    H240382   4.880   0.262  13.820  2.7669 -0.6488 -0.3718
 6323TIP3   OH240383   6.053   0.337   4.418  0.2133 -0.4397  0.5202
 6323TIP3    H140384   6.066   0.349   4.324 -1.7469 -0.5227  0.1945
 6323TIP3    H240385   6.130   0.376   4.458  1.7447 -1.5893 -1.1540
 6324TIP3   OH240386   5.732   0.199   4.182 -0.2888 -0.6851 -0.9553
 6324TIP3    H140387   5.757   0.188   4.091 -2.9588 -1.8031 -1.6454
 6324TIP3    H240388   5.670   0.127   4.199 -1.4587  0.6994  1.0957
 6325TIP3   OH240389   4.067   5.271   5.897 -0.5513 -0.0541 -0.8006
 6325TIP3    H140390   4.046   5.220   5.976 -1.4025  0.6805 -0.5342
 6325TIP3    H240391   4.110   5.349   5.930  2.5806 -1.4147 -1.3240
 6326TIP3   OH240392   3.578   0.109  15.014  1.1295 -0.3200 -0.3773
 6326TIP3    H140393   3.601   0.123  14.922 -0.2342  0.0878 -0.6768
 6326TIP3    H240394   3.508   0.172  15.031  1.6343 -0.1020  1.0686
 6327TIP3   OH240395   3.249   5.906   6.535  0.0338  0.2099  0.3600
 6327TIP3    H140396   3.213   5.923   6.622 -0.0243 -2.5419  0.9718
 6327TIP3    H240397   3.295   5.823   6.544  0.8679  0.3264 -2.0310
 6328TIP3   OH240398   0.653   6.231  12.320  0.2512 -0.6039 -0.4708
 6328TIP3    H140399   0.671   6.315  12.361 -1.3544  0.2797 -1.4744
 6328TIP3    H240400   0.678   6.243  12.229 -3.0129 -0.0160 -1.4212
 6329TIP3   OH240401   6.187   2.588   3.478 -0.0294 -0.0713  0.4226
 6329TIP3    H140402   6.260   2.645   3.500 -0.8537  1.7087 -1.1541
 6329TIP3    H240403   6.191   2.518   3.543  1.4997  1.3412  1.9651
 6330TIP3   OH240404   4.762   4.937  13.887 -0.0726 -0.3447  0.0008
 6330TIP3    H140405   4.811   4.875  13.941 -0.1902 -1.4999 -1.1696
 6330TIP3    H240406   4.703   4.981  13.949 -0.2369 -1.6537  0.8137
 6331TIP3   OH240407   5.493   1.782   2.312 -0.2212 -0.2364 -0.4544
 6331TIP3    H140408   5.411   1.739   2.289 -0.4200  0.3825 -0.9233
 6331TIP3    H240409   5.560   1.714   2.301 -0.9187 -1.5617  2.4412
 6332TIP3   OH240410   1.178   2.607  12.571  0.4740  0.1708 -0.1689
 6332TIP3    H140411   1.230   2.687  12.561  0.8530 -0.1669 -1.0712
 6332TIP3    H240412   1.119   2.625  12.644  1.4211  0.8054  0.4586
 6333TIP3   OH240413   4.631   2.938  12.186  0.6656 -0.2546 -0.1157
 6333TIP3    H140414   4.655   2.866  12.244  1.5526  0.0887 -0.0439
 6333TIP3    H240415   4.715   2.973  12.155  0.2212 -0.3707 -1.5340
 6334TIP3   OH240416   0.040   4.602  15.122  0.0883 -0.1729  0.0852
 6334TIP3    H140417   0.080   4.607  15.209  1.2399 -1.7306 -0.3161
 6334TIP3    H240418   0.109   4.567  15.065 -1.2074 -0.9597 -1.0705
 6335TIP3   OH240419   3.589   1.285  15.292 -0.0329  0.5766  0.2117
 6335TIP3    H140420   3.625   1.306  15.206  0.1513 -0.9568 -0.1097
 6335TIP3    H240421   3.495   1.304  15.284 -0.2013 -0.5450 -0.6785
 6336TIP3   OH240422   4.993   4.776   1.258 -0.1198  0.3090 -0.1041
 6336TIP3    H140423   4.958   4.741   1.340  0.5439 -0.8626 -0.2907
 6336TIP3    H240424   4.920   4.774   1.197 -0.6045  1.1439  0.4321
 6337TIP3   OH240425   1.968   4.944   5.295 -0.0345  0.0280  0.4003
 6337TIP3    H140426   1.914   5.017   5.326 -0.7422 -0.3813  0.1491
 6337TIP3    H240427   2.001   4.903   5.376 -0.2877  0.1405  0.5609
 6338TIP3   OH240428   3.543   1.357  16.426 -0.1531  0.1487  0.6345
 6338TIP3    H140429   3.534   1.295  16.354 -1.1223  0.8059  0.1648
 6338TIP3    H240430   3.479   1.328  16.491 -3.3036  2.5981 -1.0749
 6339TIP3   OH240431   2.884   6.725  14.657  0.1620 -0.5281 -0.4327
 6339TIP3    H140432   2.824   6.752  14.726  0.3449 -0.2680 -0.3721
 6339TIP3    H240433   2.956   6.682  14.704  0.0284 -0.8312 -0.5030
 6340TIP3   OH240434   1.272   4.487   2.579 -0.3570 -0.1695 -0.0073
 6340TIP3    H140435   1.290   4.578   2.604 -0.9501 -0.0029 -0.1636
 6340TIP3    H240436   1.184   4.490   2.541 -0.0881 -0.6817 -0.6895
 6341TIP3   OH240437   1.514   4.282  17.124  0.0384 -0.7202  0.1486
 6341TIP3    H140438   1.592   4.227  17.113  1.1104  0.8576 -0.3191
 6341TIP3    H240439   1.536   4.340  17.197 -1.7318 -1.9442  1.7718
 6342TIP3   OH240440   5.819   6.630   3.846 -0.1530  0.3951  0.2920
 6342TIP3    H140441   5.829   6.588   3.931  1.1005  0.3964  0.1671
 6342TIP3    H240442   5.905   6.620   3.804 -1.3514 -1.6948 -1.9500
 6343TIP3   OH240443   2.380   3.932  11.489  0.1099 -0.4471 -0.4253
 6343TIP3    H140444   2.330   3.949  11.409  1.3730 -0.3190 -1.2137
 6343TIP3    H240445   2.462   3.892  11.458  1.3928  1.1991  0.6469
 6344TIP3   OH240446   2.050   2.003   3.509 -1.0172  0.2109 -0.0204
 6344TIP3    H140447   2.091   1.918   3.527 -1.2565 -0.4699 -2.4269
 6344TIP3    H240448   2.082   2.060   3.580  0.1289 -1.5449  0.9547
 6345TIP3   OH240449   4.770   1.905  16.833 -1.0397  0.1232  0.1206
 6345TIP3    H140450   4.727   1.985  16.862 -0.7903 -0.1674  1.3504
 6345TIP3    H240451   4.857   1.909  16.874  0.2324  0.7786 -2.4150
 6346TIP3   OH240452   6.667   3.214   2.266  0.0161 -0.2781 -0.2517
 6346TIP3    H140453   6.700   3.272   2.197 -0.6447  0.1967 -0.1800
 6346TIP3    H240454   6.651   3.273   2.340  0.0075 -0.6672  0.0601
 6347TIP3   OH240455   1.537   6.328   4.181 -0.3993  0.5895 -0.0184
 6347TIP3    H140456   1.453   6.348   4.141 -0.5279 -0.7689 -0.4723
 6347TIP3    H240457   1.518   6.317   4.274 -1.4367 -3.1367 -0.5405
 6348TIP3   OH240458   4.095   1.992   5.410 -0.5890  0.5903 -0.0099
 6348TIP3    H140459   4.044   1.911   5.399 -0.4078  0.7721 -2.8780
 6348TIP3    H240460   4.105   2.001   5.505 -0.3810 -2.8954  0.4351
 6349TIP3   OH240461   4.214   2.725   3.927 -0.0061 -0.1769 -0.1255
 6349TIP3    H140462   4.194   2.805   3.975  1.3341 -1.5981  3.1289
 6349TIP3    H240463   4.182   2.655   3.983  0.6522 -1.9976 -1.9010
 6350TIP3   OH240464   0.675   0.199  13.551  0.1875  0.2230  0.1026
 6350TIP3    H140465   0.636   0.283  13.528  0.3551  0.3944  0.4347
 6350TIP3    H240466   0.617   0.134  13.513 -0.8610  0.4506  1.2510
 6351TIP3   OH240467   2.628   0.631  16.303 -0.4628  0.1174 -0.5442
 6351TIP3    H140468   2.616   0.658  16.394  2.5036  2.6496 -0.7416
 6351TIP3    H240469   2.539   0.621  16.269 -1.6853 -1.5869  2.7246
 6352TIP3   OH240470   1.487   1.301   5.369 -0.4515 -0.1973 -0.3238
 6352TIP3    H140471   1.514   1.224   5.419 -2.1821 -0.1294  0.7941
 6352TIP3    H240472   1.497   1.374   5.430  0.5962  0.4169 -1.1870
 6353TIP3   OH240473   2.317   3.571   4.842  0.2809  0.2459 -0.0397
 6353TIP3    H140474   2.296   3.597   4.752  1.8302 -0.5841 -0.6871
 6353TIP3    H240475   2.334   3.477   4.836  3.4462  0.6834  0.4649
 6354TIP3   OH240476   3.207   6.188  12.111  0.9463 -0.4399  0.1304
 6354TIP3    H140477   3.260   6.144  12.178  2.9091  1.0801 -0.3304
 6354TIP3    H240478   3.122   6.202  12.154  1.4559 -1.3943  1.5330
 6355TIP3   OH240479   2.090   5.752  16.059 -0.0565 -0.1774 -0.5787
 6355TIP3    H140480   2.128   5.690  16.121 -1.3230  0.4812  0.9263
 6355TIP3    H240481   2.039   5.698  15.998  0.4030 -0.7507 -0.4594
 6356TIP3   OH240482   1.958   1.042   2.930  0.0748  0.0859 -0.9444
 6356TIP3    H140483   1.940   1.098   3.005  1.8439  1.2287 -1.3102
 6356TIP3    H240484   1.873   1.005   2.906 -0.4534 -0.6949  1.8697
 6357TIP3   OH240485   0.703   0.247   5.302  0.3567  0.3795 -0.4023
 6357TIP3    H140486   0.698   0.163   5.257  0.1098  1.3699 -2.3133
 6357TIP3    H240487   0.664   0.230   5.388  0.8965 -1.5911 -0.4868
 6358TIP3   OH240488   1.646   0.411   2.617  0.3667 -0.2924  0.1447
 6358TIP3    H140489   1.706   0.481   2.644  1.9424 -1.3742 -0.4076
 6358TIP3    H240490   1.648   0.413   2.521 -0.9852  0.0543  0.1125
 6359TIP3   OH240491   2.347   6.693   1.074 -0.0884 -0.1394  0.4845
 6359TIP3    H140492   2.344   6.775   1.026  2.5247  0.0248  0.4796
 6359TIP3    H240493   2.337   6.717   1.166  1.1610  0.2978  0.5297
 6360TIP3   OH240494   1.942   1.618   0.216 -0.1909  0.2168 -0.0684
 6360TIP3    H140495   1.848   1.610   0.234  0.1823 -1.9919  1.2215
 6360TIP3    H240496   1.983   1.621   0.302  1.0926 -1.9342 -0.5371
 6361TIP3   OH240497   4.378   5.501   0.464  0.4207 -0.5502 -0.4067
 6361TIP3    H140498   4.445   5.570   0.462 -0.9463  0.9835  1.8951
 6361TIP3    H240499   4.395   5.454   0.546 -1.3866 -0.0049  0.3205
 6362TIP3   OH240500   2.973   3.837  12.825 -0.6751  0.2190  0.0310
 6362TIP3    H140501   3.065   3.858  12.841 -1.6407  3.7949  1.9451
 6362TIP3    H240502   2.957   3.866  12.735 -0.1849  0.8222  0.1301
 6363TIP3   OH240503   4.869   3.121  11.623 -0.2692  0.0239 -0.0106
 6363TIP3    H140504   4.815   3.151  11.550 -0.4223 -0.9774 -0.3340
 6363TIP3    H240505   4.851   3.182  11.694 -0.4973  0.7248 -0.6567
 6364TIP3   OH240506   2.347   1.245  14.642  0.3416 -0.3204  0.1685
 6364TIP3    H140507   2.439   1.221  14.655  0.6654  0.9196  0.2140
 6364TIP3    H240508   2.346   1.340  14.646 -1.0464 -0.3490  0.7259
 6365TIP3   OH240509   4.420   4.437   2.664  0.4325 -0.5445  0.0996
 6365TIP3    H140510   4.421   4.441   2.568  1.1976  1.9792  0.1459
 6365TIP3    H240511   4.344   4.489   2.689  0.2740 -1.1441  0.9074
 6366TIP3   OH240512   3.940   2.546  13.649 -0.1869 -0.3772  0.3401
 6366TIP3    H140513   3.998   2.569  13.721  0.7756 -1.9347  0.1057
 6366TIP3    H240514   3.874   2.488  13.688  1.4402 -2.8139 -0.2840
 6367TIP3   OH240515   6.358   2.877  16.962  0.3820  0.3923  0.3708
 6367TIP3    H140516   6.288   2.814  16.951  0.9300  0.0011 -1.0398
 6367TIP3    H240517   6.332   2.952  16.907  0.5040  0.7400  0.7780
 6368TIP3   OH240518   3.330   5.174  16.663 -0.3012  0.4357 -0.0439
 6368TIP3    H140519   3.313   5.080  16.661  0.9912  0.1946 -1.5590
 6368TIP3    H240520   3.359   5.196  16.574 -1.0543  2.3678  0.1275
 6369TIP3   OH240521   0.634   3.128  17.107 -0.3680 -0.6265  0.3859
 6369TIP3    H140522   0.595   3.179  17.178  1.5068 -0.8097  1.6211
 6369TIP3    H240523   0.573   3.139  17.034 -2.2716 -0.2568  1.9310
 6370TIP3   OH240524   4.018   4.969  15.318  0.0696 -0.6658  0.3112
 6370TIP3    H140525   4.097   5.001  15.362 -0.7903 -1.0181  2.1952
 6370TIP3    H240526   4.050   4.935  15.234  1.6288  0.9115  0.2034
 6371TIP3   OH240527   1.208   0.664   6.211  0.3208  0.1055 -0.3987
 6371TIP3    H140528   1.210   0.590   6.150 -1.2845  0.5240 -1.0050
 6371TIP3    H240529   1.298   0.672   6.242  1.2590 -0.0400 -2.8458
 6372TIP3   OH240530   1.036   0.089  13.089  0.1712 -0.6960  0.0178
 6372TIP3    H140531   1.124   0.057  13.110  0.5033  0.4848  0.5116
 6372TIP3    H240532   1.023   0.066  12.997  0.4694 -2.0270  0.2935
 6373TIP3   OH240533   4.535   6.736   0.331 -0.0523 -0.2522 -0.0932
 6373TIP3    H140534   4.584   6.666   0.288 -0.2716  0.3218 -1.3111
 6373TIP3    H240535   4.536   6.808   0.268  0.6152  1.0369  1.3293
 6374TIP3   OH240536   2.153   4.326   2.106  0.3734  0.3646  0.0032
 6374TIP3    H140537   2.181   4.241   2.139  1.9589  1.0477  0.4967
 6374TIP3    H240538   2.124   4.308   2.016 -1.3939 -1.0335  0.8000
 6375TIP3   OH240539   5.657   3.914   4.390 -0.1280 -0.3099  0.8667
 6375TIP3    H140540   5.646   3.859   4.467  1.5301 -0.4112  1.0595
 6375TIP3    H240541   5.711   3.988   4.420  0.5812 -0.3711 -0.1926
 6376TIP3   OH240542   2.034   2.363  13.613  0.2628  0.1957  0.4029
 6376TIP3    H140543   2.005   2.351  13.523  0.7066  0.5729  0.2069
 6376TIP3    H240544   1.959   2.337  13.666 -0.5406  1.3847 -0.1051
 6377TIP3   OH240545   3.492   4.222  15.963  0.0295  0.3157 -0.3417
 6377TIP3    H140546   3.562   4.287  15.964 -0.2864  0.8071  2.9240
 6377TIP3    H240547   3.507   4.170  16.042 -2.4165 -0.5007 -0.3276
 6378TIP3   OH240548   3.242   4.194  14.943  0.1306 -0.4622  0.0896
 6378TIP3    H140549   3.171   4.257  14.934  0.4347  0.2151  1.8968
 6378TIP3    H240550   3.222   4.146  15.024  1.8972  0.0506  0.9008
 6379TIP3   OH240551   5.268   0.589   4.378  0.0247  0.3237  0.0313
 6379TIP3    H140552   5.189   0.554   4.338 -0.5812  0.6101  0.9428
 6379TIP3    H240553   5.334   0.585   4.309 -0.0411 -2.4239  0.0008
 6380TIP3   OH240554   2.272   6.318   4.218  0.4126 -0.2697  0.0333
 6380TIP3    H140555   2.220   6.325   4.298  1.0720 -0.7246  0.5139
 6380TIP3    H240556   2.274   6.224   4.199  1.0919 -0.2688  0.0585
 6381TIP3   OH240557   0.518   0.327   1.209 -0.0835 -0.3846  0.1351
 6381TIP3    H140558   0.611   0.308   1.210 -0.1342 -0.6164  0.6070
 6381TIP3    H240559   0.476   0.243   1.191 -0.2052 -0.3094  0.0679
 6382TIP3   OH240560   3.311   4.595  13.094  0.3890  0.2492  0.9544
 6382TIP3    H140561   3.254   4.580  13.018  1.9010  0.6931 -0.3190
 6382TIP3    H240562   3.398   4.568  13.064  0.8854 -0.3938  2.8456
 6383TIP3   OH240563   1.547   5.870  13.919  0.0371  0.3749 -0.8171
 6383TIP3    H140564   1.621   5.830  13.964 -0.9638 -2.1529 -1.2110
 6383TIP3    H240565   1.506   5.927  13.984  0.2519 -1.0206  0.5973
 6384TIP3   OH240566   3.806   1.917  14.862  0.4490 -0.2959  0.7072
 6384TIP3    H140567   3.769   1.891  14.778  0.2256 -0.6159  0.9018
 6384TIP3    H240568   3.774   1.851  14.924  0.7502 -0.1604  1.0113
 6385TIP3   OH240569   2.710   1.289  13.246 -0.3016 -0.0351  0.1644
 6385TIP3    H140570   2.775   1.358  13.242 -0.2775 -0.0402  0.4826
 6385TIP3    H240571   2.666   1.293  13.161 -1.4702  1.5107  0.7955
 6386TIP3   OH240572   0.709   0.328  10.891  0.7189  0.2454 -0.5247
 6386TIP3    H140573   0.794   0.354  10.855  1.5587 -0.5153  0.8304
 6386TIP3    H240574   0.719   0.235  10.911  0.1185  0.5000  1.1025
 6387TIP3   OH240575   4.201   1.687   4.652 -0.1634 -0.1160 -0.1483
 6387TIP3    H140576   4.177   1.777   4.674  0.0520  0.5585 -2.4248
 6387TIP3    H240577   4.141   1.633   4.703 -0.5309  1.3068  0.9983
 6388TIP3   OH240578   5.406   2.034   0.273 -0.2458  0.1338  0.4057
 6388TIP3    H140579   5.311   2.042   0.279 -0.2842 -0.4276  0.6455
 6388TIP3    H240580   5.437   2.122   0.252 -0.7814  0.4210  0.7985
 6389TIP3   OH240581   5.979   3.698  16.594 -0.1936 -0.5157  0.2916
 6389TIP3    H140582   5.939   3.775  16.636 -1.1038 -0.3912 -0.7494
 6389TIP3    H240583   5.996   3.638  16.666  1.3112  0.9668  1.2536
 6390TIP3   OH240584   3.345   3.455  11.985  0.1889 -0.2616 -0.3045
 6390TIP3    H140585   3.431   3.475  12.023 -0.3797  1.8181  0.0484
 6390TIP3    H240586   3.363   3.438  11.893  0.9690  0.3651 -0.2794
 6391TIP3   OH240587   0.222   3.696  15.630 -0.2746  0.1021 -0.1837
 6391TIP3    H140588   0.194   3.643  15.556  1.0902  0.0078 -0.6617
 6391TIP3    H240589   0.244   3.781  15.592  1.6147 -0.3230 -0.1226
 6392TIP3   OH240590   4.223   1.079   0.510  0.2180 -0.2548  0.5551
 6392TIP3    H140591   4.161   1.122   0.451  0.8123 -0.6652 -0.4089
 6392TIP3    H240592   4.171   1.052   0.585 -0.5635  0.3086  0.2263
 6393TIP3   OH240593   5.560   5.857   0.439 -0.0090  0.2284  0.1215
 6393TIP3    H140594   5.656   5.855   0.435 -0.0037  0.9403 -0.3978
 6393TIP3    H240595   5.541   5.907   0.518  0.0748  1.2769 -0.4990
 6394TIP3   OH240596   3.054   2.344  11.019 -0.0817  0.6651 -0.2189
 6394TIP3    H140597   3.146   2.319  11.014 -0.4832 -0.7847 -1.2059
 6394TIP3    H240598   3.013   2.272  11.069 -0.6906  1.2307  0.1098
 6395TIP3   OH240599   6.474   3.418  12.558  0.5647  0.3068  0.2872
 6395TIP3    H140600   6.558   3.462  12.567  0.8955 -0.2805  0.1332
 6395TIP3    H240601   6.468   3.395  12.465 -0.2862  1.3450  0.0612
 6396TIP3   OH240602   2.011   4.816  16.604  0.5076  0.4536  0.0382
 6396TIP3    H140603   1.924   4.779  16.589  0.0079  0.2607  2.8875
 6396TIP3    H240604   2.063   4.743  16.638  1.4650  0.8266 -0.6101
 6397TIP3   OH240605   5.923   5.679   3.647  0.2418  0.4104  0.1167
 6397TIP3    H140606   5.912   5.587   3.671 -0.8360 -0.1020 -2.0858
 6397TIP3    H240607   5.937   5.678   3.552 -0.4202  2.5625 -0.0592
 6398TIP3   OH240608   4.696   4.563  13.314  0.3479  0.0042 -0.5954
 6398TIP3    H140609   4.674   4.489  13.257 -0.4668  1.5377 -2.3783
 6398TIP3    H240610   4.621   4.572  13.373 -0.4807  0.5886 -1.6942
 6399TIP3   OH240611   0.398   3.287   6.079  0.1457 -0.2739 -0.0830
 6399TIP3    H140612   0.468   3.295   6.014  0.0993 -2.1044 -0.4359
 6399TIP3    H240613   0.388   3.192   6.091 -0.3379 -0.0052  2.0779
 6400TIP3   OH240614   0.804   3.549   4.162 -0.4771 -0.2787 -0.5499
 6400TIP3    H140615   0.878   3.496   4.132 -0.3098 -0.1911 -0.2939
 6400TIP3    H240616   0.837   3.639   4.163  0.3191 -0.4870  2.1760
 6401TIP3   OH240617   1.298   4.068  11.556  0.4022  0.3317 -0.3905
 6401TIP3    H140618   1.286   4.098  11.466  1.0783 -0.2225 -0.6731
 6401TIP3    H240619   1.221   4.014  11.574  0.1390  0.6533 -0.5399
 6402TIP3   OH240620   1.331   2.157  15.439  0.0985  0.0422  0.0756
 6402TIP3    H140621   1.404   2.219  15.426  0.0968 -0.1880 -1.1358
 6402TIP3    H240622   1.348   2.087  15.376 -2.0071  0.7457 -1.3854
 6403TIP3   OH240623   2.063   5.292   2.920 -0.1503  0.7208 -0.1231
 6403TIP3    H140624   2.129   5.291   2.990 -0.2223 -1.3072 -0.0258
 6403TIP3    H240625   1.991   5.344   2.956  0.0234  0.1336  1.1413
 6404TIP3   OH240626   2.999   2.091   6.300 -0.4069  0.1777  0.2039
 6404TIP3    H140627   2.978   2.011   6.252 -0.5717  0.4126 -0.1256
 6404TIP3    H240628   2.931   2.153   6.273  0.5532  0.8803 -0.6827
 6405TIP3   OH240629   0.306   1.221  12.215 -0.6341 -0.3129 -0.2313
 6405TIP3    H140630   0.355   1.139  12.203  0.0624  0.0249  0.1988
 6405TIP3    H240631   0.364   1.275  12.269 -1.2281  0.3407 -0.2370
 6406TIP3   OH240632   5.614   6.235   2.767 -0.1363  0.0237 -0.5625
 6406TIP3    H140633   5.593   6.163   2.827  1.3560  0.3229  0.3935
 6406TIP3    H240634   5.689   6.202   2.717 -0.0600  0.5546 -0.8011
 6407TIP3   OH240635   5.443   3.193  11.049 -0.4841 -0.0701 -0.3969
 6407TIP3    H140636   5.427   3.144  11.130 -1.6068  1.4562  0.3438
 6407TIP3    H240637   5.538   3.202  11.044 -0.2730 -1.8497 -0.3058
 6408TIP3   OH240638   2.320   4.347  12.881 -0.8755 -0.1277 -0.0000
 6408TIP3    H140639   2.257   4.362  12.811 -1.0976  0.7960  0.3826
 6408TIP3    H240640   2.403   4.332  12.836 -1.4407 -1.8778 -0.5268
 6409TIP3   OH240641   0.792   6.304  12.967  0.1824  0.2311  0.3981
 6409TIP3    H140642   0.729   6.281  12.899  0.0580  2.9799 -0.5090
 6409TIP3    H240643   0.758   6.262  13.046 -2.1816  0.7266 -0.2978
 6410TIP3   OH240644   3.441   1.509   4.174  0.0508 -0.8102  0.1487
 6410TIP3    H140645   3.412   1.451   4.103  0.9692 -0.8940 -0.1648
 6410TIP3    H240646   3.470   1.589   4.130 -0.0759 -0.5735  0.4887
 6411TIP3   OH240647   0.913   5.476   5.890 -0.3690 -0.1970  0.2324
 6411TIP3    H140648   0.974   5.529   5.838 -0.7261 -0.8059 -0.8323
 6411TIP3    H240649   0.874   5.538   5.952  2.5404 -0.0679  2.1335
 6412TIP3   OH240650   5.188   6.571   2.907  0.2558 -0.4141  0.2728
 6412TIP3    H140651   5.209   6.626   2.831  1.7391  0.6529  1.3952
 6412TIP3    H240652   5.099   6.596   2.931 -0.7423 -1.6450 -1.7909
 6413TIP3   OH240653   4.894   0.795   1.391  0.4761  0.0239 -0.3351
 6413TIP3    H140654   4.931   0.880   1.416 -1.4315  0.4154  1.5002
 6413TIP3    H240655   4.799   0.809   1.392  0.1401 -1.3275 -3.2192
 6414TIP3   OH240656   4.018   3.162  15.619 -0.6843 -0.2683  0.2133
 6414TIP3    H140657   3.950   3.140  15.555 -0.4878  1.7019 -0.7452
 6414TIP3    H240658   3.970   3.193  15.695 -0.9428  1.9860 -0.7877
 6415TIP3   OH240659   5.027   3.175  16.270 -0.5193 -0.0179  0.1440
 6415TIP3    H140660   5.016   3.162  16.364 -2.3805 -2.0237 -0.2799
 6415TIP3    H240661   5.081   3.101  16.242  1.1813  1.2915 -0.2304
 6416TIP3   OH240662   2.210   0.770   0.451  0.4209  0.3292 -0.1502
 6416TIP3    H140663   2.128   0.721   0.442  1.0136 -0.2771 -4.5135
 6416TIP3    H240664   2.252   0.733   0.528 -1.9761 -1.5708  0.3890
 6417TIP3   OH240665   0.143   6.304   3.373 -0.0376  0.7115 -0.1175
 6417TIP3    H140666   0.199   6.291   3.450  0.3865  0.6470 -0.4333
 6417TIP3    H240667   0.168   6.390   3.339  0.4679  0.3258 -0.7462
 6418TIP3   OH240668   3.546   1.764   5.940  0.4970  0.0518 -0.5927
 6418TIP3    H140669   3.485   1.718   5.998 -0.7225  0.4874 -1.4991
 6418TIP3    H240670   3.632   1.750   5.980 -0.0734 -1.3671  0.1929
 6419TIP3   OH240671   6.764   1.190  11.671  0.1225 -0.2517 -0.4981
 6419TIP3    H140672   6.737   1.212  11.760 -0.8902  0.6516 -0.9968
 6419TIP3    H240673   6.695   1.132  11.639  0.2692 -0.2490 -0.8253
 6420TIP3   OH240674   6.471   6.616  11.893 -0.5843 -0.2428 -0.5568
 6420TIP3    H140675   6.402   6.550  11.893 -0.3867 -0.4571 -0.1478
 6420TIP3    H240676   6.470   6.653  11.805 -0.7764 -0.7131 -0.7520
 6421TIP3   OH240677   0.795   2.819   2.872 -0.1823 -0.2100 -0.0982
 6421TIP3    H140678   0.878   2.865   2.857 -0.2778 -0.1940 -0.5705
 6421TIP3    H240679   0.796   2.747   2.809  0.3712 -1.4129  1.2117
 6422TIP3   OH240680   6.755   6.174  11.207  0.0975  0.5217 -0.3644
 6422TIP3    H140681   6.795   6.090  11.230  1.3968  1.6143  1.6699
 6422TIP3    H240682   6.679   6.181  11.265  0.0933  0.8058 -0.4022
 6423TIP3   OH240683   1.198   5.953  16.710  0.0329  0.3380 -0.4937
 6423TIP3    H140684   1.268   6.015  16.687 -0.2190  0.2869 -1.3966
 6423TIP3    H240685   1.144   6.001  16.773  1.2745  0.1288  0.8064
 6424TIP3   OH240686   5.489   6.073  11.347 -0.2322 -0.4237 -0.0396
 6424TIP3    H140687   5.557   6.127  11.388 -0.8049 -1.2180  2.0473
 6424TIP3    H240688   5.516   5.983  11.363 -0.6016 -0.7668 -1.2478
 6425TIP3   OH240689   4.504   0.123   2.215 -0.3558  0.2720 -0.1759
 6425TIP3    H140690   4.481   0.216   2.214 -1.8010 -0.0514  0.2163
 6425TIP3    H240691   4.573   0.117   2.281  0.0029  1.1119 -0.4520
 6426TIP3   OH240692   3.818   6.300   4.285  0.2131 -0.5148  0.0744
 6426TIP3    H140693   3.845   6.306   4.377  0.1610 -2.0065  0.2138
 6426TIP3    H240694   3.751   6.232   4.284 -0.2918 -0.0235 -0.9728
 6427TIP3   OH240695   2.095   0.268   0.893 -0.1772 -0.5506 -0.6499
 6427TIP3    H140696   2.015   0.272   0.945  0.6526 -0.0045  0.6323
 6427TIP3    H240697   2.064   0.263   0.802 -1.6738  0.5758 -0.2486
 6428TIP3   OH240698   2.443   5.878   4.113 -0.4692  0.2272  0.2278
 6428TIP3    H140699   2.494   5.959   4.120 -1.0472  0.6426 -0.2020
 6428TIP3    H240700   2.508   5.808   4.114  0.0352  0.6922  0.6663
 6429TIP3   OH240701   1.781   0.693   4.299 -0.5229  0.8931 -0.0993
 6429TIP3    H140702   1.835   0.732   4.367 -0.3006  1.2900 -0.5037
 6429TIP3    H240703   1.757   0.766   4.242 -2.0747  0.8566  0.4630
 6430TIP3   OH240704   5.104   1.838   1.353  0.0788 -0.1096 -0.4705
 6430TIP3    H140705   5.089   1.913   1.296  1.3145  0.7030  0.2203
 6430TIP3    H240706   5.125   1.877   1.438  0.0013 -1.2558  0.0912
 6431TIP3   OH240707   2.985   0.478  16.144  0.2332 -0.4616 -0.3484
 6431TIP3    H140708   2.939   0.516  16.069  2.1889 -0.4220 -1.5861
 6431TIP3    H240709   2.916   0.436  16.196 -1.1822 -0.4010 -2.0968
 6432TIP3   OH240710   1.218   1.874  15.900  0.0924 -1.0543  0.3270
 6432TIP3    H140711   1.226   1.944  15.835  0.0622 -1.5294 -0.1970
 6432TIP3    H240712   1.128   1.845  15.893  0.3897 -1.8711 -0.2233
 6433TIP3   OH240713   5.996   2.552  12.317 -0.0971  0.2915  0.0575
 6433TIP3    H140714   6.075   2.538  12.369 -0.3916 -0.5274  0.3031
 6433TIP3    H240715   5.964   2.638  12.344  0.0003  0.0685  0.9055
 6434TIP3   OH240716   2.992   2.758  13.896  0.3483 -0.5982  0.1194
 6434TIP3    H140717   3.055   2.704  13.848  0.1327  0.4803 -1.4784
 6434TIP3    H240718   2.916   2.701  13.907 -0.1809 -0.4580 -2.2310
 6435TIP3   OH240719   4.552   4.859  17.055 -0.2093 -0.7600 -0.0332
 6435TIP3    H140720   4.470   4.898  17.085 -0.2976 -0.6479 -0.4172
 6435TIP3    H240721   4.613   4.932  17.047  0.4567 -1.0376  1.8945
 6436TIP3   OH240722   4.033   2.658   1.934 -0.2562  0.3100 -0.3848
 6436TIP3    H140723   3.981   2.635   1.857  0.1756  0.6412 -0.7800
 6436TIP3    H240724   3.987   2.617   2.007 -0.8908  0.3200 -0.7696
 6437TIP3   OH240725   2.438   6.329  12.324  0.3152 -0.5313  0.3356
 6437TIP3    H140726   2.446   6.424  12.334 -1.5547 -0.1376 -1.2753
 6437TIP3    H240727   2.461   6.313  12.232  0.5892 -1.6490  0.5845
 6438TIP3   OH240728   1.341   6.544  13.004 -0.9914 -0.1810 -0.3563
 6438TIP3    H140729   1.332   6.487  13.080 -1.6751  0.2548 -0.0998
 6438TIP3    H240730   1.309   6.629  13.034  0.8551  0.5965 -0.4588
 6439TIP3   OH240731   5.908   5.114   3.922 -0.1556  0.6534  0.2236
 6439TIP3    H140732   5.942   5.036   3.877 -0.6900  0.8939 -0.6401
 6439TIP3    H240733   5.834   5.081   3.973  0.6836  0.3121  1.2675
 6440TIP3   OH240734   3.820   0.008   2.610 -0.1299 -0.5974  0.0975
 6440TIP3    H140735   3.752  -0.002   2.543 -1.1207 -1.1021  1.1392
 6440TIP3    H240736   3.772   0.028   2.690  0.9977 -0.4220  0.7567
 6441TIP3   OH240737   5.310   6.290  11.441  0.1996 -0.3921 -0.3003
 6441TIP3    H140738   5.349   6.361  11.390  1.1258 -1.8506 -1.7319
 6441TIP3    H240739   5.349   6.210  11.404 -2.7412 -1.8329 -0.5450
 6442TIP3   OH240740   6.092   1.617  11.495  0.0472  0.1154  0.2888
 6442TIP3    H140741   6.136   1.702  11.495  0.7235 -0.2344  0.1263
 6442TIP3    H240742   6.032   1.622  11.571  2.5260 -0.4918  2.4243
 6443TIP3   OH240743   1.039   3.862   2.818 -0.0650 -0.1350 -0.0031
 6443TIP3    H140744   1.021   3.946   2.776  0.0100  1.0397  2.1557
 6443TIP3    H240745   1.131   3.867   2.843 -0.1982 -0.6501  0.6090
 6444TIP3   OH240746   0.025   4.079  12.664 -0.2082 -0.2558  0.1949
 6444TIP3    H140747   0.070   4.150  12.619 -0.2488  0.8123  1.7598
 6444TIP3    H240748   0.013   4.111  12.753 -0.5855 -2.0777  0.8454
 6445TIP3   OH240749   1.059   0.455   1.705  0.4481 -0.3624 -0.2776
 6445TIP3    H140750   1.080   0.548   1.702  1.0008 -0.4811 -0.3573
 6445TIP3    H240751   1.144   0.412   1.719  0.2179 -0.8597 -0.3779
 6446TIP3   OH240752   5.045   6.044   3.082 -0.0399 -0.6110 -0.3304
 6446TIP3    H140753   4.989   6.120   3.094  1.8872  0.9160 -0.4512
 6446TIP3    H240754   5.081   6.054   2.993  1.2635 -0.9104  0.1380
 6447TIP3   OH240755   1.998   5.388  11.596 -0.0014 -0.6598 -0.1888
 6447TIP3    H140756   1.934   5.321  11.619 -1.5409 -0.0715 -2.3694
 6447TIP3    H240757   1.948   5.470  11.596  0.7780 -0.1420 -1.7274
 6448TIP3   OH240758   5.340   1.153   2.434  0.0127  0.3947 -0.0341
 6448TIP3    H140759   5.418   1.201   2.406  1.2783  0.1588  2.6862
 6448TIP3    H240760   5.375   1.069   2.465 -1.6371 -0.6182 -0.8013
 6449TIP3   OH240761   0.771   1.335  14.696 -0.1838  0.2669 -0.1795
 6449TIP3    H140762   0.702   1.301  14.639 -0.2192  0.5700 -0.3220
 6449TIP3    H240763   0.833   1.376  14.636  1.9731 -3.0160 -0.4438
 6450TIP3   OH240764   1.643   5.365   1.993 -0.5621 -0.0887 -0.0254
 6450TIP3    H140765   1.675   5.346   2.081 -0.7959 -0.2967  0.0153
 6450TIP3    H240766   1.609   5.281   1.961  0.5364 -0.2927 -0.7414
 6451TIP3   OH240767   4.145   5.495   6.017  0.1801 -0.0367 -0.7609
 6451TIP3    H140768   4.130   5.527   6.106 -3.0933 -0.1206 -1.1623
 6451TIP3    H240769   4.145   5.574   5.963 -1.6169 -0.1921 -1.0462
 6452TIP3   OH240770   3.585   2.594   2.937 -0.1953  0.2691 -0.3643
 6452TIP3    H140771   3.553   2.535   3.006 -1.2233 -0.3825 -1.3778
 6452TIP3    H240772   3.669   2.556   2.911 -0.6299 -0.4909 -0.6871
 6453TIP3   OH240773   6.230   0.044  16.734 -0.7363 -0.1685 -0.0058
 6453TIP3    H140774   6.146   0.048  16.780 -1.4428  0.1172 -1.2855
 6453TIP3    H240775   6.208   0.020  16.644  0.1237  3.2896 -1.3148
 6454TIP3   OH240776   5.430   1.916  10.996  0.0667 -0.0387  0.4918
 6454TIP3    H140777   5.394   1.871  10.920 -0.4487 -0.5944  1.0593
 6454TIP3    H240778   5.523   1.926  10.977  0.1074 -0.9834  0.1863
 6455TIP3   OH240779   5.087   0.015  12.478  0.2475 -0.0334  0.5064
 6455TIP3    H140780   5.095   0.073  12.402 -2.0141 -0.8079 -0.4277
 6455TIP3    H240781   4.999   0.032  12.512  0.8504 -0.4171  2.3773
 6456TIP3   OH240782   6.576   5.969  14.251 -0.2856  0.2773  0.1220
 6456TIP3    H140783   6.525   6.015  14.185  0.0912  0.8184  0.1985
 6456TIP3    H240784   6.616   6.039  14.303  0.5951 -0.1242  0.0140
 6457TIP3   OH240785   0.037   6.604   0.484  0.5222  0.2783  0.4500
 6457TIP3    H140786   0.127   6.571   0.487 -0.6496 -3.7199 -0.7777
 6457TIP3    H240787  -0.000   6.580   0.569 -0.2189 -1.3014 -0.2769
 6458TIP3   OH240788   1.812   2.947   2.144  0.1458 -0.2890 -0.4954
 6458TIP3    H140789   1.808   2.896   2.063  0.5196 -0.6726 -0.2731
 6458TIP3    H240790   1.734   2.920   2.193  1.3376 -2.1090  0.4790
 6459TIP3   OH240791   0.338   3.641  11.438  0.6153  0.1143  0.2650
 6459TIP3    H140792   0.363   3.732  11.419 -2.4168  0.8753 -0.5881
 6459TIP3    H240793   0.336   3.598  11.352  1.1005 -0.5345  0.5659
 6460TIP3   OH240794   3.416   3.922   0.143  0.2429 -0.0765 -0.0294
 6460TIP3    H140795   3.402   3.961   0.230  3.8361 -0.4223  0.8682
 6460TIP3    H240796   3.335   3.874   0.125 -0.5737 -0.1642  3.2186
 6461TIP3   OH240797   1.418   3.881   4.103 -0.1739  0.6563 -0.8265
 6461TIP3    H140798   1.359   3.901   4.176  0.6199 -0.5114  0.1633
 6461TIP3    H240799   1.503   3.916   4.130  1.0520 -2.9227  0.5672
 6462TIP3   OH240800   0.304   6.439   1.656  0.1708 -0.4469 -0.2138
 6462TIP3    H140801   0.389   6.476   1.633 -1.1904  1.5186 -2.5472
 6462TIP3    H240802   0.293   6.365   1.597 -0.4319  0.3609 -1.1331
 6463TIP3   OH240803   3.896   6.312  15.951  0.3345 -0.0609 -0.0892
 6463TIP3    H140804   3.955   6.349  15.886  0.1853  0.1074 -0.1311
 6463TIP3    H240805   3.846   6.246  15.903  0.5897 -0.3067 -0.0181
 6464TIP3   OH240806   1.051   6.170   0.412  0.0765  0.0868  0.5855
 6464TIP3    H140807   1.028   6.079   0.431 -0.4377  0.2817  0.9207
 6464TIP3    H240808   1.146   6.174   0.423  0.0693 -0.3460  0.8222
 6465TIP3   OH240809   5.707   0.259   5.033  0.0702 -0.1740  0.4723
 6465TIP3    H140810   5.676   0.343   5.070 -1.5133 -1.1540  1.5049
 6465TIP3    H240811   5.636   0.232   4.975  1.0446 -0.3216 -0.6661
 6466TIP3   OH240812   4.960   4.348  16.568  0.1267  0.1749  0.0891
 6466TIP3    H140813   5.028   4.411  16.593  0.0949  0.0270  0.5649
 6466TIP3    H240814   4.882   4.379  16.614 -0.6944  1.5683 -2.0886
 6467TIP3   OH240815   4.363   1.258  12.438 -0.1217  0.2009 -0.1197
 6467TIP3    H140816   4.363   1.329  12.502  0.3476 -0.4186  0.5904
 6467TIP3    H240817   4.417   1.190  12.479 -2.3397 -1.4510  0.2255
 6468TIP3   OH240818   1.790   5.980   0.393 -0.5654  0.7642 -0.1049
 6468TIP3    H140819   1.828   5.892   0.383 -2.3962 -0.1259  0.3550
 6468TIP3    H240820   1.840   6.018   0.466  1.5452  0.9011 -1.5306
 6469TIP3   OH240821   3.066   2.345   2.182 -0.1281 -0.0894  0.5047
 6469TIP3    H140822   3.058   2.403   2.258 -1.5474 -0.2792  0.5165
 6469TIP3    H240823   3.032   2.396   2.109  0.2110 -0.3078  0.1895
 6470TIP3   OH240824   6.532   5.519  12.767 -0.6641  0.8537 -0.0380
 6470TIP3    H140825   6.601   5.584  12.782 -0.3064  1.0819 -2.3295
 6470TIP3    H240826   6.574   5.435  12.784  0.4813  0.9369 -2.0990
 6471TIP3   OH240827   1.220   5.169   4.036  0.0356 -0.0751  0.2589
 6471TIP3    H140828   1.213   5.210   4.122 -1.8493 -0.9443  0.5587
 6471TIP3    H240829   1.226   5.076   4.055  1.7089 -0.1579 -0.5113
 6472TIP3   OH240830   6.151   6.175  10.532  0.2041 -0.5618  0.5666
 6472TIP3    H140831   6.165   6.107  10.598 -0.3939  1.0940  2.4633
 6472TIP3    H240832   6.127   6.253  10.581  3.3474  1.8181 -1.2812
 6473TIP3   OH240833   1.315   0.526  13.404  0.3354 -0.2176 -0.1586
 6473TIP3    H140834   1.312   0.606  13.456  1.2902 -0.9925  1.1671
 6473TIP3    H240835   1.223   0.506  13.385 -0.3037 -1.0656  3.1960
 6474TIP3   OH240836   3.288   6.402  16.249  0.4900  0.8213 -0.4812
 6474TIP3    H140837   3.227   6.447  16.190  2.2853  3.3179 -0.5871
 6474TIP3    H240838   3.369   6.394  16.199  0.9231 -0.4959  0.3858
 6475TIP3   OH240839   2.374   5.323   4.853 -0.9862  0.1477 -0.1928
 6475TIP3    H140840   2.371   5.231   4.879 -1.7264  0.1386 -0.2908
 6475TIP3    H240841   2.453   5.358   4.895 -0.2378 -0.7320 -0.8297
 6476TIP3   OH240842   2.649   5.728  15.456  0.0985 -0.0081  0.1697
 6476TIP3    H140843   2.623   5.753  15.367 -0.2887 -0.5485  0.1311
 6476TIP3    H240844   2.740   5.759  15.463  0.1893 -0.1109 -0.4710
 6477TIP3   OH240845   5.551   2.427   2.202 -0.6716 -0.3488 -0.0529
 6477TIP3    H140846   5.501   2.506   2.224  2.1060  1.6650 -0.5536
 6477TIP3    H240847   5.603   2.451   2.126  1.5668 -2.0580  0.8189
 6478TIP3   OH240848   1.269   5.231   4.956  0.6604 -0.3103 -0.1245
 6478TIP3    H140849   1.176   5.252   4.966  0.4872 -1.4481  0.9529
 6478TIP3    H240850   1.271   5.159   4.892  0.7819 -0.4087 -0.0109
 6479TIP3   OH240851   1.633   3.670   6.762  0.2234 -0.0055  0.1500
 6479TIP3    H140852   1.664   3.755   6.729 -1.6417  1.2188  1.3910
 6479TIP3    H240853   1.683   3.656   6.842  1.5220 -0.8111 -0.7501
 6480TIP3   OH240854   2.647   2.549   3.645 -0.1288  0.0313 -0.1593
 6480TIP3    H140855   2.607   2.621   3.596  1.8987  0.1685 -1.7752
 6480TIP3    H240856   2.658   2.584   3.733 -0.4635  1.1977 -0.5550
 6481TIP3   OH240857   6.324   5.323  14.722  0.6619 -0.7301 -0.9193
 6481TIP3    H140858   6.369   5.247  14.760  1.6127 -0.3163 -1.1927
 6481TIP3    H240859   6.319   5.304  14.629 -0.8191 -1.3088 -0.7493
 6482TIP3   OH240860   0.083   5.268   2.933  0.4857 -0.3618  0.2620
 6482TIP3    H140861   0.116   5.320   3.007  0.8391 -0.4129  0.1443
 6482TIP3    H240862   0.131   5.303   2.858 -0.2956  0.0823 -0.0309
 6483TIP3   OH240863   2.665   4.781   0.194  0.8301  0.2556 -0.4019
 6483TIP3    H140864   2.682   4.748   0.283 -0.4279 -3.3126 -1.2827
 6483TIP3    H240865   2.594   4.843   0.205 -0.6574 -1.5624  0.9906
 6484TIP3   OH240866   2.082   6.265   0.652 -0.6645 -0.4682 -0.1569
 6484TIP3    H140867   2.114   6.189   0.604  1.2416 -0.1176  0.4859
 6484TIP3    H240868   2.059   6.328   0.583  0.9270 -0.4099 -0.6915
 6485TIP3   OH240869   1.554   2.408   6.616  0.1802  0.1536  0.2932
 6485TIP3    H140870   1.489   2.360   6.565 -0.0943  0.3837  0.4292
 6485TIP3    H240871   1.637   2.364   6.595  0.1095  0.3992 -0.5319
 6486TIP3   OH240872   3.719   6.328   5.307  0.4997  0.5135 -0.1918
 6486TIP3    H140873   3.623   6.331   5.313  0.3837 -0.6719 -1.0508
 6486TIP3    H240874   3.746   6.420   5.312 -0.7468  0.9401 -0.7385
 6487TIP3   OH240875   6.102   1.130   3.677 -0.0656  0.0698 -0.1652
 6487TIP3    H140876   6.010   1.111   3.695 -0.1789  0.1481 -0.6471
 6487TIP3    H240877   6.105   1.224   3.660  0.4445  0.4844  1.9162
 6488TIP3   OH240878   2.148   1.433  14.047 -0.0340  0.2934 -0.3111
 6488TIP3    H140879   2.087   1.366  14.015 -1.1465  0.6220  0.9916
 6488TIP3    H240880   2.091   1.504  14.077  0.9100  0.1498  2.0163
 6489TIP3   OH240881   2.879   4.561   2.253  0.3668  0.2126  0.4573
 6489TIP3    H140882   2.899   4.510   2.175 -2.8242 -0.4457 -0.0648
 6489TIP3    H240883   2.840   4.642   2.220  0.6199  0.7251  1.3720
 6490TIP3   OH240884   1.990   1.148  13.453 -0.6372 -0.1744  0.8989
 6490TIP3    H140885   1.972   1.074  13.396  0.6765 -1.0728  1.6183
 6490TIP3    H240886   1.903   1.185  13.472 -1.2611 -1.1701  0.0813
 6491TIP3   OH240887   0.265   3.068   5.875  0.4547  0.0209  0.0223
 6491TIP3    H140888   0.340   3.104   5.922  0.9072  1.3767 -1.6247
 6491TIP3    H240889   0.209   3.031   5.943  2.1314 -0.1312  1.3803
 6492TIP3   OH240890   5.618   5.638   3.625 -0.1845 -0.4365 -0.1866
 6492TIP3    H140891   5.605   5.633   3.719  1.9629  0.6160  0.2464
 6492TIP3    H240892   5.712   5.654   3.615 -0.2522 -1.0757 -2.5367
 6493TIP3   OH240893   2.039   5.175   1.563 -0.1193  0.3567  0.0269
 6493TIP3    H140894   2.094   5.138   1.632 -1.0055 -1.7706 -0.3353
 6493TIP3    H240895   2.097   5.185   1.488 -0.0514 -1.4651 -0.2213
 6494TIP3   OH240896   1.830   3.561  13.122 -0.4394  0.2586 -0.1905
 6494TIP3    H140897   1.761   3.552  13.057 -1.4358  4.0895  0.0773
 6494TIP3    H240898   1.791   3.614  13.192  2.0042  0.3605  1.2313
 6495TIP3   OH240899   2.924   5.889  17.084  0.0555 -0.6709 -0.1530
 6495TIP3    H140900   2.891   5.950  17.018 -1.0483 -0.4236  0.6045
 6495TIP3    H240901   2.996   5.844  17.041  2.2050  2.4866 -0.1382
 6496TIP3   OH240902   5.962   4.377   5.072 -0.3853 -0.3485  0.1849
 6496TIP3    H140903   5.889   4.415   5.120 -0.5166 -1.1066  0.6067
 6496TIP3    H240904   6.017   4.452   5.049 -1.9111  0.3997 -1.2448
 6497TIP3   OH240905   2.781   4.437   5.953 -0.2317 -0.3056 -0.4493
 6497TIP3    H140906   2.788   4.347   5.985  3.2143 -0.3072 -0.8825
 6497TIP3    H240907   2.792   4.429   5.859  0.7377  0.5833 -0.4249
 6498TIP3   OH240908   0.520   3.221   0.079  0.2711 -0.2793  0.3295
 6498TIP3    H140909   0.446   3.162   0.094  0.6011 -1.1475 -1.3210
 6498TIP3    H240910   0.480   3.302   0.048  0.0140 -0.8145 -0.7511
 6499TIP3   OH240911   3.218   3.647   5.900  0.4032  0.0149  0.0637
 6499TIP3    H140912   3.162   3.688   5.835 -0.2641 -0.9588  0.0091
 6499TIP3    H240913   3.196   3.692   5.982 -1.5874 -1.3259  0.3435
 6500TIP3   OH240914   5.143   3.309   4.545  0.0169  0.0827 -0.7812
 6500TIP3    H140915   5.214   3.318   4.609 -1.6296  0.8596  1.0609
 6500TIP3    H240916   5.095   3.392   4.552 -2.1381 -1.1132 -0.5799
 6501TIP3   OH240917   2.267   4.811  12.154 -0.0499 -0.0085  0.6029
 6501TIP3    H140918   2.337   4.775  12.100  0.7672 -0.0478  1.6502
 6501TIP3    H240919   2.266   4.756  12.232 -1.4969 -0.2224  0.4478
 6502TIP3   OH240920   1.378   4.206  13.031 -0.0867  0.2435  0.1117
 6502TIP3    H140921   1.444   4.138  13.015 -0.4948 -0.4922  1.3439
 6502TIP3    H240922   1.413   4.284  12.990  0.8940 -0.4710 -0.4605
 6503TIP3   OH240923   6.022   4.014  14.976  0.6001 -0.0780 -0.0202
 6503TIP3    H140924   6.067   4.065  14.908  0.5021  0.6247  0.4302
 6503TIP3    H240925   6.015   4.074  15.050 -0.1427 -0.5271  0.2852
 6504TIP3   OH240926   6.059   4.384   2.900  0.2420  0.0856 -0.0590
 6504TIP3    H140927   6.048   4.319   2.830 -0.8970 -0.1864  0.3507
 6504TIP3    H240928   6.065   4.332   2.980 -0.9949  0.4643  0.3106
 6505TIP3   OH240929   2.116   0.542   1.108  0.1394 -0.0160 -0.8276
 6505TIP3    H140930   2.112   0.501   1.195 -0.2619  0.7924 -0.4595
 6505TIP3    H240931   2.099   0.470   1.047 -1.4958 -0.2314 -0.1458
 6506TIP3   OH240932   0.548   1.623   5.318  0.2543  0.0977  0.4399
 6506TIP3    H140933   0.573   1.563   5.248  1.0669 -1.5168  2.0197
 6506TIP3    H240934   0.454   1.635   5.308  0.6047  1.4409 -2.0138
 6507TIP3   OH240935   0.000   0.492   6.318  0.2448  0.5219  0.0793
 6507TIP3    H140936  -0.027   0.572   6.363  0.0333 -1.0505  2.9927
 6507TIP3    H240937   0.092   0.481   6.343  0.4807  0.1773 -0.8833
 6508TIP3   OH240938   6.294   3.906  14.609  0.0066 -0.3832 -0.0135
 6508TIP3    H140939   6.259   3.882  14.695  0.1829 -0.5512  0.0108
 6508TIP3    H240940   6.384   3.874  14.610  0.6272  1.2728  0.4517
 6509TIP3   OH240941   1.844   4.478   2.441  0.6720  0.3072 -0.0635
 6509TIP3    H140942   1.749   4.471   2.437  0.6572  0.3070  0.2310
 6509TIP3    H240943   1.864   4.561   2.397  0.6309 -0.2318 -1.1278
 6510TIP3   OH240944   4.222   2.430   1.378 -0.1597 -0.0428  0.0968
 6510TIP3    H140945   4.301   2.398   1.335  1.1400  0.5958  1.8815
 6510TIP3    H240946   4.180   2.486   1.313  1.0239 -0.1407 -0.7798
 6511TIP3   OH240947   4.230   6.322  14.048 -0.0568 -0.0273 -0.2929
 6511TIP3    H140948   4.177   6.394  14.083 -0.1234 -0.6142  0.8692
 6511TIP3    H240949   4.267   6.279  14.126  2.4914  0.6098 -1.0687
 6512TIP3   OH240950   6.231   2.917  13.652 -0.7598 -0.0837  0.2903
 6512TIP3    H140951   6.200   2.883  13.736 -2.7608 -1.4710 -0.9295
 6512TIP3    H240952   6.284   2.845  13.616 -1.0873 -0.0617 -0.2439
 6513TIP3   OH240953   3.357   0.605   4.980  0.4324 -0.2887 -0.5063
 6513TIP3    H140954   3.332   0.577   4.892 -2.7140 -0.6647  0.3823
 6513TIP3    H240955   3.406   0.686   4.966  1.9824 -1.4989 -2.6697
 6514TIP3   OH240956   4.197   3.086  11.516 -0.4909  0.0639  0.0106
 6514TIP3    H140957   4.129   3.020  11.533  1.6020 -2.2600 -0.0292
 6514TIP3    H240958   4.235   3.104  11.602  1.2927 -1.5868 -0.3630
 6515TIP3   OH240959   3.621   0.720   0.061 -0.0936  0.3042 -0.3505
 6515TIP3    H140960   3.620   0.782  -0.012 -0.6807 -0.7954 -1.3088
 6515TIP3    H240961   3.530   0.693   0.070 -0.6287  2.5703  2.7379
 6516TIP3   OH240962   3.849   5.659   4.129  0.2380 -0.3368 -0.1710
 6516TIP3    H140963   3.925   5.672   4.071 -0.5803 -0.4106 -1.2886
 6516TIP3    H240964   3.788   5.607   4.077  0.5814 -2.8488  1.7576
 6517TIP3   OH240965   0.589   1.610   6.143  0.0529  0.5715  0.0841
 6517TIP3    H140966   0.558   1.601   6.053 -2.7619  0.5712  0.9613
 6517TIP3    H240967   0.642   1.532   6.158  1.7528  1.2316 -1.9402
 6518TIP3   OH240968   5.571   3.206   3.079 -0.4594  0.2696  0.5309
 6518TIP3    H140969   5.530   3.290   3.101 -0.0719  1.0793 -1.5453
 6518TIP3    H240970   5.662   3.229   3.058 -0.1572 -0.7855  0.6562
 6519TIP3   OH240971   1.718   5.437  12.912 -0.3725  0.0261  0.3064
 6519TIP3    H140972   1.776   5.513  12.921 -0.8715  0.4791 -0.2372
 6519TIP3    H240973   1.726   5.391  12.996 -0.2728  0.8302  0.7484
 6520TIP3   OH240974   3.539   5.912   4.893  0.1385  0.4066  0.2674
 6520TIP3    H140975   3.606   5.857   4.934  1.0705  0.3676 -1.2444
 6520TIP3    H240976   3.462   5.855   4.888  0.5746 -0.2038  0.2948
 6521TIP3   OH240977   5.542   6.091  13.210 -0.4923 -0.5478  0.0941
 6521TIP3    H140978   5.517   6.179  13.182 -0.4479 -0.2387  0.9968
 6521TIP3    H240979   5.476   6.067  13.275 -1.2447 -1.7045 -1.0583
 6522TIP3   OH240980   1.106   4.010  14.875  0.1539 -0.4917 -0.6991
 6522TIP3    H140981   1.046   3.971  14.812 -0.2489 -0.1590 -0.5170
 6522TIP3    H240982   1.166   4.062  14.822 -1.2216  1.1823 -0.6759
 6523TIP3   OH240983   1.778   4.539   4.692 -0.2124 -0.3118 -0.3445
 6523TIP3    H140984   1.781   4.497   4.606  0.3108  0.5249 -0.7420
 6523TIP3    H240985   1.777   4.465   4.754  3.4422 -1.0373 -0.9225
 6524TIP3   OH240986   3.914   4.465   5.873 -0.3996 -0.7816  0.4625
 6524TIP3    H140987   3.871   4.458   5.958 -0.2670 -0.6283  0.5418
 6524TIP3    H240988   3.843   4.487   5.812 -0.2972  0.3374  0.7335
 6525TIP3   OH240989   2.239   5.062   6.188  0.3966 -0.0317 -0.0973
 6525TIP3    H140990   2.282   4.994   6.135  0.7866 -0.3304  0.5705
 6525TIP3    H240991   2.244   5.027   6.277 -0.5244  0.3145  0.0898
 6526TIP3   OH240992   2.631   2.613  15.399  0.6769  0.3675 -0.1646
 6526TIP3    H140993   2.693   2.568  15.341  1.6823 -0.6337  1.5893
 6526TIP3    H240994   2.679   2.624  15.481 -0.5784  2.0320  0.4031
 6527TIP3   OH240995   1.066   3.307  15.769  0.0473 -0.0959  0.6703
 6527TIP3    H140996   1.054   3.400  15.751  1.0359  0.3020  1.9234
 6527TIP3    H240997   1.067   3.300  15.864 -1.0991 -1.5600  0.6197
 6528TIP3   OH240998   5.048   0.448  13.282  0.5470  0.4114  0.2738
 6528TIP3    H140999   5.108   0.394  13.334  0.4134 -0.6636 -0.6617
 6528TIP3    H241000   4.963   0.436  13.323  0.4448 -0.4186 -0.1678
 6529TIP3   OH241001   1.484   4.272   2.261 -0.2487 -0.0145 -0.2859
 6529TIP3    H141002   1.400   4.229   2.276  0.8133 -1.6754  1.2600
 6529TIP3    H241003   1.495   4.330   2.336 -0.1671  0.4665 -0.6667
 6530TIP3   OH241004   3.986   3.073  13.022  0.0797  0.2614  0.3848
 6530TIP3    H141005   3.924   3.145  13.017  0.6990  0.7186 -2.6168
 6530TIP3    H241006   3.937   3.002  13.064 -1.2384  1.7059  1.3961
 6531TIP3   OH241007   0.721   3.688  12.143  0.1298 -0.0547  0.3896
 6531TIP3    H141008   0.792   3.697  12.206  0.0006  0.4648  0.4610
 6531TIP3    H241009   0.641   3.702  12.194  0.0312  0.5470  0.0820
 6532TIP3   OH241010   4.888   0.586   4.801  0.1779  0.2837  0.3215
 6532TIP3    H141011   4.974   0.547   4.817  0.6927  1.8528  1.6670
 6532TIP3    H241012   4.880   0.588   4.706  1.7543  0.3233  0.1612
 6533TIP3   OH241013   0.693   2.487  15.950 -0.1260 -0.0473 -0.1617
 6533TIP3    H141014   0.635   2.435  15.894 -1.2955 -1.6442  2.3450
 6533TIP3    H241015   0.768   2.508  15.894 -0.1208 -3.4932 -1.7099
 6534TIP3   OH241016   2.996   5.703   0.740 -0.4998 -0.5525 -0.9443
 6534TIP3    H141017   2.948   5.763   0.682 -2.8827  0.5259  1.9010
 6534TIP3    H241018   2.974   5.615   0.707 -0.3275  0.0066 -2.6666
 6535TIP3   OH241019   3.354   4.039  16.606 -0.8755 -0.0340 -0.0827
 6535TIP3    H141020   3.353   3.949  16.576 -0.5216  0.1588 -0.6960
 6535TIP3    H241021   3.439   4.050  16.648 -0.0564  0.5790 -1.8337
 6536TIP3   OH241022   4.269   0.027   5.052 -0.0821  0.3080  0.3775
 6536TIP3    H141023   4.296  -0.047   4.998  0.0136  0.7985 -0.2572
 6536TIP3    H241024   4.173   0.025   5.049 -0.0781  0.2451  0.3063
 6537TIP3   OH241025   5.362   2.857   5.046 -0.6126  0.8054  0.0427
 6537TIP3    H141026   5.400   2.772   5.070 -1.1766  0.1009 -1.4502
 6537TIP3    H241027   5.438   2.909   5.018 -0.2376  0.8968  1.1599
 6538TIP3   OH241028   0.821   6.046  16.502  0.1148  0.0188  0.0285
 6538TIP3    H141029   0.799   6.138  16.516 -0.5663  0.2389 -2.1434
 6538TIP3    H241030   0.757   5.998  16.555 -1.1060  0.7814 -0.7067
 6539TIP3   OH241031   4.422   1.478  13.538 -0.3063 -0.2912  0.4173
 6539TIP3    H141032   4.483   1.480  13.464  0.2726  0.6784  0.8989
 6539TIP3    H241033   4.336   1.496  13.499 -0.1941 -1.0254 -0.1804
 6540TIP3   OH241034   3.570   2.695   1.196  0.0824 -0.0188 -0.0418
 6540TIP3    H141035   3.660   2.728   1.195 -0.1801  1.0151  2.6299
 6540TIP3    H241036   3.568   2.633   1.268 -1.6638  1.1581  1.0088
 6541TIP3   OH241037   0.607   4.462   1.859 -0.4138 -0.8383  0.0265
 6541TIP3    H141038   0.678   4.428   1.913  0.6371  0.4519 -0.4770
 6541TIP3    H241039   0.651   4.507   1.787 -1.7600 -0.5809 -0.6768
 6542TIP3   OH241040   0.580   2.662  15.569  0.1574 -0.2051  0.5864
 6542TIP3    H141041   0.586   2.715  15.490  2.0588  0.0802  0.8955
 6542TIP3    H241042   0.513   2.706  15.622  0.3484  0.7813  0.0314
 6543TIP3   OH241043   0.986   4.421  16.007  0.1178 -0.6527  0.0315
 6543TIP3    H141044   1.065   4.367  15.998  0.0835 -0.5515 -0.8942
 6543TIP3    H241045   0.974   4.461  15.921  0.8639  1.8600  0.9981
 6544TIP3   OH241046   3.650   1.621  16.823  0.4419 -0.0063  0.0893
 6544TIP3    H141047   3.716   1.665  16.876 -0.3923  1.9272 -0.3680
 6544TIP3    H241048   3.662   1.656  16.735 -1.8251  1.2794  0.2072
 6545TIP3   OH241049   6.559   2.632  15.239 -0.5870 -0.1662  0.1001
 6545TIP3    H141050   6.580   2.587  15.320  0.8712 -0.0228 -0.1772
 6545TIP3    H241051   6.531   2.720  15.266 -1.5355 -0.5899  0.5230
 6546TIP3   OH241052   1.659   1.783   3.676 -0.2634 -0.5689  0.1673
 6546TIP3    H141053   1.651   1.876   3.699  1.0865 -0.5989  0.8539
 6546TIP3    H241054   1.620   1.777   3.589 -1.1266  0.4714  0.4486
 6547TIP3   OH241055   1.653   5.888   3.316  0.2399 -0.0242  0.3742
 6547TIP3    H141056   1.573   5.909   3.268  0.6088  2.1690  0.5994
 6547TIP3    H241057   1.647   5.795   3.334 -1.4864 -0.2260 -1.0275
 6548TIP3   OH241058   6.410   0.859  12.605  0.2064  0.1333  0.0407
 6548TIP3    H141059   6.344   0.908  12.555 -1.2733 -2.1817 -0.4693
 6548TIP3    H241060   6.481   0.845  12.543 -0.2916 -0.1379 -0.4815
 6549TIP3   OH241061   1.437   4.750  16.964  0.0618 -0.3379  0.3264
 6549TIP3    H141062   1.392   4.786  17.041 -0.7129  1.7962 -1.0468
 6549TIP3    H241063   1.379   4.681  16.932 -0.6511  0.2016  0.4402
 6550TIP3   OH241064   4.284   1.099   2.884 -0.5274  0.0181  0.5026
 6550TIP3    H141065   4.361   1.098   2.940 -1.1420  0.2492  1.3710
 6550TIP3    H241066   4.233   1.023   2.911 -0.7767  0.0658  0.1734
 6551TIP3   OH241067   5.423   5.602  11.211  0.4480 -0.1712 -0.3636
 6551TIP3    H141068   5.336   5.576  11.182  0.8793 -1.5153 -0.5391
 6551TIP3    H241069   5.434   5.691  11.177  0.3910 -1.1436 -3.1828
 6552TIP3   OH241070   3.745   2.808   2.045 -0.6451  0.0938 -0.2034
 6552TIP3    H141071   3.803   2.883   2.034 -2.4032  1.4231 -1.0366
 6552TIP3    H241072   3.794   2.734   2.008  0.2931  1.2758 -1.4371
 6553TIP3   OH241073   1.899   1.388   3.740  0.2874 -0.1431  0.3236
 6553TIP3    H141074   1.839   1.390   3.815  1.0083  1.7542  0.8890
 6553TIP3    H241075   1.974   1.336   3.771 -0.2751 -1.0614  0.1949
 6554TIP3   OH241076   0.983   6.558  13.557 -0.1479 -0.1354  0.2116
 6554TIP3    H141077   0.906   6.601  13.594 -0.3991  0.2686 -0.7533
 6554TIP3    H241078   0.961   6.545  13.464  0.7402 -0.4820  0.0443
 6555TIP3   OH241079   4.652   4.786  11.428  0.4697  0.4604  0.1215
 6555TIP3    H141080   4.596   4.752  11.358  0.3332  0.7029  0.1133
 6555TIP3    H241081   4.734   4.808  11.385  0.6255 -0.0361  0.1595
 6556TIP3   OH241082   2.530   1.534   4.107  0.5227  0.2629  0.3926
 6556TIP3    H141083   2.457   1.584   4.071 -0.1554 -1.0771 -0.1628
 6556TIP3    H241084   2.608   1.573   4.067 -0.0605  0.2623 -0.7795
 6557TIP3   OH241085   2.325   3.917   4.713  0.1273  0.5124  0.5879
 6557TIP3    H141086   2.236   3.949   4.702 -0.4570 -1.3191 -0.3883
 6557TIP3    H241087   2.377   3.996   4.730 -1.3796  1.8319 -0.6313
 6558TIP3   OH241088   1.793   3.793  12.903  0.6957 -0.1477  0.4380
 6558TIP3    H141089   1.829   3.731  12.840  2.4364  0.7724  0.4859
 6558TIP3    H241090   1.864   3.809  12.965 -0.4327  0.2615  1.6862
 6559TIP3   OH241091   3.768   0.218  16.466 -0.0048 -0.0837 -0.0775
 6559TIP3    H141092   3.724   0.297  16.437  1.5642  0.2714 -1.6549
 6559TIP3    H241093   3.757   0.156  16.394  0.9349 -0.4321  0.0616
 6560TIP3   OH241094   0.799   6.475  13.353  0.1012  0.2215  0.4050
 6560TIP3    H141095   0.733   6.544  13.349  1.5347  1.7521  1.7912
 6560TIP3    H241096   0.872   6.508  13.301  0.8098 -0.2107  1.0915
 6561TIP3   OH241097   5.516   6.311   3.753  0.6039  0.5590  0.1679
 6561TIP3    H141098   5.518   6.407   3.748  1.4008  0.4723 -2.1570
 6561TIP3    H241099   5.425   6.291   3.775  0.2866  1.8225  0.1085
 6562TIP3   OH241100   4.053   4.134  11.358 -0.4075 -0.3708  0.1202
 6562TIP3    H141101   4.013   4.119  11.444  1.1496  0.9980  1.1601
 6562TIP3    H241102   4.128   4.191  11.377  0.4208 -0.6511 -2.0706
 6563TIP3   OH241103   1.011   0.109   3.598 -1.3433 -0.4837  0.2355
 6563TIP3    H141104   1.096   0.103   3.642 -1.8984 -1.4115  1.2370
 6563TIP3    H241105   1.033   0.127   3.506 -0.1463  1.5862  0.8485
 6564TIP3   OH241106   4.544   1.549  14.169  0.1819 -0.1234  0.4020
 6564TIP3    H141107   4.573   1.466  14.130 -1.3807 -0.4640 -0.1010
 6564TIP3    H241108   4.457   1.529  14.205 -0.3867  1.4044 -0.0781
 6565TIP3   OH241109   2.434   3.256  14.504  0.1431 -0.2736 -0.1937
 6565TIP3    H141110   2.444   3.334  14.450 -0.0786  0.6208  1.0049
 6565TIP3    H241111   2.499   3.267  14.574 -1.2534 -0.1159  1.1393
 6566TIP3   OH241112   0.646   3.525  14.054  0.0923 -0.1871  0.1756
 6566TIP3    H141113   0.583   3.520  14.126  0.1304  0.6740  0.2713
 6566TIP3    H241114   0.596   3.502  13.976  0.2518 -2.0569  0.5598
 6567TIP3   OH241115   3.459   0.840   4.002 -0.2873 -0.5358 -0.1096
 6567TIP3    H141116   3.460   0.773   4.071  0.5303 -1.3607 -0.8881
 6567TIP3    H241117   3.410   0.913   4.040 -1.5925 -1.7340  0.6223
 6568TIP3   OH241118   2.585   5.354   2.446  0.1634  0.1123  0.9267
 6568TIP3    H141119   2.616   5.444   2.457 -0.1477  0.2061  1.0412
 6568TIP3    H241120   2.511   5.361   2.386  1.4071 -0.3140 -0.7356
 6569TIP3   OH241121   1.476   1.492   4.963  0.7748  0.3040  0.0799
 6569TIP3    H141122   1.563   1.514   4.996  0.2879  0.2183  1.5091
 6569TIP3    H241123   1.489   1.409   4.916  1.5126  0.4535  0.0060
 6570TIP3   OH241124   0.127   3.014   2.382 -0.2140  0.3991  0.2763
 6570TIP3    H141125   0.130   2.936   2.326 -0.8679  0.6714 -0.1439
 6570TIP3    H241126   0.034   3.031   2.395 -0.0706  0.5889  1.1112
 6571TIP3   OH241127   3.592   5.494   2.971 -0.0907  0.1167 -0.1905
 6571TIP3    H141128   3.646   5.524   2.897  0.3889  1.4115  0.6554
 6571TIP3    H241129   3.610   5.400   2.977  1.6921  0.4274 -0.2351
 6572TIP3   OH241130   1.873   1.898  12.642  0.3758 -0.4690 -0.0561
 6572TIP3    H141131   1.888   1.812  12.680  2.0703  0.5494  1.7982
 6572TIP3    H241132   1.783   1.920  12.666  0.2315 -1.3416  0.2188
 6573TIP3   OH241133   3.008   4.479  13.461  0.4009 -0.1009 -0.3774
 6573TIP3    H141134   3.090   4.477  13.511 -0.3504 -0.2226  0.9006
 6573TIP3    H241135   2.940   4.484  13.528 -0.7177 -1.5774 -1.3482
 6574TIP3   OH241136   2.107   1.529   3.920 -1.1137  0.0749 -0.7026
 6574TIP3    H141137   2.118   1.439   3.890 -2.3556 -0.1104 -0.6538
 6574TIP3    H241138   2.107   1.524   4.015  0.1500  0.3099 -0.6835
 6575TIP3   OH241139   4.304   5.306   5.447  0.3810 -0.2479  0.4493
 6575TIP3    H141140   4.257   5.312   5.530  0.5747 -1.2958  0.6457
 6575TIP3    H241141   4.238   5.323   5.380  0.5066  2.0520  0.8312
 6576TIP3   OH241142   6.683   3.455  12.322 -0.3478  0.3522 -0.0331
 6576TIP3    H141143   6.763   3.421  12.282 -0.3028 -0.6409  0.8483
 6576TIP3    H241144   6.703   3.546  12.341  0.0496  0.5118 -1.1442
 6577TIP3   OH241145   0.478   1.419   0.435  0.2897 -0.5147 -0.2007
 6577TIP3    H141146   0.397   1.371   0.415  0.5486 -0.7900 -0.6062
 6577TIP3    H241147   0.457   1.510   0.419  0.7887 -0.8067 -2.8339
 6578TIP3   OH241148   6.017   5.525  12.014 -0.3328 -0.0166 -0.2966
 6578TIP3    H141149   6.064   5.511  11.931  0.5829  0.8736  0.0483
 6578TIP3    H241150   6.017   5.620  12.025  0.4666 -0.1760  1.2409
 6579TIP3   OH241151   2.900   0.035   3.544 -0.3531  0.1212  0.2792
 6579TIP3    H141152   2.990   0.053   3.516 -0.8572  1.6407 -0.4749
 6579TIP3    H241153   2.878  -0.048   3.502 -0.9977  2.1441 -3.9525
 6580TIP3   OH241154   5.299   3.350  11.405  0.0059  0.1723 -0.5539
 6580TIP3    H141155   5.352   3.277  11.371 -0.5469 -0.2031 -0.6179
 6580TIP3    H241156   5.297   3.413  11.333 -1.1685 -0.6233 -1.2407
 6581TIP3   OH241157   5.235   1.563   2.680 -0.0909 -0.2885  0.3018
 6581TIP3    H141158   5.323   1.547   2.646 -1.0163  2.9715 -4.7889
 6581TIP3    H241159   5.190   1.479   2.669  1.3199 -0.9133 -1.1727
 6582TIP3   OH241160   6.541   1.100   2.126  0.3904  0.0405 -0.3552
 6582TIP3    H141161   6.521   1.190   2.100 -0.6419 -0.6636 -2.1843
 6582TIP3    H241162   6.632   1.087   2.101  0.6760  0.6893  0.3104
 6583TIP3   OH241163   4.012   2.349  11.682 -0.0394  0.4974  0.3685
 6583TIP3    H141164   3.966   2.298  11.615  1.2009  0.8565 -0.7947
 6583TIP3    H241165   3.953   2.420  11.703 -0.3854  0.4737 -0.4842
 6584TIP3   OH241166   2.298   6.294  16.528  0.0902 -0.9104 -0.3006
 6584TIP3    H141167   2.273   6.203  16.548  1.5012 -1.2530  0.0167
 6584TIP3    H241168   2.340   6.289  16.442 -1.9717 -0.1340 -1.4268
 6585TIP3   OH241169   6.232   3.249   3.569 -0.1983  0.4360  0.5435
 6585TIP3    H141170   6.140   3.227   3.582 -0.2315 -0.2502 -0.6480
 6585TIP3    H241171   6.235   3.290   3.482  0.4307  1.7475  1.1464
 6586TIP3   OH241172   2.463   5.646  11.591  0.1734 -0.2935  0.3632
 6586TIP3    H141173   2.520   5.593  11.535 -0.9418 -0.3287 -0.7912
 6586TIP3    H241174   2.391   5.588  11.614 -1.9161  1.0236 -2.2199
 6587TIP3   OH241175   2.532   0.103  16.763  0.1730 -0.2993  0.1416
 6587TIP3    H141176   2.608   0.161  16.762  2.0710 -2.6094  0.2110
 6587TIP3    H241177   2.501   0.101  16.673 -1.2215  2.2941  0.4835
 6588TIP3   OH241178   6.105   6.265   2.066  0.2687 -0.7280 -0.0497
 6588TIP3    H141179   6.011   6.281   2.057 -0.1615 -2.3762  0.9461
 6588TIP3    H241180   6.139   6.267   1.976 -0.6551  0.1816 -0.3889
 6589TIP3   OH241181   1.233   3.286   2.720 -0.1492  0.3491 -0.4231
 6589TIP3    H141182   1.312   3.334   2.742 -1.4360  1.6931  1.6140
 6589TIP3    H241183   1.227   3.291   2.625  2.9045 -1.0429 -0.7991
 6590TIP3   OH241184   5.210   1.655  15.817 -0.6873  0.3281  0.0074
 6590TIP3    H141185   5.142   1.644  15.883 -1.1565 -0.2231 -0.5540
 6590TIP3    H241186   5.292   1.656  15.866 -0.9726 -0.8993  0.5237
 6591TIP3   OH241187   6.735   2.436  12.704  0.1113  0.1703  0.2583
 6591TIP3    H141188   6.655   2.386  12.687 -0.2753  0.6980  0.4916
 6591TIP3    H241189   6.785   2.383  12.765  0.1380 -0.3666 -0.2281
 6592TIP3   OH241190   5.158   6.406  13.213 -0.0482  0.1522 -0.1402
 6592TIP3    H141191   5.108   6.359  13.148  1.3389 -1.2947 -0.2118
 6592TIP3    H241192   5.245   6.416  13.175  0.1390  1.4013  0.5298
 6593TIP3   OH241193   2.195   5.703  14.450 -0.4871 -0.0346  0.0508
 6593TIP3    H141194   2.191   5.768  14.380  1.9944  1.5714  1.2698
 6593TIP3    H241195   2.147   5.743  14.522 -1.2059 -0.7521 -0.0157
 6594TIP3   OH241196   1.625   4.239  15.150 -0.1426 -0.3107 -0.0453
 6594TIP3    H141197   1.583   4.155  15.166 -2.4713  0.6776 -0.6136
 6594TIP3    H241198   1.705   4.217  15.101 -0.4289 -2.2056  0.2725
 6595TIP3   OH241199   5.114   1.910   6.301 -0.2459 -0.5485  0.2243
 6595TIP3    H141200   5.165   1.979   6.258  1.1309 -3.2408 -2.9314
 6595TIP3    H241201   5.170   1.832   6.296 -3.3355 -2.9458 -0.4637
 6596TIP3   OH241202   2.928   6.087  11.713  0.2774 -0.0123 -0.2053
 6596TIP3    H141203   2.983   6.134  11.775  0.2099  0.4461 -0.4913
 6596TIP3    H241204   2.954   6.120  11.627  1.4388 -1.7327 -0.5690
 6597TIP3   OH241205   6.531   5.477   5.443 -0.2455 -0.4145 -0.2063
 6597TIP3    H141206   6.611   5.449   5.399  0.3188  0.3113  0.3478
 6597TIP3    H241207   6.471   5.500   5.372  0.3307 -0.1379 -0.6038
 6598TIP3   OH241208   5.263   6.420  16.885  0.0756 -0.0397  0.1505
 6598TIP3    H141209   5.170   6.407  16.866 -0.3974  0.0004  2.1713
 6598TIP3    H241210   5.307   6.349  16.840 -1.1453 -1.1509  0.6499
 6599TIP3   OH241211   6.189   1.266   0.602  0.0629  0.2517  0.5712
 6599TIP3    H141212   6.173   1.236   0.512  1.5691  1.4024 -0.1324
 6599TIP3    H241213   6.102   1.279   0.639 -0.5860  0.1348 -0.8573
 6600TIP3   OH241214   2.100   5.513  14.820  0.0762 -0.2961 -0.0983
 6600TIP3    H141215   2.061   5.599  14.835 -0.6712 -0.5565 -0.5089
 6600TIP3    H241216   2.048   5.474  14.750  0.5677 -0.9850 -0.0958
 6601TIP3   OH241217   0.850   5.235   2.260 -0.1210  0.0117 -0.1420
 6601TIP3    H141218   0.789   5.184   2.312  0.5336 -1.1761 -0.4922
 6601TIP3    H241219   0.921   5.174   2.240 -0.1461  0.5465 -2.0621
 6602TIP3   OH241220   2.608   4.316  17.095 -0.3985  0.0214  0.4395
 6602TIP3    H141221   2.640   4.283  17.179 -2.7209  2.1643  2.3254
 6602TIP3    H241222   2.589   4.408  17.111 -1.4334  0.3627 -2.2914
 6603TIP3   OH241223   2.467   3.091   3.751 -0.1496  0.0668  0.1056
 6603TIP3    H141224   2.489   3.141   3.829  2.0412  1.7155 -1.4507
 6603TIP3    H241225   2.399   3.142   3.708  0.5622  0.5974 -0.4027
 6604TIP3   OH241226   5.260   2.065  12.246 -0.4233 -0.5635  0.3738
 6604TIP3    H141227   5.208   2.015  12.182  0.8115 -1.1176 -0.2309
 6604TIP3    H241228   5.240   2.156  12.227 -1.7559 -0.7672  0.6657
 6605TIP3   OH241229   0.891   5.974  13.343  0.1142 -0.1014 -0.1883
 6605TIP3    H141230   0.968   5.927  13.374  1.2618  0.0800 -2.5145
 6605TIP3    H241231   0.855   5.919  13.273  0.2010  1.3975 -1.4722
 6606TIP3   OH241232   3.602   1.507  17.078 -0.4983 -0.2237  0.0635
 6606TIP3    H141233   3.643   1.524  16.993  0.8217 -1.7581  0.3607
 6606TIP3    H241234   3.598   1.593  17.120  0.1339  0.3352 -0.9743
 6607TIP3   OH241235   6.538   6.286  10.314  0.2035 -0.2403  0.6489
 6607TIP3    H141236   6.577   6.340  10.383  1.5413 -0.6970  0.3001
 6607TIP3    H241237   6.477   6.345  10.269  0.8702  0.6823  0.9113
 6608TIP3   OH241238   5.771   0.244  12.501 -0.7808  0.3632 -0.6306
 6608TIP3    H141239   5.708   0.308  12.534  1.1774  1.5495  1.0653
 6608TIP3    H241240   5.768   0.173  12.565  0.5347  1.0770  0.2830
 6609TIP3   OH241241   5.433   2.655   3.328 -0.0341  0.0568 -0.0511
 6609TIP3    H141242   5.528   2.646   3.327 -0.0038  0.3412 -0.8935
 6609TIP3    H241243   5.407   2.630   3.416  0.5728 -2.4790 -0.5132
 6610TIP3   OH241244   6.223   2.793  11.752  0.2463 -0.2077  0.0873
 6610TIP3    H141245   6.278   2.833  11.684  2.6972  0.8506  2.4815
 6610TIP3    H241246   6.253   2.702  11.756  2.0750  0.4063  1.4935
 6611TIP3   OH241247   5.255   2.017  11.197 -0.0966 -0.1116 -0.3352
 6611TIP3    H141248   5.320   2.028  11.128  0.4983  0.5422  0.3135
 6611TIP3    H241249   5.193   1.953  11.162  1.0318 -0.9345 -0.8663
 6612TIP3   OH241250   5.350   3.557   4.112  0.2024 -0.5902 -0.3356
 6612TIP3    H141251   5.266   3.520   4.085  1.2074 -0.8787 -3.5295
 6612TIP3    H241252   5.328   3.639   4.155 -1.7395  0.5220 -3.1633
 6613TIP3   OH241253   3.161   4.218  13.482  0.0513 -0.1558 -0.3590
 6613TIP3    H141254   3.085   4.183  13.437  0.8260 -1.7860 -0.4554
 6613TIP3    H241255   3.127   4.249  13.566 -1.0635  1.1605 -1.2480
 6614TIP3   OH241256   5.101   0.495   3.934  0.5128 -0.0390  0.4371
 6614TIP3    H141257   5.077   0.462   4.021  0.9167  1.0798  0.9953
 6614TIP3    H241258   5.186   0.455   3.916  0.3014 -0.4933  0.4234
 6615TIP3   OH241259   5.911   2.456  17.229  0.4164 -0.1687  0.4886
 6615TIP3    H141260   6.002   2.429  17.217  1.0512  1.7402  0.5581
 6615TIP3    H241261   5.884   2.414  17.311  0.8408 -1.6799 -0.1264
 6616TIP3   OH241262   6.657   5.165  16.893  0.2831  0.5552  0.1942
 6616TIP3    H141263   6.676   5.076  16.866 -1.1618  0.3542 -0.2645
 6616TIP3    H241264   6.725   5.219  16.853  0.1071 -0.1344 -1.0633
 6617TIP3   OH241265   2.542   0.067   2.553  0.1292  0.2396  0.4461
 6617TIP3    H141266   2.605  -0.005   2.547 -0.8687 -0.6658  0.4543
 6617TIP3    H241267   2.499   0.068   2.467  0.0009  0.7019  0.5132
 6618TIP3   OH241268   4.895   5.567  12.897  0.5564 -0.3236  0.1392
 6618TIP3    H141269   4.862   5.582  12.809 -1.2679 -0.5557  0.7349
 6618TIP3    H241270   4.927   5.477  12.897  1.4331 -0.0192 -0.5219
 6619TIP3   OH241271   3.845   1.530   4.364 -0.7226  0.3028 -0.6407
 6619TIP3    H141272   3.923   1.585   4.353  0.8964 -2.1213 -2.3055
 6619TIP3    H241273   3.833   1.525   4.459  0.1752  1.9745 -0.3956
 6620TIP3   OH241274   2.795   5.838   3.787 -0.3788  0.0290 -0.1222
 6620TIP3    H141275   2.752   5.753   3.799  1.1835 -0.9949 -1.4212
 6620TIP3    H241276   2.735   5.900   3.828 -0.8315 -1.8282  2.3106
 6621TIP3   OH241277   4.247   4.975  13.789 -0.3627  0.2767 -0.0049
 6621TIP3    H141278   4.156   4.976  13.757 -0.5016 -0.7362  0.3326
 6621TIP3    H241279   4.262   5.065  13.819 -0.8429  0.7766 -1.1716
 6622TIP3   OH241280   1.086   0.157  16.176 -0.4845 -0.0322 -0.2262
 6622TIP3    H141281   1.077   0.135  16.083  0.8998 -1.0071 -0.1560
 6622TIP3    H241282   1.143   0.089  16.211  0.1975  1.1466  1.0193
 6623TIP3   OH241283   1.978   0.043  11.756  0.3226  0.0788  0.2266
 6623TIP3    H141284   2.067   0.008  11.757 -0.0266 -0.8669 -0.7948
 6623TIP3    H241285   1.926  -0.021  11.707 -0.3257  2.0310 -1.8324
 6624TIP3   OH241286   1.343   3.791   4.451 -0.7590 -0.3360 -0.1524
 6624TIP3    H141287   1.349   3.704   4.491 -2.7019 -0.4673 -0.0609
 6624TIP3    H241288   1.262   3.788   4.400 -0.9178  1.4539 -0.0560
 6625TIP3   OH241289   0.268   4.171  15.843  0.0065 -0.1580  0.5271
 6625TIP3    H141290   0.191   4.228  15.854 -0.1615 -0.3860  0.5564
 6625TIP3    H241291   0.330   4.223  15.792 -0.0557  0.1338  0.7444
 6626TIP3   OH241292   1.830   2.677   1.272 -0.2398 -0.3596  0.5268
 6626TIP3    H141293   1.773   2.749   1.299  1.4725  0.7844  1.2830
 6626TIP3    H241294   1.803   2.603   1.327 -0.5219  0.3584  1.3786
 6627TIP3   OH241295   1.301   3.194   0.161 -0.2161 -0.0284 -0.2441
 6627TIP3    H141296   1.242   3.207   0.087 -0.0499 -2.3660 -0.8629
 6627TIP3    H241297   1.389   3.196   0.122 -0.0440  0.2809  0.1549
 6628TIP3   OH241298   4.551   0.606   5.454  0.3309  0.5488  0.0498
 6628TIP3    H141299   4.554   0.698   5.479  0.5445  0.3431  0.8360
 6628TIP3    H241300   4.580   0.604   5.363 -0.1104  1.3025 -0.1098
 6629TIP3   OH241301   1.246   6.365   4.860  0.6301 -0.1656  0.1214
 6629TIP3    H141302   1.168   6.402   4.817  0.8603 -1.6694 -1.7250
 6629TIP3    H241303   1.215   6.337   4.946 -0.6546  0.0700 -0.2379
 6630TIP3   OH241304   2.692   4.258   1.779  0.6422  0.2101  0.4381
 6630TIP3    H141305   2.610   4.219   1.810  0.6772 -0.7953 -0.6832
 6630TIP3    H241306   2.686   4.253   1.684  1.2800  1.6819  0.3039
 6631TIP3   OH241307   5.343   3.994  13.640  0.1171 -0.0569 -0.6299
 6631TIP3    H141308   5.415   4.020  13.696 -0.2915 -1.5683  0.6814
 6631TIP3    H241309   5.381   3.930  13.579 -0.2160 -1.5684  0.6598
 6632TIP3   OH241310   6.055   3.530   5.227  1.0386 -0.6409 -0.7758
 6632TIP3    H141311   5.979   3.473   5.219 -0.4230  1.1349 -0.2757
 6632TIP3    H241312   6.079   3.551   5.137 -0.0559 -0.0193 -0.9478
 6633TIP3   OH241313   1.850   0.060   3.011 -0.0674  0.5774 -0.3281
 6633TIP3    H141314   1.768   0.098   3.043 -0.8484  0.0026 -1.5362
 6633TIP3    H241315   1.914   0.130   3.019 -1.0240  1.5299 -0.6974
 6634TIP3   OH241316   3.600   2.758  11.263  0.1286 -0.2950 -0.2211
 6634TIP3    H141317   3.564   2.723  11.182 -0.2393 -0.8390  0.1649
 6634TIP3    H241318   3.554   2.841  11.277  0.6530  0.1157 -0.8900
 6635TIP3   OH241319   6.271   3.845   0.795  0.2470 -0.1007  0.1561
 6635TIP3    H141320   6.244   3.791   0.720  1.3103 -0.2896 -0.1017
 6635TIP3    H241321   6.194   3.846   0.852  0.0244 -1.4885 -0.0703
 6636TIP3   OH241322   3.051   1.723  12.143  0.1487 -0.4100 -0.0104
 6636TIP3    H141323   3.093   1.637  12.144  2.2002  0.4892 -1.4827
 6636TIP3    H241324   3.021   1.734  12.052  3.1367  1.7601 -0.9016
 6637TIP3   OH241325   4.798   3.401   2.013  0.2925 -0.1092  0.5595
 6637TIP3    H141326   4.711   3.401   2.052  0.3686  1.5305  0.8027
 6637TIP3    H241327   4.853   3.445   2.078  0.8645  0.7156 -0.4567
 6638TIP3   OH241328   3.726   1.683  12.210  0.0256 -0.5124  0.1445
 6638TIP3    H141329   3.764   1.629  12.278 -0.7242  1.3487  2.1625
 6638TIP3    H241330   3.797   1.740  12.180 -0.0097 -0.2873  0.4873
 6639TIP3   OH241331   1.855   5.320   4.169 -0.8628 -0.3461  0.0771
 6639TIP3    H141332   1.927   5.362   4.215 -0.3299  1.1638 -1.9753
 6639TIP3    H241333   1.793   5.295   4.237 -0.3757  2.2242  1.5488
 6640TIP3   OH241334   0.472   5.195  15.299 -0.2988 -0.3053  0.4280
 6640TIP3    H141335   0.504   5.112  15.263 -0.6182 -0.9017  1.4632
 6640TIP3    H241336   0.520   5.262  15.250  0.7738 -1.1169  0.3075
 6641TIP3   OH241337   0.256   0.358   0.792 -0.0791  0.3569  0.0952
 6641TIP3    H141338   0.255   0.318   0.704  3.0349 -0.9932  0.5379
 6641TIP3    H241339   0.290   0.446   0.778 -1.8148  0.9995 -0.2687
 6642TIP3   OH241340   6.580   6.064   6.119 -0.6945  0.3348 -0.2525
 6642TIP3    H141341   6.573   5.975   6.154 -1.7428  0.3071 -0.4960
 6642TIP3    H241342   6.674   6.079   6.111 -0.4422 -1.8301 -2.8054
 6643TIP3   OH241343   1.198   2.035   1.497  0.5997  0.0602  0.5789
 6643TIP3    H141344   1.170   2.124   1.518 -1.4847 -0.1533 -1.0393
 6643TIP3    H241345   1.244   2.043   1.414  0.4464 -0.3590  0.4487
 6644TIP3   OH241346   2.118   3.494   3.169  0.1111 -0.3867  0.6624
 6644TIP3    H141347   2.143   3.571   3.118 -1.8676  1.0654  1.7526
 6644TIP3    H241348   2.167   3.422   3.129  1.5345  1.2998 -0.8152
 6645TIP3   OH241349   2.268   1.835   2.596  0.0355  0.1391 -0.0242
 6645TIP3    H141350   2.264   1.920   2.640  1.8109  0.8310 -1.1076
 6645TIP3    H241351   2.359   1.827   2.568 -0.6402 -1.0237 -2.0761
 6646TIP3   OH241352   1.656   3.848   6.452  0.3348  0.0553  0.3171
 6646TIP3    H141353   1.701   3.902   6.517 -0.8935 -0.8801  2.0552
 6646TIP3    H241354   1.724   3.789   6.419  1.0156  0.6089  0.7128
 6647TIP3   OH241355   6.737   2.551  13.320  0.1607  0.1043  0.1424
 6647TIP3    H141356   6.697   2.522  13.402  0.5592  1.1242  0.7076
 6647TIP3    H241357   6.829   2.525  13.329  0.2883  0.5636  0.1949
 6648TIP3   OH241358   2.683   1.283  12.693  0.8433  0.3429 -0.3661
 6648TIP3    H141359   2.759   1.243  12.734 -1.6356 -1.3339  3.0720
 6648TIP3    H241360   2.652   1.218  12.630  1.6712  0.6583 -1.1216
 6649TIP3   OH241361   5.929   2.670   0.829  0.0032 -0.2044 -0.3279
 6649TIP3    H141362   5.892   2.759   0.826  0.7385  0.0934 -1.3518
 6649TIP3    H241363   5.854   2.612   0.818 -0.3547  0.3404 -0.8263
 6650TIP3   OH241364   0.159   1.711  11.581 -0.6534  0.6096  0.0573
 6650TIP3    H141365   0.064   1.701  11.571 -0.8093  0.2224  1.6878
 6650TIP3    H241366   0.172   1.731  11.674  0.9688 -0.8549  0.1936
 6651TIP3   OH241367   3.703   2.016   3.168 -0.2513  0.2233 -0.6665
 6651TIP3    H141368   3.746   1.961   3.233 -0.9767  1.4105  0.8928
 6651TIP3    H241369   3.770   2.080   3.143  0.2366 -0.6323 -1.6329
 6652TIP3   OH241370   1.157   6.426   3.073  0.5188  0.3290  0.4196
 6652TIP3    H141371   1.187   6.447   2.985 -0.6745  1.0704  0.1636
 6652TIP3    H241372   1.065   6.404   3.063  0.8305 -1.4984  1.2369
 6653TIP3   OH241373   5.282   0.253   0.987 -0.7737 -0.1442 -0.1115
 6653TIP3    H141374   5.278   0.285   0.896  0.2743 -1.8485 -0.8003
 6653TIP3    H241375   5.299   0.332   1.039 -2.3213  1.0117 -1.2501
 6654TIP3   OH241376   0.754   5.545   4.559  0.1758  0.0225 -0.0594
 6654TIP3    H141377   0.664   5.556   4.529  0.9572  0.3168 -2.5321
 6654TIP3    H241378   0.788   5.634   4.564  0.5739 -0.1286 -0.0283
 6655TIP3   OH241379   5.682   3.176  16.000  0.4372 -0.1346  0.0128
 6655TIP3    H141380   5.704   3.267  16.018  1.0473 -0.1107 -0.8479
 6655TIP3    H241381   5.726   3.127  16.070  0.7419  0.1601  0.0300
 6656TIP3   OH241382   3.372   4.918   0.053  0.3092  0.6054  0.4424
 6656TIP3    H141383   3.395   4.938   0.144 -0.3533 -0.1419  0.7804
 6656TIP3    H241384   3.288   4.872   0.059  0.6268 -0.1199 -0.4878
 6657TIP3   OH241385   0.989   3.230   4.623 -0.1187 -0.1593  0.0348
 6657TIP3    H141386   0.959   3.259   4.710 -1.9867 -0.9051 -0.3254
 6657TIP3    H241387   1.079   3.263   4.617 -0.1821  0.4969  1.9731
 6658TIP3   OH241388   4.170   5.355   6.507  0.4356 -0.1179 -0.2670
 6658TIP3    H141389   4.145   5.417   6.576  0.1937  2.9307 -2.8401
 6658TIP3    H241390   4.096   5.296   6.499 -0.2153  0.4897  1.0066
 6659TIP3   OH241391   0.048   3.173   4.698  0.0468 -0.8134 -0.3248
 6659TIP3    H141392   0.015   3.098   4.748 -0.2889 -0.4450  0.0164
 6659TIP3    H241393  -0.030   3.226   4.680  0.1903 -0.8572 -1.0971
 6660TIP3   OH241394   1.857   3.718  13.748  0.1318  0.0707 -0.3167
 6660TIP3    H141395   1.891   3.802  13.717  1.6474 -0.6533 -0.7347
 6660TIP3    H241396   1.935   3.669  13.776 -0.8476 -0.6980  1.2133
 6661TIP3   OH241397   4.241   1.040   4.178 -0.1425  0.3417  0.0752
 6661TIP3    H141398   4.265   0.948   4.192  0.6225  0.5123 -0.0468
 6661TIP3    H241399   4.179   1.059   4.248 -0.1470 -0.2069  0.2312
 6662TIP3   OH241400   4.433   5.747  14.111  0.3215 -0.0274  0.3758
 6662TIP3    H141401   4.390   5.672  14.151 -0.8087  0.9061  0.9775
 6662TIP3    H241402   4.486   5.785  14.182  1.3705 -0.5868 -0.0880
 6663TIP3   OH241403   1.983   0.987  13.229  0.1272  0.4085  0.2889
 6663TIP3    H141404   1.969   1.003  13.136  0.0498  0.3778  0.2949
 6663TIP3    H241405   1.900   0.951  13.260  0.3505 -0.1562  0.2403
 6664TIP3   OH241406   1.432   2.153  14.222  0.7332 -0.6208 -0.3754
 6664TIP3    H141407   1.350   2.180  14.262  0.6157  1.1388 -1.6627
 6664TIP3    H241408   1.432   2.058  14.226 -1.0986 -0.6205  0.1381
 6665TIP3   OH241409   1.345   1.874  16.163 -0.3667  0.1467  0.1180
 6665TIP3    H141410   1.315   1.964  16.153 -0.0006  0.1190 -1.5439
 6665TIP3    H241411   1.314   1.829  16.085  1.3996 -0.5983 -0.1992
 6666TIP3   OH241412   5.976   1.906   5.335  0.0330  0.1481 -0.5378
 6666TIP3    H141413   5.883   1.904   5.360 -0.1318 -0.2179 -1.1510
 6666TIP3    H241414   6.015   1.971   5.393 -0.3433 -0.5943  0.5987
 6667TIP3   OH241415   0.419   0.067  11.664  0.0255 -0.4171 -0.0601
 6667TIP3    H141416   0.383   0.022  11.587  0.8280  0.2082 -0.8252
 6667TIP3    H241417   0.503   0.102  11.634 -0.2885  1.0483  0.6917
 6668TIP3   OH241418   5.164   6.090  15.587 -0.1388 -0.6853  0.4321
 6668TIP3    H141419   5.232   6.055  15.644  0.1188 -1.4424 -0.3244
 6668TIP3    H241420   5.088   6.100  15.645  0.2748 -0.9335  1.0273
 6669TIP3   OH241421   4.659   5.814   5.137  0.2099  0.3057 -1.0467
 6669TIP3    H141422   4.646   5.818   5.232 -0.2448 -0.8464 -1.0382
 6669TIP3    H241423   4.571   5.821   5.100  0.2401 -0.6182 -1.3116
 6670TIP3   OH241424   4.762   3.525  15.987 -0.1366 -0.6184 -0.3596
 6670TIP3    H141425   4.841   3.580  15.991 -1.3744  1.2711 -0.4036
 6670TIP3    H241426   4.728   3.539  15.899 -0.0880 -2.0951 -0.6300
 6671TIP3   OH241427   4.249   0.044   6.749  0.0660 -0.2187  0.3986
 6671TIP3    H141428   4.160   0.013   6.735 -0.0258  0.4878 -0.7795
 6671TIP3    H241429   4.304  -0.034   6.741 -0.4075 -0.5940  0.7688
 6672TIP3   OH241430   2.935   0.618  15.031 -0.0856 -0.0120 -0.4209
 6672TIP3    H141431   2.977   0.681  15.090 -0.0898 -0.3307 -0.0748
 6672TIP3    H241432   2.966   0.643  14.944 -0.1933  0.5510 -0.3007
 6673TIP3   OH241433   0.474   4.003   0.272 -0.3988 -0.6580  0.7086
 6673TIP3    H141434   0.477   3.909   0.257  0.4752 -0.2971 -1.8551
 6673TIP3    H241435   0.517   4.016   0.356  1.3969 -2.3961  0.1345
 6674TIP3   OH241436   2.475   3.559   5.590  0.1588 -0.5427 -0.3525
 6674TIP3    H141437   2.503   3.467   5.586  1.5658 -0.1692  0.3893
 6674TIP3    H241438   2.541   3.607   5.540 -1.3724 -0.0642 -2.0195
 6675TIP3   OH241439   1.275   4.693  14.251  0.4952 -0.3619 -0.3103
 6675TIP3    H141440   1.229   4.610  14.259  0.9310 -0.6914 -1.1145
 6675TIP3    H241441   1.309   4.711  14.339  0.9923 -1.3875 -0.2837
 6676TIP3   OH241442   4.690   5.084  17.099 -0.3136  0.2212 -0.0130
 6676TIP3    H141443   4.623   5.131  17.050  0.1519  2.5925  1.4994
 6676TIP3    H241444   4.678   5.111  17.190 -0.7996 -3.5819  1.2597
 6677TIP3   OH241445   0.599   2.905  12.397 -0.2730  0.6878  0.0756
 6677TIP3    H141446   0.533   2.917  12.329  1.7975 -0.7051 -2.3647
 6677TIP3    H241447   0.614   2.810  12.399 -0.1315  0.7054  2.4132
 6678TIP3   OH241448   4.337   6.374   5.107  0.1537 -0.1851 -0.3946
 6678TIP3    H141449   4.275   6.404   5.173  1.7478  0.1061  1.0358
 6678TIP3    H241450   4.381   6.299   5.147  2.1708  0.8753 -0.4855
 6679TIP3   OH241451   6.266   2.994  16.467  0.3484  0.0226 -0.1778
 6679TIP3    H141452   6.285   3.002  16.560 -0.0960 -0.8018 -0.0023
 6679TIP3    H241453   6.176   3.026  16.457  0.0433 -0.7744 -0.1437
 6680TIP3   OH241454   6.583   0.165   1.566  0.7872 -0.2194  0.0995
 6680TIP3    H141455   6.605   0.257   1.578  3.5864 -0.6212 -1.0726
 6680TIP3    H241456   6.519   0.164   1.495  0.1372  0.8451  0.6544
 6681TIP3   OH241457   4.655   6.333  16.069 -0.7094 -0.3476 -0.2767
 6681TIP3    H141458   4.618   6.362  15.986 -0.2507 -1.6019 -0.9528
 6681TIP3    H241459   4.742   6.301  16.046  0.0566  0.7516  0.9679
 6682TIP3   OH241460   4.718   6.417   0.480  0.1683  0.4883  0.1657
 6682TIP3    H141461   4.647   6.383   0.534 -0.1580  3.0604  1.4930
 6682TIP3    H241462   4.679   6.427   0.393 -0.6922  0.6260  0.5574
 6683TIP3   OH241463   5.796   1.048  14.928  0.5279  0.1320 -0.4427
 6683TIP3    H141464   5.726   1.070  14.866  1.4041  2.0995 -0.8349
 6683TIP3    H241465   5.779   0.957  14.953 -1.8053  0.3589 -0.9640
 6684TIP3   OH241466   0.721   0.889   5.194 -0.0779  0.2885 -0.2157
 6684TIP3    H141467   0.637   0.931   5.215  0.3912  1.1171  0.0491
 6684TIP3    H241468   0.699   0.824   5.128 -0.9992  0.2118  0.1482
 6685TIP3   OH241469   4.918   2.818   5.385 -0.5304 -0.6855  0.1387
 6685TIP3    H141470   4.835   2.862   5.368 -0.1015 -0.1252 -0.5295
 6685TIP3    H241471   4.911   2.789   5.476 -1.4963 -0.7389  0.0592
 6686TIP3   OH241472   5.547   2.595   5.746  0.2632 -0.0998  0.0654
 6686TIP3    H141473   5.489   2.659   5.788  0.6458  0.5136 -0.3125
 6686TIP3    H241474   5.489   2.525   5.717  0.0055 -0.5860  1.6795
 6687TIP3   OH241475   2.258   6.131   5.161  0.6724  0.0060 -0.1066
 6687TIP3    H141476   2.337   6.185   5.165  1.0747 -0.5688 -0.0805
 6687TIP3    H241477   2.203   6.163   5.232 -0.0217  1.7780 -1.3776
 6688TIP3   OH241478   0.991   4.195   4.155  0.0836 -0.1276 -0.0625
 6688TIP3    H141479   0.912   4.242   4.127 -0.4519 -1.8738 -1.7039
 6688TIP3    H241480   0.985   4.191   4.250 -1.9792 -0.4846 -0.1725
 6689TIP3   OH241481   3.943   1.648   1.784  0.6197  0.1705 -0.1657
 6689TIP3    H141482   3.904   1.584   1.724 -0.3509  0.7911 -0.2091
 6689TIP3    H241483   3.940   1.731   1.737  2.1938  0.2087 -0.2406
 6690TIP3   OH241484   3.856   4.213  15.183  0.3402  0.7842  0.3059
 6690TIP3    H141485   3.917   4.188  15.253  0.6367  0.2583 -0.1356
 6690TIP3    H241486   3.787   4.147  15.188  0.3666  0.7419  0.0944
 6691TIP3   OH241487   0.354   3.247  11.650 -0.4635 -0.5874 -0.1779
 6691TIP3    H141488   0.313   3.165  11.623 -2.1876 -0.1800  1.0227
 6691TIP3    H241489   0.403   3.225  11.730  0.9559 -0.8724 -1.0872
 6692TIP3   OH241490   5.347   4.385  14.478  0.1025 -0.0567 -0.6568
 6692TIP3    H141491   5.279   4.446  14.507 -0.4034 -0.4525 -1.0064
 6692TIP3    H241492   5.387   4.354  14.559  0.1536  0.4997 -0.4645
 6693TIP3   OH241493   3.001   0.827  17.105  0.4899 -0.2484  0.3367
 6693TIP3    H141494   2.911   0.852  17.124 -0.2661 -2.6879  0.3619
 6693TIP3    H241495   3.054   0.886  17.158 -1.1284  0.6554  1.0172
 6694TIP3   OH241496   4.736   0.372   0.869 -0.1801 -0.1335  0.3492
 6694TIP3    H141497   4.731   0.294   0.814 -1.9199  1.2887 -1.6828
 6694TIP3    H241498   4.828   0.396   0.868  0.0738 -1.0668 -0.6392
 6695TIP3   OH241499   1.523   0.845   4.738 -0.0459 -1.3107  0.3610
 6695TIP3    H141500   1.530   0.782   4.810  2.7946 -2.2092 -0.5347
 6695TIP3    H241501   1.583   0.916   4.763  1.9835 -2.2297 -1.5244
 6696TIP3   OH241502   3.111   4.687  15.346  0.7684 -0.2360  0.5149
 6696TIP3    H141503   3.196   4.724  15.371  0.7048  3.3894 -3.6221
 6696TIP3    H241504   3.046   4.742  15.390  0.5867 -0.5800  0.6809
 6697TIP3   OH241505   1.697   5.793   6.328  0.3952 -0.6012 -0.6819
 6697TIP3    H141506   1.685   5.876   6.280 -2.2852 -0.9534 -0.7353
 6697TIP3    H241507   1.680   5.816   6.419  0.4026 -0.9491 -0.5952
 6698TIP3   OH241508   2.852   2.405   0.010  0.5682 -0.0642  0.0307
 6698TIP3    H141509   2.931   2.375   0.056  0.6361  0.1242  0.0384
 6698TIP3    H241510   2.851   2.354  -0.071  0.1844 -0.7564  0.4578
 6699TIP3   OH241511   2.603   6.017  13.541  0.1573 -0.3147 -0.1518
 6699TIP3    H141512   2.682   6.069  13.526  0.6454 -0.9019  0.3261
 6699TIP3    H241513   2.550   6.031  13.463  0.8641 -0.1374 -0.6164
 6700TIP3   OH241514   5.293   5.787  14.849 -0.6266  0.1129  0.1771
 6700TIP3    H141515   5.306   5.787  14.943  0.4797  1.4142  0.0563
 6700TIP3    H241516   5.371   5.742  14.814 -0.0920  1.2902 -0.1894
 6701TIP3   OH241517   6.266   5.096  12.166  0.4086 -0.7947  0.0821
 6701TIP3    H141518   6.359   5.117  12.170  0.3818 -0.7808  0.7068
 6701TIP3    H241519   6.224   5.164  12.218  0.0431 -0.7760 -0.2339
 6702TIP3   OH241520   6.547   5.051  14.072 -0.5432 -0.3499  0.1024
 6702TIP3    H141521   6.544   4.957  14.089  1.1461 -0.1455  1.9167
 6702TIP3    H241522   6.606   5.060  13.998  0.8773 -0.6476  1.1545
 6703TIP3   OH241523   4.521   4.040  11.862  0.0780 -0.7040 -0.2312
 6703TIP3    H141524   4.609   4.068  11.885  0.1362  0.3898 -1.7103
 6703TIP3    H241525   4.511   3.955  11.905  1.9321 -0.9604 -0.2567
 6704TIP3   OH241526   4.480   0.383  17.008 -0.1045 -0.7487 -0.4319
 6704TIP3    H141527   4.434   0.439  16.946  0.5073  0.0484 -0.1797
 6704TIP3    H241528   4.517   0.313  16.954 -2.6928 -2.1956 -0.4799
 6705TIP3   OH241529   1.706   1.949   1.350 -0.0117  0.1422 -0.4720
 6705TIP3    H141530   1.801   1.955   1.361  0.0624 -1.4349 -0.0636
 6705TIP3    H241531   1.687   2.004   1.274  1.2152  0.5700 -0.4828
 6706TIP3   OH241532   2.225   0.880  13.289  0.0086 -0.3184 -0.0085
 6706TIP3    H141533   2.248   0.826  13.213 -1.6848  0.7575 -1.3725
 6706TIP3    H241534   2.147   0.927  13.261  0.2745  1.3310  1.8537
 6707TIP3   OH241535   3.993   1.164  16.636 -0.5425 -0.2090  0.7522
 6707TIP3    H141536   3.908   1.194  16.668 -1.6588  0.3910 -2.4799
 6707TIP3    H241537   3.982   1.069  16.627 -1.1392 -0.0552 -0.2860
 6708TIP3   OH241538   6.224   4.004   5.515  0.4639  0.0148  0.6821
 6708TIP3    H141539   6.264   3.956   5.588  0.3294 -0.1743  0.6341
 6708TIP3    H241540   6.145   4.042   5.552 -0.5820 -1.6058  0.1930
 6709TIP3   OH241541   6.527   5.699  14.010 -0.0383  0.0464  0.0423
 6709TIP3    H141542   6.529   5.682  13.916 -1.8154 -2.1474  0.3240
 6709TIP3    H241543   6.617   5.684  14.039  1.0574  2.8416 -1.5225
 6710TIP3   OH241544   5.948   6.566  14.630  0.1628 -0.8587  0.1245
 6710TIP3    H141545   6.013   6.568  14.560  2.3043 -0.9734  2.0024
 6710TIP3    H241546   5.914   6.476  14.628 -1.2039 -0.3668 -1.8813
 6711TIP3   OH241547   3.262   2.049  13.550  0.1713  0.3989 -0.2419
 6711TIP3    H141548   3.246   1.962  13.514  1.4858 -0.4852  1.1775
 6711TIP3    H241549   3.184   2.099  13.528 -0.9248 -1.3440 -0.4805
 6712TIP3   OH241550   6.113   6.500  15.901  0.2574 -0.6169 -0.0063
 6712TIP3    H141551   6.108   6.413  15.861 -0.4451 -0.0489 -1.2130
 6712TIP3    H241552   6.094   6.560  15.829  0.0316  0.5054  0.9692
 6713TIP3   OH241553   3.961   5.514  11.917 -0.1576  0.2073  0.1361
 6713TIP3    H141554   3.901   5.443  11.941 -0.1369 -0.0976 -0.7088
 6713TIP3    H241555   3.917   5.593  11.949 -0.3799 -0.1373  0.7047
 6714TIP3   OH241556   0.795   6.545   5.730 -0.6909  0.1589 -0.3947
 6714TIP3    H141557   0.791   6.457   5.694 -1.2709  0.4400 -1.0464
 6714TIP3    H241558   0.709   6.560   5.768 -0.5149  0.3563 -0.0690
 6715TIP3   OH241559   4.675   1.689  15.931  0.1011  0.2130 -0.4018
 6715TIP3    H141560   4.643   1.778  15.920 -2.3753 -0.6853 -1.1109
 6715TIP3    H241561   4.651   1.666  16.021 -2.2045 -0.7529 -1.1991
 6716TIP3   OH241562   4.899   4.129   4.372 -0.4822  0.8033  0.2589
 6716TIP3    H141563   4.803   4.125   4.380 -0.7473 -0.0393 -2.3160
 6716TIP3    H241564   4.919   4.223   4.372 -1.4464  1.0225 -0.1681
 6717TIP3   OH241565   2.753   4.712  12.150 -0.4412  0.2969 -0.2162
 6717TIP3    H141566   2.755   4.798  12.191 -2.4242  0.1476  0.3042
 6717TIP3    H241567   2.797   4.654  12.212 -2.1285  0.3472  1.1075
 6718TIP3   OH241568   2.992   1.110  11.450 -0.0853  0.3598 -0.4821
 6718TIP3    H141569   2.941   1.121  11.370 -0.8358  1.0677  0.0848
 6718TIP3    H241570   2.997   1.197  11.489 -0.4930 -0.1180  0.7001
 6719TIP3   OH241571   0.228   1.960  12.368  0.2839  0.3690 -0.0241
 6719TIP3    H141572   0.146   1.994  12.403  1.6076  1.5348  2.1588
 6719TIP3    H241573   0.257   2.027  12.306 -0.1998  0.1297 -0.5207
 6720TIP3   OH241574   1.536   1.607   1.871 -0.2762 -0.9723  0.1129
 6720TIP3    H141575   1.462   1.582   1.814 -2.2108  0.5537  1.7917
 6720TIP3    H241576   1.503   1.683   1.920  1.0132 -2.5433  3.7356
 6721TIP3   OH241577   5.532   6.113   4.090 -0.4373 -0.3939  0.3151
 6721TIP3    H141578   5.447   6.094   4.129 -0.8241  0.4022 -0.1178
 6721TIP3    H241579   5.532   6.208   4.078  1.4066 -0.0471  2.3784
 6722TIP3   OH241580   1.427   4.159  14.505 -0.1156 -0.3282  0.6657
 6722TIP3    H141581   1.500   4.208  14.542 -0.1741 -0.5989  1.1510
 6722TIP3    H241582   1.460   4.128  14.420  0.5810 -1.0114  1.1641
 6723TIP3   OH241583   5.459   2.895   0.785  0.4410  0.0166  0.9545
 6723TIP3    H141584   5.436   2.965   0.724  1.5608  0.7543  1.3421
 6723TIP3    H241585   5.402   2.909   0.861  0.2421  0.1423  0.7829
 6724TIP3   OH241586   5.149   6.705  16.766 -0.0848 -0.1482  0.1352
 6724TIP3    H141587   5.145   6.625  16.818 -2.2803 -0.4435 -0.3600
 6724TIP3    H241588   5.221   6.756  16.804  0.5888 -1.8333  1.2032
 6725TIP3   OH241589   4.863   0.940   5.999 -0.5165 -0.3928 -1.3803
 6725TIP3    H141590   4.866   1.036   6.010  1.0494 -0.5033 -0.5457
 6725TIP3    H241591   4.785   0.914   6.048 -1.8149  0.5638 -2.8318
 6726TIP3   OH241592   0.150   6.021   4.475  0.1544  0.1337  0.1952
 6726TIP3    H141593   0.098   5.947   4.442 -0.0160  0.9166 -1.3804
 6726TIP3    H241594   0.139   6.017   4.570  0.3996 -2.0341  0.1861
 6727TIP3   OH241595   1.181   5.979   5.115  0.0360 -0.7288 -0.2756
 6727TIP3    H141596   1.115   5.931   5.165  0.6536 -0.5229  0.7476
 6727TIP3    H241597   1.139   5.995   5.030 -1.2409 -0.5847  0.3608
 6728TIP3   OH241598   0.191   0.146  13.103  0.1744  0.2208 -0.2725
 6728TIP3    H141599   0.186   0.066  13.157  2.3208 -0.1748 -0.5752
 6728TIP3    H241600   0.104   0.154  13.065 -0.1363 -1.9432 -0.1603
 6729TIP3   OH241601   4.911   4.601  10.615  0.1053  0.5895 -0.4228
 6729TIP3    H141602   4.980   4.644  10.667  1.5163 -2.5882  0.5589
 6729TIP3    H241603   4.866   4.544  10.677 -1.2037  0.0821 -1.7752
 6730TIP3   OH241604   6.410   5.650   1.256  0.1417  0.1215 -0.0955
 6730TIP3    H141605   6.482   5.628   1.196  1.3689 -0.9626  1.6797
 6730TIP3    H241606   6.433   5.606   1.338 -1.4657  1.5549  1.1946
 6731TIP3   OH241607   2.297   1.801  11.178  0.1973  0.8884 -0.0493
 6731TIP3    H141608   2.359   1.856  11.227  1.6735  0.1931 -1.0713
 6731TIP3    H241609   2.342   1.717  11.169 -0.0863  0.9315 -2.4270
 6732TIP3   OH241610   0.971   1.234  16.771  0.4330  0.5211  0.2634
 6732TIP3    H141611   0.892   1.262  16.724  0.1822 -1.1129 -0.3591
 6732TIP3    H241612   0.967   1.281  16.854  0.8940  3.5269 -1.2866
 6733TIP3   OH241613   0.620   5.134   5.782  0.0464 -0.1514 -0.0081
 6733TIP3    H141614   0.640   5.227   5.789  1.4376 -0.5286  1.5631
 6733TIP3    H241615   0.588   5.110   5.869  0.3810 -1.2793 -0.1825
 6734TIP3   OH241616   6.012   2.133  12.434 -0.1271 -0.4061  0.1810
 6734TIP3    H141617   5.972   2.202  12.382 -1.2242 -1.2561 -0.1387
 6734TIP3    H241618   5.941   2.072  12.452  0.4585 -0.6762  1.7950
 6735TIP3   OH241619   0.217   5.282  10.605  0.4421  0.0563 -0.3164
 6735TIP3    H141620   0.176   5.330  10.532  0.3267  0.2982 -0.0952
 6735TIP3    H241621   0.205   5.339  10.681 -1.5938 -1.2529  0.4122
 6736TIP3   OH241622   6.250   5.292   1.079  0.2359  0.2836  0.6811
 6736TIP3    H141623   6.239   5.204   1.044 -0.6375  0.6004  0.1384
 6736TIP3    H241624   6.320   5.283   1.144  0.2735 -0.7710  0.5116
 6737TIP3   OH241625   0.953   5.531  16.099 -0.2556 -0.1953 -0.0706
 6737TIP3    H141626   0.930   5.512  16.190  1.2697  1.3438  0.6985
 6737TIP3    H241627   0.916   5.458  16.049 -0.7843 -1.2916  1.8120
 6738TIP3   OH241628   6.640   2.003   4.362  0.0742  0.2417  0.8988
 6738TIP3    H141629   6.557   2.021   4.317  1.6110  2.8121 -1.1908
 6738TIP3    H241630   6.618   2.008   4.455 -2.3981 -0.8959  0.4765
 6739TIP3   OH241631   4.092   6.617  12.012 -0.2614 -0.2654  0.3498
 6739TIP3    H141632   4.099   6.604  11.917 -1.1601  0.1731  0.2182
 6739TIP3    H241633   4.098   6.529  12.049 -2.2991 -0.7198 -0.2828
 6740TIP3   OH241634   4.092   0.344  12.645 -0.2345 -0.0879 -0.3360
 6740TIP3    H141635   4.130   0.334  12.732 -0.7320  1.0945  0.0329
 6740TIP3    H241636   4.079   0.254  12.614  0.0691 -0.5173  0.7503
 6741TIP3   OH241637   0.082   2.379  10.852 -0.1300  0.6621 -0.4986
 6741TIP3    H141638   0.038   2.368  10.936 -0.7876 -0.3823 -0.9528
 6741TIP3    H241639   0.014   2.411  10.792 -0.1870 -0.4746 -1.0821
 6742TIP3   OH241640   3.510   0.826  15.736  0.2807  0.2167  0.5871
 6742TIP3    H141641   3.557   0.744  15.721 -1.1563 -0.6318  0.5428
 6742TIP3    H241642   3.542   0.857  15.820  1.0981 -0.2047  0.4377
 6743TIP3   OH241643   6.455   3.780   2.818 -0.2423  0.4313 -0.1791
 6743TIP3    H141644   6.523   3.776   2.885  1.1974 -1.5689 -1.6308
 6743TIP3    H241645   6.392   3.712   2.843 -1.4774  1.8685  0.8264
 6744TIP3   OH241646   0.710   2.248   0.396  0.1660  0.0436  0.1964
 6744TIP3    H141647   0.711   2.172   0.455  0.3023 -1.2167 -1.3587
 6744TIP3    H241648   0.760   2.315   0.442  0.5973 -1.0231  1.3408
 6745TIP3   OH241649   0.192   0.520   4.929 -0.3495 -1.0056  0.1065
 6745TIP3    H141650   0.260   0.561   4.875 -0.5802 -0.7788 -0.0086
 6745TIP3    H241651   0.206   0.557   5.017 -0.4644 -0.7945  0.0351
 6746TIP3   OH241652   0.450   6.509   5.600  0.1575  0.3143 -0.4957
 6746TIP3    H141653   0.484   6.502   5.689 -0.2206 -1.3776 -0.4561
 6746TIP3    H241654   0.355   6.507   5.610  0.1154 -0.2232 -0.9445
 6747TIP3   OH241655   4.251   0.197   3.113  0.4683 -0.2618  0.9530
 6747TIP3    H141656   4.337   0.176   3.077  0.6085  0.6269  0.7501
 6747TIP3    H241657   4.240   0.291   3.096 -0.2626 -0.2309  1.5547
 6748TIP3   OH241658   0.478   4.215   5.074 -0.1200 -0.3556  0.3104
 6748TIP3    H141659   0.418   4.144   5.098 -0.5927  0.2609  0.9963
 6748TIP3    H241660   0.551   4.206   5.135  0.8465 -1.5115 -0.9454
 6749TIP3   OH241661   2.855   2.862   0.320  0.4978  0.6332  0.9306
 6749TIP3    H141662   2.788   2.916   0.279  1.1046 -0.7912 -2.1621
 6749TIP3    H241663   2.807   2.789   0.359  0.1409  0.2437 -0.2187
 6750TIP3   OH241664   1.123   0.145   3.931  0.0520 -0.2968 -0.1555
 6750TIP3    H141665   1.044   0.195   3.913 -0.1908 -0.7397 -0.3408
 6750TIP3    H241666   1.154   0.177   4.016  1.2272  1.8550 -1.3105
 6751TIP3   OH241667   2.153   1.618   0.409 -0.9064 -0.3385 -0.2817
 6751TIP3    H141668   2.214   1.549   0.383 -1.7236 -1.2011  0.0390
 6751TIP3    H241669   2.195   1.659   0.485 -0.0957 -0.0054 -0.8843
 6752TIP3   OH241670   4.844   5.108   3.682  0.1726  0.6627 -0.2873
 6752TIP3    H141671   4.792   5.177   3.640 -1.1309 -0.1101 -0.0022
 6752TIP3    H241672   4.871   5.145   3.765 -0.8583  0.7018  0.0356
 6753TIP3   OH241673   3.222   3.123  14.266  0.4499  0.2699 -0.1067
 6753TIP3    H141674   3.201   3.214  14.243  1.2967  0.3080 -0.7506
 6753TIP3    H241675   3.317   3.117  14.258  0.6099 -0.2256  1.6030
 6754TIP3   OH241676   5.729   1.753  13.508 -0.1950  0.2786  0.7363
 6754TIP3    H141677   5.653   1.767  13.451  0.2773  0.2737  0.0912
 6754TIP3    H241678   5.786   1.694  13.457  1.1197  1.7893  0.3854
 6755TIP3   OH241679   0.800   4.549  14.573 -0.3204 -0.1396 -0.2349
 6755TIP3    H141680   0.849   4.612  14.626  1.1407 -0.4986 -1.1127
 6755TIP3    H241681   0.865   4.509  14.516 -1.6377 -0.6316 -1.4794
 6756TIP3   OH241682   1.826   0.370   3.068  0.1200 -0.1913 -0.3283
 6756TIP3    H141683   1.847   0.458   3.035 -0.1872  0.0719  0.1623
 6756TIP3    H241684   1.909   0.323   3.068  0.2673  0.0641 -0.6992
 6757TIP3   OH241685   4.627   5.293   1.895 -0.0912  0.1674  0.1151
 6757TIP3    H141686   4.682   5.318   1.821 -0.8277 -1.1666 -0.9300
 6757TIP3    H241687   4.566   5.365   1.906 -1.6784 -0.7193 -2.3165
 6758TIP3   OH241688   0.813   2.785  16.521 -0.3200 -0.0361  0.5466
 6758TIP3    H141689   0.746   2.813  16.583  1.9284  2.0500  2.1753
 6758TIP3    H241690   0.854   2.709  16.562 -0.1089  0.1564  0.6914
 6759TIP3   OH241691   3.860   5.168  14.010  0.6545 -0.3002 -0.3835
 6759TIP3    H141692   3.868   5.263  14.012 -0.3347 -0.2003 -0.6665
 6759TIP3    H241693   3.946   5.136  14.035  1.0898  0.6705 -0.6106
 6760TIP3   OH241694   0.933   2.161   4.808 -0.0982 -0.2801 -0.0658
 6760TIP3    H141695   1.017   2.190   4.845 -0.3303 -2.3986  2.3558
 6760TIP3    H241696   0.922   2.072   4.840 -3.5497  0.1112  0.1771
 6761TIP3   OH241697   3.086   0.388  12.998 -0.3584  0.2241 -0.6872
 6761TIP3    H141698   3.157   0.452  13.004 -1.1719  1.2323 -1.6268
 6761TIP3    H241699   3.078   0.369  12.905 -0.4157 -0.9522 -0.4634
 6762TIP3   OH241700   4.973   0.370   1.159 -0.1747 -0.1470  0.1427
 6762TIP3    H141701   5.055   0.414   1.140 -0.1857 -0.2027 -0.0382
 6762TIP3    H241702   4.926   0.430   1.217  0.6884 -0.8370  1.6077
 6763TIP3   OH241703   2.493   0.278   5.485  0.2558 -0.2032  0.1880
 6763TIP3    H141704   2.544   0.309   5.560  1.5296 -0.4936 -0.5355
 6763TIP3    H241705   2.439   0.353   5.460 -2.0788 -0.8094  2.8892
 6764TIP3   OH241706   3.890   2.948   5.735  0.4709 -0.1690 -0.3505
 6764TIP3    H141707   3.859   2.858   5.749 -0.4716  0.4242  1.8663
 6764TIP3    H241708   3.848   2.999   5.805  3.6651  1.3676  0.6588
 6765TIP3   OH241709   5.953   3.981  17.076  0.5780 -0.2927 -0.2615
 6765TIP3    H141710   5.858   3.968  17.083  0.4096 -0.1272 -1.7630
 6765TIP3    H241711   5.976   3.940  16.992  1.6981  0.3425 -0.2756
 6766TIP3   OH241712   6.695   0.008  12.704 -0.0943  0.3363  0.1690
 6766TIP3    H141713   6.712  -0.076  12.745 -1.2169  0.3789  0.7584
 6766TIP3    H241714   6.723   0.073  12.768  2.4563  0.4776 -0.9801
 6767TIP3   OH241715   3.510   2.026  11.439 -0.1882 -0.0835  0.2765
 6767TIP3    H141716   3.498   2.121  11.442 -1.8312 -0.2634  0.1982
 6767TIP3    H241717   3.579   2.012  11.374 -0.1348  1.0273  0.0771
 6768TIP3   OH241718   6.032   3.488   0.009  0.3584 -0.1755  0.3975
 6768TIP3    H141719   6.010   3.399  -0.016 -0.7351  0.3982 -0.7773
 6768TIP3    H241720   6.122   3.482   0.042  0.4199 -1.6400  0.0376
 6769TIP3   OH241721   3.587   4.638  12.503  0.4292  0.3088  0.0755
 6769TIP3    H141722   3.594   4.570  12.570  0.4947  1.1034  0.8923
 6769TIP3    H241723   3.615   4.718  12.547  1.2580  0.7103 -1.1375
 6770TIP3   OH241724   6.306   6.413   3.814 -0.2906 -0.0002 -0.1278
 6770TIP3    H141725   6.335   6.361   3.739 -0.8785 -0.1385 -0.2595
 6770TIP3    H241726   6.338   6.364   3.890 -0.7782 -0.5204 -0.2517
 6771TIP3   OH241727   5.368   6.311  14.801  0.1077  0.3227 -0.3512
 6771TIP3    H141728   5.292   6.359  14.834 -0.9686 -0.0376 -2.1599
 6771TIP3    H241729   5.334   6.224  14.781  1.1990 -0.0911 -0.4772
 6772TIP3   OH241730   5.385   3.982   2.721  0.1495 -0.4291  0.0055
 6772TIP3    H141731   5.427   3.933   2.649  0.7055  1.0967 -0.7503
 6772TIP3    H241732   5.327   4.044   2.677 -1.6421 -1.3144  1.0014
 6773TIP3   OH241733   1.012   4.670  14.397 -0.4318  0.0227 -0.2417
 6773TIP3    H141734   0.967   4.728  14.335  0.5912  0.7196 -0.3549
 6773TIP3    H241735   1.041   4.728  14.467  0.0957 -0.4547 -0.0607
 6774TIP3   OH241736   0.878   5.895  14.297  0.1668 -0.4133 -0.5105
 6774TIP3    H141737   0.907   5.843  14.222 -0.1609 -0.7308 -0.4167
 6774TIP3    H241738   0.814   5.840  14.342  1.9817 -1.1932  1.2945
 6775TIP3   OH241739   6.098   0.168   2.469  0.0606  0.8462 -0.1251
 6775TIP3    H141740   6.115   0.244   2.524  1.0135  1.9402 -1.8454
 6775TIP3    H241741   6.008   0.142   2.491  0.5109  0.9719  2.1741
 6776TIP3   OH241742   0.173   2.790  15.475  0.3505  0.2140 -0.2682
 6776TIP3    H141743   0.187   2.857  15.542  0.1855  0.9023 -0.9177
 6776TIP3    H241744   0.083   2.761  15.488  0.1509  0.7183 -0.5283
 6777TIP3   OH241745   2.624   0.831   0.876  0.7881  0.1694 -0.0730
 6777TIP3    H141746   2.609   0.861   0.965 -2.3262 -1.1537 -0.0565
 6777TIP3    H241747   2.640   0.737   0.884  0.8630  0.1051 -0.8855
 6778TIP3   OH241748   0.685   3.327   4.761 -0.0954  0.0139 -1.0844
 6778TIP3    H141749   0.702   3.326   4.667 -0.6233  0.4844 -1.1922
 6778TIP3    H241750   0.657   3.417   4.779 -1.7852 -0.5234 -0.8160
 6779TIP3   OH241751   3.172   1.149   4.300 -0.0627 -0.0022  0.5985
 6779TIP3    H141752   3.176   1.244   4.308 -0.9126  0.0378  0.6648
 6779TIP3    H241753   3.219   1.116   4.376 -0.6280  0.3734  1.1188
 6780TIP3   OH241754   0.740   2.043   2.123  0.0549 -0.0699 -0.1060
 6780TIP3    H141755   0.788   2.088   2.053  2.1221 -2.6909 -0.5501
 6780TIP3    H241756   0.803   2.036   2.194 -1.2598  0.4349  1.1550
 6781TIP3   OH241757   3.961   5.609   1.653 -0.2454  0.0691 -0.0579
 6781TIP3    H141758   3.909   5.632   1.730  1.4780  2.6838  0.4586
 6781TIP3    H241759   3.989   5.693   1.617  1.2851 -1.1636 -1.9328
 6782TIP3   OH241760   6.412   6.229  15.258  0.2934 -0.0778  0.1503
 6782TIP3    H141761   6.416   6.293  15.187 -1.0099 -0.0043  0.1175
 6782TIP3    H241762   6.405   6.281  15.338 -2.8294 -0.0795 -0.0019
 6783TIP3   OH241763   2.209   0.614  12.294 -0.2252 -0.1122  0.2086
 6783TIP3    H141764   2.259   0.597  12.215 -2.4550  0.2494 -1.3913
 6783TIP3    H241765   2.163   0.532  12.311 -0.9313  0.2668  0.1896
 6784TIP3   OH241766   3.935   6.367   4.838  0.0497 -0.5873  0.1481
 6784TIP3    H141767   3.960   6.434   4.774  0.6314 -1.5593 -0.6936
 6784TIP3    H241768   3.929   6.413   4.921 -1.2354  0.8330 -0.6760
 6785TIP3   OH241769   1.103   4.948  13.636  0.0598  0.7478 -0.6822
 6785TIP3    H141770   1.043   4.956  13.561  0.6348 -0.8711 -1.3717
 6785TIP3    H241771   1.182   4.911  13.598  0.2732 -0.3634  0.7796
 6786TIP3   OH241772   5.498   0.983  16.723 -0.6384 -0.6217  0.1692
 6786TIP3    H141773   5.492   1.035  16.803  0.7337 -0.0625 -0.0614
 6786TIP3    H241774   5.526   1.046  16.656 -2.0199 -1.0177 -0.8277
 6787TIP3   OH241775   4.669   1.865   2.955  0.6588  0.4040 -0.1058
 6787TIP3    H141776   4.734   1.924   2.995  0.5029 -0.2602  1.1469
 6787TIP3    H241777   4.701   1.853   2.865  1.4985  1.2121  0.0678
 6788TIP3   OH241778   2.147   2.778   5.184 -0.2045 -0.3380  0.3592
 6788TIP3    H141779   2.082   2.815   5.243 -0.9699 -1.6723  0.3740
 6788TIP3    H241780   2.133   2.825   5.101 -0.1250  0.4767  0.7979
 6789TIP3   OH241781   3.549   0.624  13.365 -0.3627  0.0911  0.0127
 6789TIP3    H141782   3.519   0.642  13.276 -2.4369 -0.5758  0.5214
 6789TIP3    H241783   3.608   0.697  13.385  0.6653 -0.0845 -2.1078
 6790TIP3   OH241784   5.282   1.386  14.938  0.0203 -0.1007 -0.0597
 6790TIP3    H141785   5.365   1.367  14.895  0.1924  2.4450 -1.0334
 6790TIP3    H241786   5.223   1.411  14.866 -0.8970  0.3512  0.8208
 6791TIP3   OH241787   3.854   3.804  14.500 -0.5121 -0.0859  0.0284
 6791TIP3    H141788   3.836   3.895  14.521  0.0722  0.3978 -1.4781
 6791TIP3    H241789   3.865   3.802  14.405 -0.4962 -1.7235  0.0269
 6792TIP3   OH241790   1.378   0.764   2.906 -0.3701  0.1972  0.7495
 6792TIP3    H141791   1.339   0.844   2.941  1.7267  1.6428 -0.0206
 6792TIP3    H241792   1.461   0.756   2.952  0.7021  0.0437 -1.1225
 6793TIP3   OH241793   1.607   3.886   1.358  0.5645 -0.7793  0.4096
 6793TIP3    H141794   1.668   3.957   1.338 -0.4685  0.7341  2.3303
 6793TIP3    H241795   1.654   3.829   1.418  0.9910 -1.1178 -0.2305
 6794TIP3   OH241796   2.186   4.121   6.073 -0.0344 -0.5629 -0.1911
 6794TIP3    H141797   2.198   4.032   6.041 -0.7415 -0.8287  0.2625
 6794TIP3    H241798   2.140   4.111   6.156  2.5417  0.0623  1.4349
 6795TIP3   OH241799   2.991   6.554   4.675 -0.3854  0.4839  0.0408
 6795TIP3    H141800   2.918   6.593   4.627 -1.2297 -0.2836  0.6575
 6795TIP3    H241801   3.048   6.518   4.607  0.0744  2.1555 -0.5011
 6796TIP3   OH241802   0.050   3.924   4.773  0.3326 -0.3513 -0.1750
 6796TIP3    H141803   0.084   3.997   4.721 -0.4291  0.0628 -0.1033
 6796TIP3    H241804  -0.043   3.943   4.783  0.0517 -1.4981 -0.4238
 6797TIP3   OH241805   0.012   5.065  12.688  0.7053 -0.1158 -0.0929
 6797TIP3    H141806  -0.030   5.001  12.631 -0.9491 -0.4019  1.3836
 6797TIP3    H241807  -0.052   5.136  12.698  0.5993 -0.4372  1.9996
 6798TIP3   OH241808   4.007   5.502   5.030 -0.8887 -0.0769  0.9035
 6798TIP3    H141809   4.024   5.585   5.074  0.5434 -1.2323  2.6726
 6798TIP3    H241810   4.015   5.522   4.936  0.5886  1.5335  1.3276
 6799TIP3   OH241811   0.231   0.774   1.076  0.1051  0.0078  0.0203
 6799TIP3    H141812   0.144   0.750   1.109 -0.1274 -0.0288 -0.6151
 6799TIP3    H241813   0.246   0.862   1.109 -0.4567  0.2698 -0.4161
 6800TIP3   OH241814   0.765   3.398  16.871  0.2204  0.0030  0.2357
 6800TIP3    H141815   0.826   3.471  16.863  0.8636 -0.5819 -0.2873
 6800TIP3    H241816   0.713   3.419  16.948  3.1753 -0.9696  2.7155
 6801TIP3   OH241817   1.907   1.973   5.161  0.0282  0.4055 -0.1974
 6801TIP3    H141818   1.895   1.882   5.134  0.4663 -0.2203  1.5347
 6801TIP3    H241819   1.835   1.991   5.221  1.1152  0.4570  1.1496
 6802TIP3   OH241820   1.954   4.208   3.474  0.4156  0.0798  0.1350
 6802TIP3    H141821   1.932   4.292   3.513  1.1899  1.1155 -1.5228
 6802TIP3    H241822   1.982   4.153   3.547 -1.2366  0.8483  1.4028
 6803TIP3   OH241823   3.886   2.061  13.477  0.4445 -0.2744 -0.7533
 6803TIP3    H141824   3.952   2.130  13.470 -0.0635  0.0947 -2.3465
 6803TIP3    H241825   3.832   2.071  13.398 -0.0331 -2.0858 -0.7070
 6804TIP3   OH241826   5.753   3.904  11.502  0.2243 -0.2789 -0.2512
 6804TIP3    H141827   5.844   3.905  11.472  0.0205  0.3604 -0.8692
 6804TIP3    H241828   5.702   3.925  11.423 -0.3852  0.5123  0.3403
 6805TIP3   OH241829   4.853   3.332  14.103  0.7641  0.4412 -0.0605
 6805TIP3    H141830   4.824   3.273  14.172  0.7492 -0.4274 -0.8028
 6805TIP3    H241831   4.874   3.414  14.149 -0.6418  0.3538  0.7835
 6806TIP3   OH241832   2.272   5.940   5.634 -1.0188 -0.2620 -0.7151
 6806TIP3    H141833   2.278   5.891   5.552 -0.3985 -0.3192 -0.6366
 6806TIP3    H241834   2.245   5.875   5.699 -2.1361 -0.0944 -0.9782
 6807TIP3   OH241835   1.329   0.160   0.530  0.2521 -0.1581 -0.0220
 6807TIP3    H141836   1.301   0.203   0.449 -1.9792 -1.5313 -0.0587
 6807TIP3    H241837   1.407   0.109   0.505 -1.1385 -1.5806 -1.6892
 6808TIP3   OH241838   3.474   1.116  11.335  0.7218  0.2094 -0.2981
 6808TIP3    H141839   3.404   1.176  11.311  0.8297  0.1800 -0.6955
 6808TIP3    H241840   3.441   1.069  11.412  1.2876  1.9281  1.0532
 6809TIP3   OH241841   2.424   2.569  16.719 -0.4367 -0.1406 -0.5413
 6809TIP3    H141842   2.364   2.528  16.657 -1.0592  1.1626 -0.8133
 6809TIP3    H241843   2.444   2.655  16.682  1.0301 -0.2455 -0.0831
 6810TIP3   OH241844   2.813   2.740   1.848 -0.2427  0.2470  0.3941
 6810TIP3    H141845   2.767   2.676   1.792 -0.2429 -0.1280  0.8152
 6810TIP3    H241846   2.905   2.719   1.837 -0.2969 -1.0608  1.9358
 6811TIP3   OH241847   3.829   2.696   3.928  0.3409 -0.0612 -0.2602
 6811TIP3    H141848   3.917   2.713   3.962  0.3903  0.5410 -0.6624
 6811TIP3    H241849   3.781   2.776   3.947  0.2430  0.1060 -1.1801
 6812TIP3   OH241850   6.371   4.415   3.803 -0.4233 -0.0316 -0.3842
 6812TIP3    H141851   6.360   4.373   3.888 -0.5709  0.3352 -0.2170
 6812TIP3    H241852   6.339   4.351   3.740 -1.3110  0.0988 -0.0795
 6813TIP3   OH241853   3.528   2.242  14.768  0.2525 -0.1049  0.4828
 6813TIP3    H141854   3.476   2.188  14.826 -0.7343 -0.7135 -0.9103
 6813TIP3    H241855   3.497   2.331  14.782 -0.0978 -0.2729  0.7563
 6814TIP3   OH241856   5.063   2.327   2.928 -0.0024  0.5544 -0.1595
 6814TIP3    H141857   5.006   2.324   3.005 -1.8035 -1.5808 -1.4330
 6814TIP3    H241858   5.022   2.392   2.871 -1.0230 -0.6975 -0.9089
 6815TIP3   OH241859   0.981   5.399   4.459 -0.2879 -0.4079 -0.1860
 6815TIP3    H141860   0.892   5.432   4.462 -0.3952 -0.5996 -0.9557
 6815TIP3    H241861   1.033   5.473   4.429 -0.2771 -0.4638 -0.3051
 6816TIP3   OH241862   2.811   2.956   1.675  0.4873  0.4775  0.3874
 6816TIP3    H141863   2.821   2.882   1.734 -1.5374 -0.0992  0.1085
 6816TIP3    H241864   2.860   2.931   1.596  0.2099 -0.3680  0.4754
 6817TIP3   OH241865   1.424   0.061  14.326  0.2325  0.2441 -0.0552
 6817TIP3    H141866   1.501   0.108  14.357 -0.2526  1.1506 -0.2039
 6817TIP3    H241867   1.451   0.025  14.242  0.3317  1.0381 -0.3747
 6818TIP3   OH241868   1.079   3.506   5.398 -0.1290  0.3911  0.1747
 6818TIP3    H141869   1.164   3.462   5.399 -1.0115 -1.4135  0.3195
 6818TIP3    H241870   1.034   3.472   5.476 -0.9766  1.3338  0.1156
 6819TIP3   OH241871   2.907   5.808  15.404  0.9588  0.3161 -0.3991
 6819TIP3    H141872   2.942   5.731  15.358  3.2502  1.7511 -1.2075
 6819TIP3    H241873   2.931   5.882  15.348  0.7085  1.8123  1.4045
 6820TIP3   OH241874   4.217   3.396  10.923 -0.2073  0.5703 -0.0019
 6820TIP3    H141875   4.304   3.397  10.883  0.2238 -1.5692  0.7457
 6820TIP3    H241876   4.191   3.304  10.921 -2.8389  1.2567 -0.9224
 6821TIP3   OH241877   0.711   5.918   3.589  0.2096 -0.6005  0.5926
 6821TIP3    H141878   0.714   5.868   3.507 -0.0677  2.3309 -1.3388
 6821TIP3    H241879   0.802   5.942   3.605  0.2691 -1.2089  1.2092
 6822TIP3   OH241880   6.460   0.511  16.870 -0.6898  0.0964  0.0938
 6822TIP3    H141881   6.390   0.461  16.827 -0.6513  0.1325 -0.0100
 6822TIP3    H241882   6.525   0.445  16.893 -0.4039  0.1678 -0.5065
 6823TIP3   OH241883   2.939   2.402   1.500  0.1171 -0.3436 -0.2022
 6823TIP3    H141884   2.924   2.471   1.436  0.8722 -0.8938 -1.0002
 6823TIP3    H241885   2.894   2.325   1.465  2.0642 -1.1565 -1.0603
 6824TIP3   OH241886   0.350   5.461   0.605  0.1455 -0.5732 -0.7866
 6824TIP3    H141887   0.331   5.519   0.532  1.9855  0.2157 -0.6857
 6824TIP3    H241888   0.274   5.403   0.609 -2.9993  3.2073  0.6237
 6825TIP3   OH241889   3.619   2.490   4.825  0.2217 -0.0537 -0.3874
 6825TIP3    H141890   3.559   2.497   4.900 -0.9690  2.0114 -1.4380
 6825TIP3    H241891   3.702   2.462   4.864 -1.1626 -2.2705  1.2213
 6826TIP3   OH241892   2.547   2.762   4.168  0.2245 -0.0733 -0.2104
 6826TIP3    H141893   2.543   2.855   4.192  0.5154 -0.4775  1.5209
 6826TIP3    H241894   2.637   2.736   4.189 -0.7275 -1.5241  2.6074
 6827TIP3   OH241895   6.005   4.698   1.758  0.2910 -0.5845  0.3188
 6827TIP3    H141896   6.001   4.695   1.662  0.3855  0.8730  0.2544
 6827TIP3    H241897   5.978   4.787   1.781  0.2081 -0.9257  1.6615
 6828TIP3   OH241898   2.643   2.718  10.955 -0.6654  0.0578 -0.2222
 6828TIP3    H141899   2.626   2.660  10.881  1.0483  0.0347 -0.6382
 6828TIP3    H241900   2.688   2.793  10.916  0.2470  0.0534  0.7955
 6829TIP3   OH241901   0.539   3.985  15.649  0.5906  0.1270 -0.3557
 6829TIP3    H141902   0.475   3.948  15.590  0.2419 -0.0963  0.1549
 6829TIP3    H241903   0.495   4.061  15.689  1.3415  1.2031 -1.4974
 6830TIP3   OH241904   1.443   4.626  11.458  0.1095  0.1128 -0.2032
 6830TIP3    H141905   1.471   4.612  11.367 -0.0814 -1.8580  0.0023
 6830TIP3    H241906   1.524   4.617  11.509 -0.1281 -0.9738 -0.0052
 6831TIP3   OH241907   6.201   1.335  14.098  0.4314  0.0259  0.1007
 6831TIP3    H141908   6.260   1.397  14.141  0.6027  0.5495 -0.8370
 6831TIP3    H241909   6.139   1.391  14.051 -0.6561 -0.5238  0.8506
 6832TIP3   OH241910   1.910   0.282  13.547  0.3234  0.1360 -0.1758
 6832TIP3    H141911   1.904   0.271  13.452 -2.3334  1.1038 -0.2147
 6832TIP3    H241912   1.833   0.236  13.581  0.6878  0.6600  1.4103
 6833TIP3   OH241913   3.106   5.740  16.943 -0.4465  0.3793  0.0201
 6833TIP3    H141914   3.182   5.709  16.992 -0.2042 -1.0547 -1.1751
 6833TIP3    H241915   3.142   5.784  16.866 -0.7458 -1.5232 -1.2828
 6834TIP3   OH241916   3.848   5.998  13.177 -0.2435  0.2637  0.4129
 6834TIP3    H141917   3.804   5.953  13.249  0.8947  0.2099  1.1016
 6834TIP3    H241918   3.864   6.086  13.210 -1.1047  0.7317 -0.3694
 6835TIP3   OH241919   0.624   2.072   4.521 -0.4682 -0.4486  1.0531
 6835TIP3    H141920   0.658   2.161   4.517  0.4025 -0.7882  0.4628
 6835TIP3    H241921   0.607   2.048   4.430  0.1250 -1.1761  1.1196
 6836TIP3   OH241922   6.185   6.072   4.199  0.4714 -0.1611 -0.4399
 6836TIP3    H141923   6.103   6.022   4.198  0.5978 -0.4606  1.0620
 6836TIP3    H241924   6.164   6.153   4.154 -0.6432 -0.2602 -0.1387
 6837TIP3   OH241925   2.801   5.863   0.562  0.2191 -0.8415 -0.2858
 6837TIP3    H141926   2.780   5.797   0.496 -0.6106 -0.6651 -0.2185
 6837TIP3    H241927   2.861   5.923   0.519 -0.4606 -0.6249 -0.9540
 6838TIP3   OH241928   2.821   4.321  16.276  0.9287 -0.2221  0.3221
 6838TIP3    H141929   2.799   4.346  16.186 -0.0397  0.4648  0.7311
 6838TIP3    H241930   2.875   4.243  16.267  2.3893  0.8617 -0.9319
 6839TIP3   OH241931   3.408   0.247  15.509 -0.8709 -1.0646  0.1069
 6839TIP3    H141932   3.415   0.299  15.429  1.4483 -0.0180  0.9006
 6839TIP3    H241933   3.330   0.193  15.496 -1.1241 -0.2157 -2.4185
 6840TIP3   OH241934   2.307   1.788  15.786  0.2676 -0.0292 -0.2079
 6840TIP3    H141935   2.291   1.881  15.802 -1.2519 -0.1848 -0.6942
 6840TIP3    H241936   2.295   1.747  15.872 -0.8012  0.0305 -0.3072
 6841TIP3   OH241937   4.501   2.043   2.113 -0.7083  0.0930  0.2569
 6841TIP3    H141938   4.533   1.961   2.151 -1.5716 -0.6477 -0.5746
 6841TIP3    H241939   4.511   2.031   2.019 -1.4296  0.6848  0.0991
 6842TIP3   OH241940   1.435   1.137   3.007 -0.0690  0.0417 -0.3773
 6842TIP3    H141941   1.411   1.224   2.976  1.3964  0.0580 -1.6109
 6842TIP3    H241942   1.353   1.088   3.009 -0.6136  0.8514 -1.7518
 6843TIP3   OH241943   2.288   3.028  14.533 -0.2450  0.0311  0.1345
 6843TIP3    H141944   2.337   3.110  14.523  0.0866  0.0686  1.9014
 6843TIP3    H241945   2.202   3.056  14.564 -0.6634 -0.2065 -0.7623
 6844TIP3   OH241946   4.699   2.088   0.193 -0.7218  0.0287  0.2908
 6844TIP3    H141947   4.748   2.106   0.273 -2.5733 -0.6799  1.6548
 6844TIP3    H241948   4.637   2.019   0.217 -0.7329 -0.8771 -2.0169
 6845TIP3   OH241949   5.163   4.650  13.661 -0.2029  1.1054 -0.0692
 6845TIP3    H141950   5.243   4.681  13.618 -0.0422  0.2517 -0.4050
 6845TIP3    H241951   5.195   4.599  13.736 -0.4211  0.5830 -0.3282
 6846TIP3   OH241952   3.390   0.607  17.068  0.5823 -0.2779  0.4184
 6846TIP3    H141953   3.444   0.643  16.997  0.7621  0.8142  1.0790
 6846TIP3    H241954   3.354   0.526  17.033  1.5000 -0.2863 -0.5524
 6847TIP3   OH241955   5.397   3.210  16.714 -0.2450 -0.3631  0.2132
 6847TIP3    H141956   5.479   3.234  16.671 -0.5442  0.4137  0.0581
 6847TIP3    H241957   5.329   3.243  16.656 -0.6944 -1.9102 -0.1766
 6848TIP3   OH241958   0.467   2.586   3.263 -0.0114 -0.6140  0.0157
 6848TIP3    H141959   0.540   2.640   3.294 -1.0913 -0.3449  2.2519
 6848TIP3    H241960   0.505   2.498   3.256  0.8013 -0.2757 -0.0150
 6849TIP3   OH241961   3.501   6.386   4.754  0.2533 -0.1029 -0.8671
 6849TIP3    H141962   3.546   6.412   4.834 -1.8334  0.8519  0.0938
 6849TIP3    H241963   3.525   6.294   4.741  0.6092 -0.2934  0.8992
 6850TIP3   OH241964   0.527   6.147   4.810 -0.1575  0.1057 -0.3014
 6850TIP3    H141965   0.486   6.231   4.832 -0.8766 -0.5099  0.7995
 6850TIP3    H241966   0.606   6.172   4.763 -0.9713  1.3698 -1.0848
 6851TIP3   OH241967   0.477   3.938   6.797 -0.5969 -0.0411 -0.1853
 6851TIP3    H141968   0.418   3.865   6.777 -0.8718  0.6991 -2.3357
 6851TIP3    H241969   0.484   3.986   6.715 -0.5824  2.5008  1.1998
 6852TIP3   OH241970   6.744   5.619   3.339 -0.1384 -0.2680  0.1450
 6852TIP3    H141971   6.811   5.584   3.398  1.3913  1.7205 -0.2763
 6852TIP3    H241972   6.776   5.707   3.317 -1.8137 -0.0833 -1.8275
 6853TIP3   OH241973   1.894   6.159   2.690 -0.8213  0.0031  0.8152
 6853TIP3    H141974   1.896   6.252   2.665 -1.6342  0.1122  1.1045
 6853TIP3    H241975   1.801   6.136   2.685 -0.4481 -1.2876 -0.9997
 6854TIP3   OH241976   5.263   0.878  15.850  0.0994  0.5974 -0.1931
 6854TIP3    H141977   5.345   0.920  15.876  1.7429 -2.7196  0.5287
 6854TIP3    H241978   5.290   0.799  15.803 -2.5633 -1.5328  1.5465
 6855TIP3   OH241979   1.289   2.028   1.148  0.7300 -0.1064 -0.3158
 6855TIP3    H141980   1.380   2.056   1.147  0.5309  0.6056  0.8789
 6855TIP3    H241981   1.239   2.107   1.129  0.3029 -0.2584  0.1755
 6856TIP3   OH241982   1.731   1.216  13.259  0.3223  0.1882 -0.5793
 6856TIP3    H141983   1.819   1.234  13.227  0.4216 -0.5822 -0.7748
 6856TIP3    H241984   1.727   1.258  13.345  0.8781  0.2237 -0.5681
 6857TIP3   OH241985   5.002   1.707   5.111 -0.5864  0.1381 -0.0127
 6857TIP3    H141986   4.950   1.717   5.192  0.1332  0.3523  0.4335
 6857TIP3    H241987   4.949   1.748   5.044 -1.0626  0.2335  0.4125
 6858TIP3   OH241988   4.207   0.821  11.582 -0.3320  0.3823  0.3819
 6858TIP3    H141989   4.156   0.834  11.662 -0.9506 -1.3512  0.2979
 6858TIP3    H241990   4.297   0.809  11.612 -0.6634 -0.9266  0.8956
 6859TIP3   OH241991   6.661   4.176  12.345  0.1395  0.3207  0.4211
 6859TIP3    H141992   6.608   4.142  12.417  1.1782 -1.6431  0.3334
 6859TIP3    H241993   6.740   4.208  12.386 -0.3918  1.7503  0.3870
 6860TIP3   OH241994   5.721   1.508  16.623  0.1437 -0.1995 -0.1020
 6860TIP3    H141995   5.804   1.507  16.576  0.4380  0.7102  0.3709
 6860TIP3    H241996   5.690   1.599  16.616  0.7248  0.2600  2.3051
 6861TIP3   OH241997   4.533   3.366   0.618 -0.1030  0.1963 -0.6424
 6861TIP3    H141998   4.470   3.303   0.655  0.1516  1.0295  1.3262
 6861TIP3    H241999   4.486   3.449   0.619  0.5954  0.5885 -0.3620
 6862TIP3   OH242000   2.566   3.117   0.001  0.2311  0.0553 -0.3547
 6862TIP3    H142001   2.531   3.206   0.001 -1.2976 -0.5146 -0.4915
 6862TIP3    H242002   2.661   3.129   0.009  0.2602  1.7466 -2.4195
 6863TIP3   OH242003   4.479   1.538   2.101 -0.4083  0.0943  0.1962
 6863TIP3    H142004   4.516   1.555   2.187 -0.5302  1.1176  0.0505
 6863TIP3    H242005   4.500   1.615   2.049 -3.0286  0.9134  0.2068
 6864TIP3   OH242006   4.915   4.336  11.459 -0.0056 -0.2473 -0.4746
 6864TIP3    H142007   4.938   4.244  11.475 -0.6019 -0.1390  1.2321
 6864TIP3    H242008   4.823   4.333  11.432 -0.7787 -0.0468  1.8847
 6865TIP3   OH242009   1.838   2.325   3.177 -0.0155  0.6444  0.2737
 6865TIP3    H142010   1.897   2.291   3.244  1.2774  0.8767 -0.6968
 6865TIP3    H242011   1.767   2.261   3.173  0.6354 -0.1358  0.8565
 6866TIP3   OH242012   2.406   2.439  16.431 -0.4302  0.3467 -0.3876
 6866TIP3    H142013   2.442   2.380  16.497 -0.1749  2.0099  1.0059
 6866TIP3    H242014   2.448   2.411  16.349 -0.4475 -1.4884  0.1710
 6867TIP3   OH242015   2.536   2.259  10.735 -0.3402  0.5482 -0.0305
 6867TIP3    H142016   2.442   2.241  10.738 -0.4069  0.9386  0.5203
 6867TIP3    H242017   2.577   2.173  10.730 -0.7256  0.3703 -0.2137
 6868TIP3   OH242018   2.111   5.941  14.311 -0.4278  0.0013 -0.1181
 6868TIP3    H142019   2.065   6.022  14.290  0.0141  0.5467  0.9331
 6868TIP3    H242020   2.204   5.963  14.303 -0.3102 -0.8389 -1.3353
 6869TIP3   OH242021   5.154   5.878  12.545 -0.3603 -0.2510  0.2456
 6869TIP3    H142022   5.241   5.901  12.511 -0.7087 -0.9059 -1.1626
 6869TIP3    H242023   5.171   5.804  12.604  0.2277  0.7325  1.3473
 6870TIP3   OH242024   5.049   5.213  16.539  0.1164 -0.0312  0.2612
 6870TIP3    H142025   5.102   5.284  16.576 -0.1004 -0.3397  1.1848
 6870TIP3    H242026   5.099   5.133  16.558 -0.9239 -0.3881  1.6709
 6871TIP3   OH242027   2.383   1.076   1.426 -0.5246  0.0532  0.1297
 6871TIP3    H142028   2.401   1.073   1.331 -0.0503  0.1830  0.2111
 6871TIP3    H242029   2.432   1.001   1.461  1.3538  1.4028  0.5857
 6872TIP3   OH242030   0.346   6.510   6.125  0.4954  0.0826  0.0422
 6872TIP3    H142031   0.426   6.556   6.154  0.3706  0.3792 -0.0773
 6872TIP3    H242032   0.283   6.526   6.195  0.6263 -0.3882  0.2677
 6873TIP3   OH242033   2.299   6.297  11.617 -0.8784  0.2689  0.2991
 6873TIP3    H142034   2.381   6.282  11.569  0.7779  1.0733  2.6751
 6873TIP3    H242035   2.260   6.373  11.574 -1.2245 -1.0465 -1.8250
 6874TIP3   OH242036   6.409   5.800  12.024 -0.3409  0.2024 -0.4056
 6874TIP3    H142037   6.351   5.873  12.045  0.2322  0.3263  0.7963
 6874TIP3    H242038   6.384   5.775  11.935 -1.7323  0.7139 -0.1807
 6875TIP3   OH242039   3.172   2.117  17.138 -0.3193 -0.1073  0.3965
 6875TIP3    H142040   3.156   2.048  17.203  2.5867 -2.6058 -1.3256
 6875TIP3    H242041   3.240   2.172  17.178 -1.2760  0.7142  0.9647
 6876TIP3   OH242042   6.218   1.008   5.967  0.3236 -0.3707 -0.5188
 6876TIP3    H142043   6.219   1.086   6.023  0.6552 -0.6894 -0.0712
 6876TIP3    H242044   6.146   0.956   6.001  1.2166 -1.0795  0.3463
 6877TIP3   OH242045   0.636   4.477  13.128 -0.1341  0.3294 -0.0742
 6877TIP3    H142046   0.657   4.408  13.192  0.0540  1.4052  1.0477
 6877TIP3    H242047   0.675   4.556  13.165 -1.3290  1.2643 -0.7745
 6878TIP3   OH242048   4.039   2.514   5.857  0.2492  0.1044 -0.2879
 6878TIP3    H142049   3.978   2.588   5.856  1.6629  1.3350  0.7763
 6878TIP3    H242050   4.012   2.460   5.782 -2.3799  0.3596  0.3681
 6879TIP3   OH242051   2.950   0.732   2.338  0.0634 -0.4866  0.1414
 6879TIP3    H142052   2.874   0.680   2.366 -1.6000  0.7259 -1.7808
 6879TIP3    H242053   2.950   0.808   2.396 -0.3519 -0.3818  0.0096
 6880TIP3   OH242054   2.784   3.146   2.875  0.0352 -0.3370  0.3896
 6880TIP3    H142055   2.826   3.091   2.808 -0.6330 -0.7773  0.3271
 6880TIP3    H242056   2.704   3.177   2.834  1.6326  2.9353 -0.5899
 6881TIP3   OH242057   3.097   0.411  12.179 -0.7491  0.1525  0.0388
 6881TIP3    H142058   3.153   0.471  12.228  0.4085 -0.9513  0.1175
 6881TIP3    H242059   3.008   0.441  12.197 -0.2067  1.9615 -0.1026
 6882TIP3   OH242060   2.924   2.425   5.375  0.4571 -0.1433  0.3111
 6882TIP3    H142061   2.948   2.484   5.446  1.9370  0.2893 -0.5138
 6882TIP3    H242062   2.942   2.337   5.410  1.9685  0.1043  0.2077
 6883TIP3   OH242063   1.200   1.626   6.488 -0.0978  0.1459  0.5988
 6883TIP3    H142064   1.292   1.650   6.499  0.0276 -0.0367 -0.0015
 6883TIP3    H242065   1.164   1.695   6.433 -0.0719 -0.2995  0.0117
 6884TIP3   OH242066   6.127   0.329  13.480  0.1402 -0.7497 -0.1619
 6884TIP3    H142067   6.163   0.403  13.431  2.5413 -0.4464  1.8192
 6884TIP3    H242068   6.086   0.274  13.414 -0.7266  1.7486 -1.8677
 6885TIP3   OH242069   6.460   6.355   0.143 -0.1356 -0.0570  0.1005
 6885TIP3    H142070   6.513   6.403   0.207  1.7110  1.5857 -2.4488
 6885TIP3    H242071   6.508   6.274   0.128 -1.7514 -1.5328  2.2933
 6886TIP3   OH242072   3.551   2.147  11.754 -0.0515 -0.2137  0.0511
 6886TIP3    H142073   3.641   2.126  11.728 -0.2300 -1.0098  0.0506
 6886TIP3    H242074   3.543   2.241  11.739 -0.3629 -0.6785 -3.4929
 6887TIP3   OH242075   5.903   3.459  14.436  0.4871 -0.2175  0.0290
 6887TIP3    H142076   5.960   3.383  14.445  0.7865 -0.1932 -1.4069
 6887TIP3    H242077   5.843   3.436  14.366 -2.2318 -0.7902  2.3611
 6888TIP3   OH242078   6.055   3.377   1.583 -0.3538 -0.7331  0.0599
 6888TIP3    H142079   6.133   3.413   1.542 -0.8639 -0.0233 -0.2962
 6888TIP3    H242080   6.082   3.358   1.673  0.6945 -2.0634 -0.4920
 6889TIP3   OH242081   0.191   4.924  14.485  0.3880  0.0161  0.0331
 6889TIP3    H142082   0.113   4.975  14.509 -0.0487 -1.2335  1.4653
 6889TIP3    H242083   0.174   4.894  14.396 -1.1115 -0.7908  0.5566
 6890TIP3   OH242084   1.080   2.788   0.227  0.2288  0.3178  0.0336
 6890TIP3    H142085   1.059   2.792   0.320  0.3535  1.5471  0.0190
 6890TIP3    H242086   0.998   2.760   0.185  0.5619 -1.6951  0.6217
 6891TIP3   OH242087   5.916   4.717  12.371  0.0791 -0.5604  0.7108
 6891TIP3    H142088   5.871   4.655  12.428  0.4891 -1.4568  0.0876
 6891TIP3    H242089   5.971   4.663  12.314  1.9038  0.4626  1.3882
 6892TIP3   OH242090   4.010   5.272   2.059 -0.0795 -0.1684 -0.0646
 6892TIP3    H142091   4.077   5.287   2.126  0.5768  1.0373 -0.9337
 6892TIP3    H242092   3.951   5.207   2.097 -0.3651  1.2535  2.1453
 6893TIP3   OH242093   1.674   5.082   0.923 -0.0761  0.0903  0.3371
 6893TIP3    H142094   1.743   5.101   0.858 -1.4000 -0.2980 -1.2438
 6893TIP3    H242095   1.691   4.992   0.949 -1.3835 -0.9287 -1.9751
 6894TIP3   OH242096   4.240   3.815   0.189 -0.3895  0.0082 -0.2884
 6894TIP3    H142097   4.166   3.767   0.151 -1.0955  0.3045  0.6602
 6894TIP3    H242098   4.242   3.898   0.140 -1.7673  0.7084  0.7645
 6895TIP3   OH242099   6.111   0.463   1.147  0.0109 -0.0282 -0.9488
 6895TIP3    H142100   6.052   0.454   1.072  1.0124 -2.3216 -1.5473
 6895TIP3    H242101   6.067   0.416   1.218  0.5773 -0.7702 -1.0783
 6896TIP3   OH242102   5.062   0.777  17.131  0.4220  0.2460 -0.1600
 6896TIP3    H142103   5.127   0.818  17.074  0.4956  0.4238  0.0514
 6896TIP3    H242104   5.088   0.685  17.135 -0.3974 -0.0708 -1.5508
 6897TIP3   OH242105   3.547   5.364   2.316 -0.3962  0.1680  0.6096
 6897TIP3    H142106   3.587   5.372   2.403 -0.3290 -1.8544  0.7943
 6897TIP3    H242107   3.567   5.448   2.274  4.0247 -0.5587  0.7137
 6898TIP3   OH242108   3.457   0.739  16.304 -0.0705  0.1065 -0.2541
 6898TIP3    H142109   3.469   0.762  16.211  0.3253  1.6907  0.1615
 6898TIP3    H242110   3.414   0.654  16.302  0.5222 -0.1936 -1.8956
 6899TIP3   OH242111   0.225   1.042   3.060 -0.2989 -0.0608  0.2668
 6899TIP3    H142112   0.269   1.127   3.068  0.5912 -0.4429 -0.4274
 6899TIP3    H242113   0.157   1.057   2.995  0.3365 -0.0509 -0.4121
 6900TIP3   OH242114   5.481   5.832   5.160 -0.3171  0.1489 -0.5459
 6900TIP3    H142115   5.499   5.845   5.067 -0.6801 -0.0892 -0.6494
 6900TIP3    H242116   5.549   5.882   5.205  0.8542 -1.0602 -0.9240
 6901TIP3   OH242117   5.049   5.891  15.914  0.1512 -0.6768  0.5274
 6901TIP3    H142118   5.078   5.803  15.892 -0.6928 -0.4190 -1.9575
 6901TIP3    H242119   4.971   5.878  15.967  0.0810 -1.4493  0.2458
 6902TIP3   OH242120   4.420   6.744   4.123 -0.4264  0.1706 -0.0098
 6902TIP3    H142121   4.353   6.783   4.066 -0.2503 -0.7502 -0.8896
 6902TIP3    H242122   4.372   6.680   4.176 -0.2532 -0.5884 -0.7372
 6903TIP3   OH242123   5.624   6.052  12.591 -0.3389 -0.2387  0.1455
 6903TIP3    H142124   5.596   6.128  12.541  0.3793  0.1824  0.3699
 6903TIP3    H242125   5.634   6.084  12.680  1.8528 -0.0982 -0.1058
 6904TIP3   OH242126   0.271   0.483  10.468  0.1210  0.0124  0.3412
 6904TIP3    H142127   0.176   0.485  10.478  0.1029  1.9582  0.1633
 6904TIP3    H242128   0.289   0.540  10.394  1.4366 -0.3753  0.3324
 6905TIP3   OH242129   2.647   4.232   3.960  0.4356 -0.3514  0.1744
 6905TIP3    H142130   2.583   4.165   3.983  1.0225 -0.3913  1.8024
 6905TIP3    H242131   2.730   4.185   3.954  0.6897  0.0662  0.3593
 6906TIP3   OH242132   2.901   5.894  14.095  0.5347 -0.3163 -0.1713
 6906TIP3    H142133   2.919   5.800  14.099  0.9735 -0.2557 -0.5885
 6906TIP3    H242134   2.976   5.930  14.048 -0.1706  0.0910 -1.0102
 6907TIP3   OH242135   4.933   3.281  15.988  0.2136  0.3126  0.3072
 6907TIP3    H142136   4.884   3.361  16.005  0.0058  0.3486 -0.4304
 6907TIP3    H242137   4.935   3.235  16.072  0.1582  0.9913  0.6829
 6908TIP3   OH242138   2.746   6.403  11.812  0.1246 -0.7806  0.0643
 6908TIP3    H142139   2.693   6.479  11.786 -0.6044 -1.4369 -0.4071
 6908TIP3    H242140   2.706   6.329  11.767  0.0317 -1.6656  1.5415
 6909TIP3   OH242141   2.120   2.931  12.530  0.2813 -0.2736 -0.4977
 6909TIP3    H142142   2.099   3.001  12.469  0.1503  2.0136  2.0008
 6909TIP3    H242143   2.214   2.941  12.546  0.2440 -0.6244 -0.0522
 6910TIP3   OH242144   1.257   3.296  10.438 -0.2999 -0.0949 -0.2816
 6910TIP3    H142145   1.309   3.258  10.509  0.1887 -0.1733 -0.6680
 6910TIP3    H242146   1.241   3.386  10.465  0.0088 -0.0818 -0.1359
 6911TIP3   OH242147   0.328   4.064   0.980 -0.3635  0.6670  0.7611
 6911TIP3    H142148   0.421   4.082   0.966 -0.2846 -0.0386  0.3541
 6911TIP3    H242149   0.310   3.985   0.930 -0.9464  0.2040  1.6670
 6912TIP3   OH242150   6.485   3.282  16.565 -0.1880  0.4815 -1.0040
 6912TIP3    H142151   6.419   3.219  16.592  0.4701  0.3332  0.3011
 6912TIP3    H242152   6.456   3.365  16.601 -0.2306  0.6266 -1.3684
 6913TIP3   OH242153   2.976   2.415  12.856 -0.5376 -0.2915  0.2102
 6913TIP3    H142154   3.068   2.393  12.845  0.0140  1.9257  0.0028
 6913TIP3    H242155   2.954   2.386  12.945  0.3865 -0.6739  0.3200
 6914TIP3   OH242156   3.309   3.966  16.255  0.6644  0.2492  0.8627
 6914TIP3    H142157   3.258   3.927  16.184  0.5985  2.4086 -0.3625
 6914TIP3    H242158   3.261   3.945  16.335 -0.9659  0.3729 -0.0526
 6915TIP3   OH242159   2.345   3.194  16.727  0.1640 -0.0905 -0.5435
 6915TIP3    H142160   2.363   3.117  16.780 -1.6871 -1.2517 -1.5119
 6915TIP3    H242161   2.300   3.254  16.785  2.0980  0.5703  0.3729
 6916TIP3   OH242162   0.574   6.114   0.915 -0.3602  0.3695 -0.7849
 6916TIP3    H142163   0.492   6.072   0.941 -1.0617  1.8685 -0.4871
 6916TIP3    H242164   0.624   6.122   0.996 -1.1680  2.0573 -0.3994
 6917TIP3   OH242165   4.514   1.849   5.523  0.2245 -0.2348  0.3082
 6917TIP3    H142166   4.560   1.766   5.536 -0.6817 -0.5578  1.7888
 6917TIP3    H242167   4.522   1.893   5.608 -0.4790  0.5736 -0.0375
 6918TIP3   OH242168   5.243   4.153   2.570  0.2258 -0.2015  0.1918
 6918TIP3    H142169   5.218   4.245   2.556  1.8062  0.4266  1.2865
 6918TIP3    H242170   5.166   4.103   2.542 -0.5915  1.4367 -0.6236
 6919TIP3   OH242171   1.413   4.812  16.614  0.5320  0.0682  0.4688
 6919TIP3    H142172   1.354   4.877  16.653  1.6082  0.2530  1.8557
 6919TIP3    H242173   1.500   4.848  16.629  1.0738 -0.9592 -0.1599
 6920TIP3   OH242174   5.195   3.132   1.660 -0.0708 -0.8792 -0.4712
 6920TIP3    H142175   5.134   3.193   1.619  0.6238 -0.5847 -1.0769
 6920TIP3    H242176   5.274   3.137   1.607  0.4183 -1.4080  0.1880
 6921TIP3   OH242177   4.886   5.262  16.012 -0.2320  0.1334 -0.0908
 6921TIP3    H142178   4.951   5.270  16.081  0.2556 -0.0964 -0.5092
 6921TIP3    H242179   4.937   5.238  15.934 -0.8110 -0.0016 -0.4376
 6922TIP3   OH242180   1.391   1.946   2.514 -0.0139  0.0921  0.5789
 6922TIP3    H142181   1.316   1.951   2.455  0.7709 -0.4391 -0.4792
 6922TIP3    H242182   1.408   1.852   2.524 -0.4418  0.1477  2.0646
 6923TIP3   OH242183   0.978   2.745   0.535  0.1808  0.4649  0.0456
 6923TIP3    H142184   0.900   2.799   0.546  0.1813  0.9180 -1.8722
 6923TIP3    H242185   0.946   2.655   0.541 -0.6240  0.6348 -1.3330
 6924TIP3   OH242186   3.865   5.584  16.624  0.7318 -0.0115  0.5491
 6924TIP3    H142187   3.881   5.551  16.713  0.1256 -1.4324  0.1546
 6924TIP3    H242188   3.771   5.602  16.622  0.9598  1.2752  0.5822
 6925TIP3   OH242189   4.925   4.574   2.457 -0.1020 -0.3346  0.1215
 6925TIP3    H142190   4.936   4.595   2.364  2.2827 -0.8717  0.2257
 6925TIP3    H242191   4.830   4.580   2.472 -0.6623 -1.2818 -2.5742
 6926TIP3   OH242192   5.336   1.217  10.435 -0.0384 -0.1832 -0.0191
 6926TIP3    H142193   5.295   1.142  10.392  0.1941 -0.7119  0.6882
 6926TIP3    H242194   5.413   1.182  10.479  0.0386  0.4559  0.3731
 6927TIP3   OH242195   1.728   3.682  10.875 -0.2758 -0.5592  0.5727
 6927TIP3    H142196   1.759   3.771  10.862  0.4689 -0.9800 -0.7413
 6927TIP3    H242197   1.651   3.675  10.818 -0.1258 -0.8410  0.3993
 6928TIP3   OH242198   3.329   5.221   1.434 -0.4520  0.1829 -0.1538
 6928TIP3    H142199   3.325   5.202   1.340 -0.2845 -0.3457 -0.0565
 6928TIP3    H242200   3.326   5.135   1.476 -4.2827  0.4581  0.5135
 6929TIP3   OH242201   3.261   6.675   1.793 -0.4306 -0.5272  0.5335
 6929TIP3    H142202   3.319   6.610   1.754 -0.4563  0.3898 -1.1395
 6929TIP3    H242203   3.173   6.648   1.767 -0.2886  1.9195 -3.2629
 6930TIP3   OH242204   6.355   6.041  16.056  0.1527  0.0361  0.2215
 6930TIP3    H142205   6.300   5.996  15.992  2.1716 -2.5007  0.1063
 6930TIP3    H242206   6.406   6.103  16.004 -0.5804  0.4185 -0.0651
 6931TIP3   OH242207   3.283   2.505   4.931 -0.1593  0.3951  0.6093
 6931TIP3    H142208   3.283   2.589   4.885  0.2610  0.7826  1.2872
 6931TIP3    H242209   3.214   2.514   4.997 -0.9798 -0.2760 -0.1376
 6932TIP3   OH242210   2.161   3.285   0.208 -0.1410 -0.1536 -0.6129
 6932TIP3    H142211   2.233   3.238   0.168  0.8569  0.4814  0.3815
 6932TIP3    H242212   2.166   3.262   0.301 -1.0441  0.1304 -0.4795
 6933TIP3   OH242213   3.805   0.545  13.103 -0.1253  0.4631  0.5083
 6933TIP3    H142214   3.830   0.514  13.191 -1.7179 -2.7694 -0.0376
 6933TIP3    H242215   3.815   0.468  13.047 -0.8787  1.9611 -1.8078
 6934TIP3   OH242216   5.071   6.720  14.459  0.4011  0.7232  0.2170
 6934TIP3    H142217   5.095   6.691  14.547  1.0500 -0.4088 -0.3184
 6934TIP3    H242218   4.999   6.664  14.433  1.2820 -0.0671 -0.5982
 6935TIP3   OH242219   4.571   3.039  12.461  0.2664  0.5199 -0.2288
 6935TIP3    H142220   4.478   3.045  12.440  0.5830  1.1630 -1.5413
 6935TIP3    H242221   4.614   3.017  12.378  1.2802  0.1786  0.3614
 6936TIP3   OH242222   4.390   0.491  15.628  0.3834 -0.2530  0.6073
 6936TIP3    H142223   4.347   0.411  15.660  0.4638 -0.3870  0.3859
 6936TIP3    H242224   4.469   0.499  15.682  0.8034 -0.7805  0.0924
 6937TIP3   OH242225   5.974   5.857   1.738 -0.0032 -0.2724 -0.4269
 6937TIP3    H142226   6.060   5.817   1.749 -0.1170 -0.0425  1.8874
 6937TIP3    H242227   5.920   5.789   1.697  0.3551 -1.8193  1.4965
 6938TIP3   OH242228   6.074   3.751   0.081 -0.2925  0.3141  0.0417
 6938TIP3    H142229   6.088   3.780  -0.009 -1.0074 -0.8791 -0.4762
 6938TIP3    H242230   6.022   3.671   0.073  1.6933 -1.2076  1.3926
 6939TIP3   OH242231   2.380   0.881  12.835  0.7421 -0.1649 -0.6800
 6939TIP3    H142232   2.468   0.846  12.843  1.0130  0.7028  0.6734
 6939TIP3    H242233   2.378   0.953  12.899 -1.6751 -1.6662  1.0844
 6940TIP3   OH242234   0.234   6.616  16.602  0.2251 -0.1695 -0.0315
 6940TIP3    H142235   0.266   6.584  16.517 -0.5336  0.0173 -0.3984
 6940TIP3    H242236   0.170   6.684  16.579  0.8944  0.7413  0.7153
 6941TIP3   OH242237   0.746   3.151  12.696 -0.0834 -0.1140 -0.0308
 6941TIP3    H142238   0.724   3.060  12.718  0.8427  0.0952  2.0818
 6941TIP3    H242239   0.698   3.204  12.760  0.5878  0.7754 -0.2394
 6942TIP3   OH242240   1.883   6.304   4.636  0.0444 -0.3811  0.2293
 6942TIP3    H142241   1.894   6.210   4.649  1.6273 -0.0962  1.1862
 6942TIP3    H242242   1.885   6.341   4.724 -2.0523  0.4424 -0.0247
 6943TIP3   OH242243   0.448   0.385   5.021 -0.0876  0.8795  0.0250
 6943TIP3    H142244   0.455   0.456   4.958  3.8444  1.2716  0.6412
 6943TIP3    H242245   0.438   0.428   5.106 -0.1404  0.5899  0.1692
 6944TIP3   OH242246   3.138   3.892   4.050 -0.1791 -0.5100  0.3979
 6944TIP3    H142247   3.169   3.980   4.071 -0.4960 -0.3931  0.3695
 6944TIP3    H242248   3.174   3.874   3.963 -0.6975 -0.1351  0.1058
 6945TIP3   OH242249   3.126   3.864   0.456 -0.1438 -0.4981 -0.5723
 6945TIP3    H142250   3.200   3.907   0.413 -0.2249  0.2127  0.0039
 6945TIP3    H242251   3.058   3.861   0.389 -0.2378  0.5259 -0.5234
 6946TIP3   OH242252   2.196   5.071   4.034 -0.1341 -0.2321  0.4699
 6946TIP3    H142253   2.167   5.155   4.068  1.5726  0.6779 -0.2239
 6946TIP3    H242254   2.115   5.020   4.023 -1.2924  1.5969  0.1191
 6947TIP3   OH242255   1.098   0.894   3.717  0.1796 -0.5762  0.1218
 6947TIP3    H142256   1.145   0.821   3.757 -0.0518 -1.1194 -0.5926
 6947TIP3    H242257   1.088   0.870   3.625 -0.4661  0.0630  0.0135
 6948TIP3   OH242258   0.175   3.376  11.064 -0.7276  0.5537 -0.3481
 6948TIP3    H142259   0.087   3.347  11.039 -0.5933  0.3551 -0.6030
 6948TIP3    H242260   0.233   3.326  11.006 -0.4322  0.4514  0.0339
 6949TIP3   OH242261   2.542   6.562  16.847 -0.8952 -0.1072 -0.0707
 6949TIP3    H142262   2.515   6.607  16.767  2.3200 -0.4380 -1.5088
 6949TIP3    H242263   2.571   6.476  16.817 -2.5089 -1.4748  1.9685
 6950TIP3   OH242264   5.698   4.649  12.957 -0.0597 -0.3702 -0.3298
 6950TIP3    H142265   5.707   4.554  12.958 -0.5711 -0.4193  0.3235
 6950TIP3    H242266   5.608   4.666  12.985  0.3027  0.3317  0.4618
 6951TIP3   OH242267   2.749   4.152  12.556  0.0368  0.3095 -0.2931
 6951TIP3    H142268   2.774   4.156  12.649  1.7778 -0.4780 -0.6886
 6951TIP3    H242269   2.691   4.076  12.551  1.5012 -0.8503 -0.1532
 6952TIP3   OH242270   5.516   5.454   3.000 -0.2699 -0.0465  0.1679
 6952TIP3    H142271   5.513   5.550   2.999 -1.2244 -0.0644 -0.2462
 6952TIP3    H242272   5.609   5.432   3.001 -0.0092  0.9008  2.3431
 6953TIP3   OH242273   6.580   3.018  14.843  0.8047  0.1116 -0.0546
 6953TIP3    H142274   6.587   3.113  14.839  1.3738  0.0745 -0.0010
 6953TIP3    H242275   6.650   2.986  14.786  0.3176 -0.2698 -0.4428
 6954TIP3   OH242276   5.881   2.736  13.972 -0.1819  0.1427 -0.6254
 6954TIP3    H142277   5.920   2.676  14.035 -2.8720 -0.6833  0.3823
 6954TIP3    H242278   5.854   2.812  14.025  3.2889  2.5019 -1.8859
 6955TIP3   OH242279   4.116   4.799   5.789  0.3783  0.6349  0.3098
 6955TIP3    H142280   4.121   4.808   5.884 -1.3806 -0.4235  0.5483
 6955TIP3    H242281   4.177   4.729   5.768  0.8352  0.9306  0.6412
 6956TIP3   OH242282   1.605   0.016   5.244 -0.4718  0.4899  0.5160
 6956TIP3    H142283   1.513   0.043   5.239 -0.5130  0.2960  0.2563
 6956TIP3    H242284   1.605  -0.058   5.305 -0.5975  0.0089 -0.0573
 6957TIP3   OH242285   3.441   4.357  12.871 -0.2036  0.3607  0.0177
 6957TIP3    H142286   3.410   4.270  12.895  0.7023 -0.6153 -2.0880
 6957TIP3    H242287   3.525   4.365  12.916  0.1257 -0.2447 -0.4702
 6958TIP3   OH242288   2.822   4.821  12.517  0.2494 -0.0279  0.1000
 6958TIP3    H142289   2.915   4.840  12.507  0.2234  0.0870  0.0812
 6958TIP3    H242290   2.820   4.734  12.557  0.3758  0.2801  0.7871
 6959TIP3   OH242291   0.432   3.901  11.402 -0.0113 -0.6318 -0.6004
 6959TIP3    H142292   0.524   3.878  11.394 -0.2928 -1.3286 -2.1787
 6959TIP3    H242293   0.425   3.943  11.488  1.5437 -1.5862  0.0262
 6960TIP3   OH242294   1.210   5.284  14.869 -0.6572  0.6213  0.3760
 6960TIP3    H142295   1.157   5.357  14.837 -1.5138  0.8813  2.2362
 6960TIP3    H242296   1.170   5.206  14.830 -1.7587  0.9083  0.8975
 6961TIP3   OH242297   0.770   1.207   6.339 -0.5538  0.0712 -0.0470
 6961TIP3    H142298   0.697   1.195   6.399 -0.5813  2.4985  0.4764
 6961TIP3    H242299   0.844   1.164   6.383 -1.0975 -0.2217  0.6039
 6962TIP3   OH242300   6.255   0.360  16.797 -0.0679 -0.1406 -0.0247
 6962TIP3    H142301   6.222   0.271  16.805 -0.1750 -0.1486 -0.5042
 6962TIP3    H242302   6.227   0.388  16.710  0.2871  0.2264 -0.0250
 6963TIP3   OH242303   3.373   5.337   5.029  0.6592 -0.0599  0.2006
 6963TIP3    H142304   3.291   5.315   4.985  0.6001 -0.8696  0.6921
 6963TIP3    H242305   3.434   5.357   4.958  0.4209 -0.8267 -0.2334
 6964TIP3   OH242306   0.270   2.946   5.257 -0.5408 -0.9084 -0.0220
 6964TIP3    H142307   0.346   3.005   5.259 -0.8376 -0.5453  0.5776
 6964TIP3    H242308   0.208   2.990   5.199 -0.1420 -1.4057 -0.8489
 6965TIP3   OH242309   1.754   6.381   5.761  0.4830  0.6406 -0.0373
 6965TIP3    H142310   1.719   6.470   5.753 -0.6812  0.1666 -0.5521
 6965TIP3    H242311   1.780   6.358   5.671  0.1397  0.2226 -0.0327
 6966TIP3   OH242312   6.377   0.259  11.127 -0.4515  0.4008  0.2651
 6966TIP3    H142313   6.444   0.257  11.058  0.1210 -0.3091  0.8204
 6966TIP3    H242314   6.368   0.168  11.154 -1.8885  0.4416 -0.0122
 6967TIP3   OH242315   5.082   6.697  11.332  0.1875 -0.1112 -0.3645
 6967TIP3    H142316   5.036   6.624  11.290  0.3490 -0.3093 -0.2020
 6967TIP3    H242317   5.149   6.723  11.268 -1.2454  1.3190 -1.3412
 6968TIP3   OH242318   6.387   4.005  13.331  0.0756  0.2108 -0.3187
 6968TIP3    H142319   6.341   3.925  13.308 -0.8275  0.5422  0.3111
 6968TIP3    H242320   6.320   4.062  13.370  1.1678  0.3645  1.4563
 6969TIP3   OH242321   0.417   3.836  15.885  0.5071 -0.1438 -0.1378
 6969TIP3    H142322   0.449   3.746  15.896  0.5666 -0.2126 -0.8527
 6969TIP3    H242323   0.381   3.838  15.797  0.6532  0.5875 -0.1822
 6970TIP3   OH242324   2.161   2.737   5.622  0.6679  0.3602  1.0121
 6970TIP3    H142325   2.166   2.648   5.586  1.1367  0.8743 -0.2385
 6970TIP3    H242326   2.212   2.733   5.703  0.2803 -0.6186  1.2289
 6971TIP3   OH242327   5.873   4.452  15.209  0.1487 -0.7698 -0.7281
 6971TIP3    H142328   5.947   4.502  15.176  0.4118 -0.8688 -0.2869
 6971TIP3    H242329   5.861   4.382  15.145 -0.3271 -0.0527 -1.4393
 6972TIP3   OH242330   3.532   3.695   4.028 -0.5468  0.2857 -0.0749
 6972TIP3    H142331   3.442   3.663   4.039 -0.9722  1.6696  0.9104
 6972TIP3    H242332   3.523   3.791   4.029  1.0135  0.4586  0.7805
 6973TIP3   OH242333   1.185   6.061   1.998 -0.0711 -0.1014  0.0394
 6973TIP3    H142334   1.148   5.984   1.955 -0.0606 -0.5617  0.8204
 6973TIP3    H242335   1.110   6.118   2.015 -0.3751 -0.8065  1.1681
 6974TIP3   OH242336   6.164   5.311   4.201 -0.2346 -0.0284 -0.1999
 6974TIP3    H142337   6.179   5.299   4.108  1.7667 -1.4163  0.2227
 6974TIP3    H242338   6.218   5.387   4.225  1.4685 -1.3078  0.2420
 6975TIP3   OH242339   6.063   5.512   2.118  0.3595  0.0366  0.2258
 6975TIP3    H142340   6.024   5.599   2.121 -1.7141 -0.8478  1.4094
 6975TIP3    H242341   6.001   5.456   2.166  2.3367 -1.8183  0.8060
 6976TIP3   OH242342   5.594   1.398  10.908  0.1858  0.1530 -0.2082
 6976TIP3    H142343   5.597   1.430  10.818 -3.5092 -0.4783 -0.7326
 6976TIP3    H242344   5.650   1.457  10.957  1.6130  1.0580 -2.7619
 6977TIP3   OH242345   4.285   3.792  16.602  0.2216  0.0386  0.4581
 6977TIP3    H142346   4.374   3.824  16.591  1.0531 -1.5328  2.0429
 6977TIP3    H242347   4.274   3.728  16.531  0.0071  0.8944 -0.2893
 6978TIP3   OH242348   3.309   2.759   3.495 -0.0235  0.2861 -0.5252
 6978TIP3    H142349   3.368   2.731   3.425  0.5336  0.1079  0.0070
 6978TIP3    H242350   3.363   2.755   3.574 -0.7505  0.1295 -0.0352
 6979TIP3   OH242351   1.380   2.986  12.469 -0.6832  0.0671 -0.3566
 6979TIP3    H142352   1.305   3.044  12.470 -0.5565  0.2652 -1.3441
 6979TIP3    H242353   1.455   3.042  12.490 -0.3517  0.6221 -2.7485
 6980TIP3   OH242354   6.204   0.478  15.763 -0.2342 -0.2923  0.4432
 6980TIP3    H142355   6.178   0.427  15.840 -0.8754  0.2305  0.5770
 6980TIP3    H242356   6.146   0.554  15.763  1.8230  1.3986  1.2410
 6981TIP3   OH242357   5.107   2.118  10.340  0.3696  0.0415 -0.2440
 6981TIP3    H142358   5.179   2.133  10.280 -0.2139  1.9046 -0.5319
 6981TIP3    H242359   5.035   2.088  10.284  0.6766 -1.1499 -0.0428
 6982TIP3   OH242360   6.068   3.723   1.369 -0.4286  0.0172  0.2182
 6982TIP3    H142361   5.986   3.713   1.417 -1.5968  1.1830 -1.4321
 6982TIP3    H242362   6.074   3.643   1.316 -1.0647  0.3814 -0.4267
 6983TIP3   OH242363   5.582   6.089   0.318  0.3503  0.1595  0.0682
 6983TIP3    H142364   5.490   6.109   0.303  0.5975  1.6138  0.3353
 6983TIP3    H242365   5.581   6.010   0.372 -0.7551  0.4357  0.4801
 6984TIP3   OH242366   6.354   2.172  16.558  0.2525 -0.1896  0.5869
 6984TIP3    H142367   6.421   2.107  16.538 -0.8592 -1.6259  1.3378
 6984TIP3    H242368   6.358   2.182  16.653  0.3113  0.7364  0.4920
 6985TIP3   OH242369   5.184   3.371   3.543 -0.3857 -0.0287  0.4348
 6985TIP3    H142370   5.103   3.410   3.575 -1.6074 -1.1457 -1.1325
 6985TIP3    H242371   5.253   3.432   3.569 -2.1295  3.0568 -1.6072
 6986TIP3   OH242372   6.617   2.046   3.293 -0.1064 -0.0776  0.1988
 6986TIP3    H142373   6.636   2.139   3.287 -0.0613 -0.0416  0.8046
 6986TIP3    H242374   6.541   2.033   3.236  0.5848  0.1114 -0.7962
 6987TIP3   OH242375   1.562   2.122   1.151 -0.2103  0.1315  0.6389
 6987TIP3    H142376   1.579   2.047   1.095  0.0552 -0.2704  1.2526
 6987TIP3    H242377   1.604   2.195   1.107 -1.2213  0.1085 -0.4215
 6988TIP3   OH242378   4.417   0.389   2.434 -0.4769  0.0926 -0.4257
 6988TIP3    H142379   4.455   0.396   2.346  0.4920  0.4924  0.0093
 6988TIP3    H242380   4.370   0.471   2.446  2.1204  1.5511  0.6423
 6989TIP3   OH242381   2.634   6.352  13.212  0.2657 -0.2871 -0.3983
 6989TIP3    H142382   2.718   6.313  13.186  0.6072 -1.3278  2.0201
 6989TIP3    H242383   2.585   6.279  13.250 -1.6455  0.3731 -1.4881
 6990TIP3   OH242384   2.682   5.148  15.198  0.1054 -0.4726 -0.1992
 6990TIP3    H142385   2.617   5.200  15.150 -0.2345 -1.7745 -1.2010
 6990TIP3    H242386   2.766   5.185  15.171 -0.1525  0.1246 -0.2103
 6991TIP3   OH242387   2.303   4.432  13.137 -0.2947 -0.0337 -0.7375
 6991TIP3    H142388   2.342   4.418  13.052  0.8261 -1.0555 -0.0755
 6991TIP3    H242389   2.357   4.381  13.198 -1.7343 -0.2472  0.4259
 6992TIP3   OH242390   2.426   0.955  15.880 -0.0692  0.8683  0.6255
 6992TIP3    H142391   2.350   0.900  15.864  0.2647  0.7051 -0.4574
 6992TIP3    H242392   2.435   0.956  15.975 -1.5672  1.1081  0.7909
 6993TIP3   OH242393   2.058   2.057   0.483 -0.0522 -0.3226 -0.0146
 6993TIP3    H142394   2.069   2.150   0.466  2.1782 -0.0317  2.2938
 6993TIP3    H242395   2.132   2.015   0.438 -0.1413 -0.7601  0.2327
 6994TIP3   OH242396   2.587   5.018  11.595 -0.1885 -0.1386 -0.0376
 6994TIP3    H142397   2.527   5.084  11.560 -0.7981 -0.6237  0.0768
 6994TIP3    H242398   2.662   5.019  11.534 -0.3272  0.4397 -0.2056
 6995TIP3   OH242399   6.215   1.182   3.940  0.1793 -0.3140  0.3543
 6995TIP3    H142400   6.262   1.253   3.897  0.1915 -0.1091  0.7009
 6995TIP3    H242401   6.192   1.122   3.869  1.3764 -0.6510  0.2308
 6996TIP3   OH242402   2.376   6.227   0.708 -0.2875 -0.4012  0.2075
 6996TIP3    H142403   2.286   6.247   0.733 -0.3275  0.4638 -0.5947
 6996TIP3    H242404   2.418   6.312   0.698 -0.0833 -0.7019 -1.9229
 6997TIP3   OH242405   4.173   3.311  16.403  0.5380 -0.3779 -0.5047
 6997TIP3    H142406   4.265   3.324  16.383  0.4679 -1.0098 -1.2559
 6997TIP3    H242407   4.144   3.396  16.438  1.4065 -0.1920 -0.2155
 6998TIP3   OH242408   5.191   4.750   2.273 -0.6927  0.3017 -0.5288
 6998TIP3    H142409   5.217   4.757   2.181 -1.1711 -0.2200 -0.7038
 6998TIP3    H242410   5.211   4.660   2.297  0.6239  0.7797  0.2549
 6999TIP3   OH242411   1.319   2.327   2.547 -0.5781 -0.0951  0.2881
 6999TIP3    H142412   1.410   2.321   2.521 -1.1970 -1.1946 -1.8458
 6999TIP3    H242413   1.322   2.347   2.641  1.8221 -0.6276  0.3808
 7000TIP3   OH242414   4.078   5.348   5.278 -0.2994 -0.2320  0.9835
 7000TIP3    H142415   4.050   5.347   5.186  0.5602 -2.3104  0.6928
 7000TIP3    H242416   4.049   5.264   5.313 -0.7612  0.6005  2.7043
 7001TIP3   OH242417   3.180   3.389   1.074  0.0125  0.0820 -0.2088
 7001TIP3    H142418   3.104   3.433   1.034 -0.4510 -0.7552 -0.2748
 7001TIP3    H242419   3.222   3.343   1.001  1.3002  1.4938 -0.4050
 7002TIP3   OH242420   2.983   3.832  11.390 -0.3002 -0.4745 -0.2536
 7002TIP3    H142421   3.005   3.800  11.477 -0.3847  0.9462  0.3043
 7002TIP3    H242422   2.887   3.830  11.387 -0.2747 -1.4928 -0.7011
 7003TIP3   OH242423   1.447   2.791   1.229  0.5720 -0.3944  0.0117
 7003TIP3    H142424   1.386   2.811   1.159 -0.5916 -0.9551  0.8345
 7003TIP3    H242425   1.521   2.851   1.215  0.9898 -1.3609 -2.4405
 7004TIP3   OH242426   2.556   4.841   5.225 -0.3877  0.4734 -0.3795
 7004TIP3    H142427   2.604   4.884   5.156 -1.6425  1.8051 -0.4722
 7004TIP3    H242428   2.554   4.904   5.297 -0.2883 -0.3391  0.3606
 7005TIP3   OH242429   5.969   4.600  17.167 -0.4860  0.1770 -0.1411
 7005TIP3    H142430   5.970   4.627  17.075 -0.6411  0.5356 -0.0414
 7005TIP3    H242431   5.926   4.673  17.213 -0.1494  0.1330  0.2554
 7006TIP3   OH242432   1.889   4.920  14.603  0.0935  0.2746  0.0608
 7006TIP3    H142433   1.942   4.948  14.528  1.6515 -1.0113  0.6177
 7006TIP3    H242434   1.808   4.888  14.564  1.6260 -2.2328 -1.3717
 7007TIP3   OH242435   3.769   1.083   2.143 -0.1947  0.0336 -0.3197
 7007TIP3    H142436   3.764   0.988   2.147 -0.0323  0.0331 -0.0625
 7007TIP3    H242437   3.862   1.102   2.131 -0.2467  0.1553 -0.5386
 7008TIP3   OH242438   1.434   3.203   4.774  0.3442  0.6107 -0.4351
 7008TIP3    H142439   1.485   3.187   4.695  1.5605  2.4648 -0.0965
 7008TIP3    H242440   1.408   3.116   4.805 -1.2397 -0.1363 -3.5023
 7009TIP3   OH242441   2.471   1.708  14.362  0.1452 -0.3696  0.3719
 7009TIP3    H142442   2.555   1.754  14.354  0.1716 -0.5632 -0.5840
 7009TIP3    H242443   2.426   1.753  14.433  0.4663  0.6840 -0.0597
 7010TIP3   OH242444   5.568   5.292  10.751  0.3078  0.3668  0.2076
 7010TIP3    H142445   5.582   5.204  10.786 -0.4846  1.5273  3.8945
 7010TIP3    H242446   5.654   5.332  10.753  0.2511  0.4605  1.0295
 7011TIP3   OH242447   1.121   4.698   2.686  0.1542 -0.3437  0.0949
 7011TIP3    H142448   1.056   4.679   2.618  0.1001  0.3330 -0.0582
 7011TIP3    H242449   1.115   4.625   2.747  0.1975 -0.9525 -0.6239
 7012TIP3   OH242450   6.408   1.173  16.754 -0.3358 -0.3252 -0.3063
 7012TIP3    H142451   6.454   1.252  16.728 -2.1675  0.9844  0.2494
 7012TIP3    H242452   6.425   1.164  16.848 -0.6111 -0.2353 -0.2452
 7013TIP3   OH242453   4.776   4.131   2.312  0.2293 -0.4165 -0.1571
 7013TIP3    H142454   4.838   4.102   2.380 -0.8049 -0.7668  0.6705
 7013TIP3    H242455   4.723   4.198   2.355 -0.0937 -0.2574 -0.7946
 7014TIP3   OH242456   4.901   2.559  14.599  0.5452 -0.0925  0.4178
 7014TIP3    H142457   4.889   2.528  14.509 -1.4247  0.8267  0.3001
 7014TIP3    H242458   4.918   2.479  14.649  0.8818 -0.7174 -0.6473
 7015TIP3   OH242459   5.171   2.041   3.273  0.3488  0.3266 -0.1160
 7015TIP3    H142460   5.164   1.994   3.357  1.8574  0.3441  0.0504
 7015TIP3    H242461   5.115   2.118   3.284 -1.9471 -1.2204 -0.2832
 7016TIP3   OH242462   5.672   5.209  16.011  0.5443 -0.3416  0.0212
 7016TIP3    H142463   5.710   5.133  15.967 -1.9192 -1.5559 -0.1281
 7016TIP3    H242464   5.637   5.175  16.093 -0.8776  0.5506 -0.1816
 7017TIP3   OH242465   4.163   2.164   2.461  0.6555  0.1065 -0.1196
 7017TIP3    H142466   4.173   2.107   2.537  1.2004 -1.6208 -1.4145
 7017TIP3    H242467   4.240   2.146   2.407 -0.2110  0.5192 -1.5515
 7018TIP3   OH242468   0.799   4.542  12.898 -0.0379  0.0399 -0.2681
 7018TIP3    H142469   0.733   4.508  12.958 -0.1016  1.9352  0.8091
 7018TIP3    H242470   0.872   4.480  12.905 -1.4222 -1.7340 -1.0013
 7019TIP3   OH242471   0.371   1.044  16.883 -0.0173  0.2637  0.4798
 7019TIP3    H142472   0.428   1.096  16.826 -0.2421 -0.6200 -0.5925
 7019TIP3    H242473   0.388   0.954  16.857 -2.1791 -0.0143 -0.1877
 7020TIP3   OH242474   4.988   2.428  15.829 -0.1336 -0.4056  0.1675
 7020TIP3    H142475   5.078   2.457  15.815 -0.6505  0.0716 -2.9477
 7020TIP3    H242476   4.934   2.499  15.793 -1.6390 -1.9792 -0.8658
 7021TIP3   OH242477   2.302   1.022  16.520 -0.1797 -0.5339 -0.1863
 7021TIP3    H142478   2.344   1.076  16.453 -0.0882  0.9006  0.9710
 7021TIP3    H242479   2.223   0.989  16.478 -0.1335  0.3612 -1.0133
 7022TIP3   OH242480   4.622   4.322  15.883  0.4958  0.4638 -0.4485
 7022TIP3    H142481   4.559   4.394  15.886 -0.3052 -0.2288 -0.1462
 7022TIP3    H242482   4.605   4.271  15.963  0.7773 -0.2779 -0.8481
 7023TIP3   OH242483   6.281   2.939  13.034 -0.0199  0.5058 -0.1178
 7023TIP3    H142484   6.367   2.962  13.069  0.6364 -1.3187 -0.3921
 7023TIP3    H242485   6.249   3.019  12.993  2.7198  0.6460 -2.3320
 7024TIP3   OH242486   1.885   0.460  10.524 -0.6431  0.1248 -0.2741
 7024TIP3    H142487   1.814   0.501  10.572 -1.1405  0.0328 -0.9124
 7024TIP3    H242488   1.890   0.371  10.559 -2.3286 -0.5988 -1.7151
 7025TIP3   OH242489   1.388   5.968   0.227 -0.3728 -0.2457 -0.4998
 7025TIP3    H142490   1.345   6.028   0.288 -0.7027 -1.0875  0.1090
 7025TIP3    H242491   1.475   6.005   0.214 -0.6310  0.4595 -0.2710
 7026TIP3   OH242492   3.354   1.747   2.177 -0.1700  0.2001  0.0694
 7026TIP3    H142493   3.343   1.658   2.143  1.2180  0.2321 -0.5218
 7026TIP3    H242494   3.395   1.735   2.263 -0.6675  0.2560  0.3212
 7027TIP3   OH242495   1.286   4.542   0.531  0.0531  0.2572 -0.2483
 7027TIP3    H142496   1.273   4.574   0.620  2.1133 -0.2505  0.3078
 7027TIP3    H242497   1.282   4.447   0.540  1.3526  0.1626 -0.4510
 7028TIP3   OH242498   2.969   0.929  15.383  0.4552 -0.6444 -0.3722
 7028TIP3    H142499   3.058   0.956  15.362  0.9413 -1.3725  0.6948
 7028TIP3    H242500   2.969   0.834  15.373 -0.3043 -0.6178 -0.7100
 7029TIP3   OH242501   2.935   6.606  15.149 -0.3780 -0.2765 -0.1212
 7029TIP3    H142502   2.986   6.530  15.177 -0.4246 -0.5987 -0.8829
 7029TIP3    H242503   2.884   6.631  15.226  0.9691  0.0986  0.6889
 7030TIP3   OH242504   3.267   6.134  14.894 -0.4422 -0.5245  0.2679
 7030TIP3    H142505   3.192   6.177  14.852 -0.6221 -1.4272 -0.3697
 7030TIP3    H242506   3.247   6.137  14.988 -1.0356 -0.3257  0.1392
 7031TIP3   OH242507   4.397   3.547   0.365 -0.1988 -0.7957 -0.3428
 7031TIP3    H142508   4.352   3.540   0.281  0.8658  1.7264 -1.2166
 7031TIP3    H242509   4.338   3.601   0.419  0.6692  0.5966 -0.7308
 7032TIP3   OH242510   0.525   6.761   0.718  0.5589 -0.5135 -0.3518
 7032TIP3    H142511   0.597   6.697   0.722  0.1081 -0.9787  0.5276
 7032TIP3    H242512   0.505   6.768   0.625  3.0129  1.0724 -0.8782
 7033TIP3   OH242513   4.418   2.057  16.778  0.1278  0.1523  0.0770
 7033TIP3    H142514   4.480   2.024  16.714  1.3307 -1.1930  1.8506
 7033TIP3    H242515   4.470   2.069  16.858 -1.2478  2.0334  0.7699
 7034TIP3   OH242516   2.415   2.256   3.166 -0.4509 -0.9624 -0.1616
 7034TIP3    H142517   2.449   2.186   3.221  2.5212  1.8336  1.9803
 7034TIP3    H242518   2.345   2.295   3.219 -0.0424 -0.4984  0.0463
 7035TIP3   OH242519   4.179   2.554  15.569 -0.4631  0.8269 -0.1497
 7035TIP3    H142520   4.137   2.604  15.639 -0.6751  0.4784 -0.0274
 7035TIP3    H242521   4.108   2.505  15.529  0.0195 -0.8324  0.9323
 7036TIP3   OH242522   4.992   5.348  14.648  0.0001  0.2016  0.3667
 7036TIP3    H142523   4.912   5.344  14.596 -0.3178 -0.4539  0.8973
 7036TIP3    H242524   5.060   5.313  14.591 -0.4933 -1.2881  0.6559
 7037TIP3   OH242525   3.193   5.703   4.681  0.4173  0.0898  0.2434
 7037TIP3    H142526   3.127   5.715   4.750 -0.5578 -2.3486 -0.1452
 7037TIP3    H242527   3.265   5.657   4.725 -0.1784 -1.4109 -0.2962
 7038TIP3   OH242528   1.492   6.193  11.687  0.3382  0.2830 -0.0333
 7038TIP3    H142529   1.468   6.110  11.728  0.2716 -0.0760 -0.7839
 7038TIP3    H242530   1.564   6.227  11.740  1.4343 -1.0215 -0.6416
 7039TIP3   OH242531   2.046   5.908  15.194  0.1108  0.7783 -0.0588
 7039TIP3    H142532   2.127   5.885  15.240  0.2617  1.2257 -0.0955
 7039TIP3    H242533   2.062   5.996  15.160 -0.3801  0.8592 -0.0892
 7040TIP3   OH242534   4.433   2.606  11.782 -0.3534 -0.2416  0.6419
 7040TIP3    H142535   4.396   2.520  11.759  0.9790 -0.8012  0.4784
 7040TIP3    H242536   4.366   2.668  11.756 -0.1845 -1.0438 -2.0689
 7041TIP3   OH242537   5.063   5.597   1.099 -0.2513  0.3577 -0.2988
 7041TIP3    H142538   5.144   5.563   1.061 -0.1716 -1.3606  1.2357
 7041TIP3    H242539   5.053   5.548   1.181 -0.8458  3.2661  1.5036
 7042TIP3   OH242540   4.803   0.050   5.557  0.3071 -0.1330 -0.2872
 7042TIP3    H142541   4.788  -0.033   5.604  0.6442  0.8921  1.7396
 7042TIP3    H242542   4.890   0.078   5.584 -0.3144  1.5221  0.1241
 7043TIP3   OH242543   1.766   2.252   1.024 -0.0123 -0.1061 -0.3151
 7043TIP3    H142544   1.765   2.314   0.951 -0.4399 -0.8419 -0.9634
 7043TIP3    H242545   1.830   2.287   1.086 -0.7575  1.3341 -0.3340
 7044TIP3   OH242546   0.651   2.044   3.636  0.1336  0.2093  0.3416
 7044TIP3    H142547   0.670   2.015   3.725 -1.3074  1.8497  1.2486
 7044TIP3    H242548   0.733   2.030   3.589  1.0380 -0.4201  1.9988
 7045TIP3   OH242549   3.100   5.076  17.225  0.1318  0.2717  0.3792
 7045TIP3    H142550   3.161   5.018  17.179 -0.6338 -1.8380  1.8529
 7045TIP3    H242551   3.041   5.016  17.272 -1.9595  2.2403  0.4337
 7046TIP3   OH242552   0.181   3.637   3.485 -0.3761  0.1914  0.0033
 7046TIP3    H142553   0.127   3.605   3.556  0.8044 -1.2657  0.2995
 7046TIP3    H242554   0.263   3.589   3.493  0.0265  0.4415 -1.9592
 7047TIP3   OH242555   3.724   2.913   0.040  0.3521 -0.4245  0.4171
 7047TIP3    H142556   3.646   2.883   0.086  0.6960 -0.1378  1.2124
 7047TIP3    H242557   3.694   2.932  -0.049 -0.4106 -0.6245  0.6263
 7048TIP3   OH242558   5.729   1.505   0.782  0.1299  0.5417 -0.5450
 7048TIP3    H142559   5.821   1.493   0.805  0.0785  0.8759 -0.1690
 7048TIP3    H242560   5.709   1.429   0.726  0.6628  0.5339 -0.7303
 7049TIP3   OH242561   4.489   3.507   3.365  0.0162  0.6311 -0.9623
 7049TIP3    H142562   4.444   3.428   3.395  1.8288 -0.9689 -2.2219
 7049TIP3    H242563   4.487   3.566   3.440  0.2801 -1.3605  0.6873
 7050TIP3   OH242564   3.431   4.917   3.408 -0.0018  0.2603  0.0675
 7050TIP3    H142565   3.385   4.927   3.491  1.2742  0.5859  0.7739
 7050TIP3    H242566   3.477   5.001   3.397 -0.2293  0.2539 -1.0147
 7051TIP3   OH242567   1.548   2.249   1.392  0.0624  0.0288  0.2782
 7051TIP3    H142568   1.504   2.329   1.364 -1.0862 -0.4984  0.5072
 7051TIP3    H242569   1.555   2.196   1.312  0.0866  0.0269  0.2816
 7052TIP3   OH242570   0.965   2.143  11.215 -0.4079  0.1324 -0.3559
 7052TIP3    H142571   0.943   2.233  11.242 -0.8256  0.1464 -0.7295
 7052TIP3    H242572   1.014   2.154  11.133  1.9155  0.1584  0.9518
 7053TIP3   OH242573   3.118   6.533  17.071  0.2232  0.3250 -0.2467
 7053TIP3    H142574   3.060   6.607  17.055 -2.3253 -1.0574  1.7722
 7053TIP3    H242575   3.156   6.513  16.985  0.1692  3.2401 -1.0363
 7054TIP3   OH242576   0.694   3.205  16.317 -0.0429  0.4468 -0.2396
 7054TIP3    H142577   0.640   3.230  16.242  1.1034  0.6610 -1.0231
 7054TIP3    H242578   0.631   3.185  16.387 -1.1862  4.8169  0.3024
 7055TIP3   OH242579   5.814   4.403   5.933 -0.5010  0.3159 -0.2004
 7055TIP3    H142580   5.754   4.453   5.987 -1.5850 -0.6288 -0.5040
 7055TIP3    H242581   5.791   4.311   5.948  0.6679 -0.0666 -0.5475
 7056TIP3   OH242582   6.224   0.068   3.830 -0.3278  0.3004 -0.1808
 7056TIP3    H142583   6.184   0.154   3.842  0.2037  0.4006  1.1199
 7056TIP3    H242584   6.299   0.084   3.773 -0.7503  0.5279 -0.6790
 7057TIP3   OH242585   1.942   6.286  13.530 -0.2611 -0.1786  0.6594
 7057TIP3    H142586   1.934   6.356  13.465 -3.8339 -2.7968 -2.1850
 7057TIP3    H242587   1.973   6.329  13.609 -1.2913  4.3886 -1.1451
 7058TIP3   OH242588   4.561   4.914  11.660 -0.3470  0.8972  0.1633
 7058TIP3    H142589   4.582   4.839  11.716  0.8244  1.2409  0.2218
 7058TIP3    H242590   4.578   4.883  11.572  1.6951  1.5204  0.2783
 7059TIP3   OH242591   1.757   0.297   1.365  0.3430  0.3324  0.0106
 7059TIP3    H142592   1.808   0.308   1.445  0.1915  1.7278 -0.0571
 7059TIP3    H242593   1.666   0.306   1.393  0.0947 -1.7149  0.0578
 7060TIP3   OH242594   3.390   3.179  13.620  0.9888  0.0239 -0.2638
 7060TIP3    H142595   3.386   3.083  13.618 -0.9580  0.0716 -1.8107
 7060TIP3    H242596   3.420   3.199  13.709  1.1522 -2.0036  0.2006
 7061TIP3   OH242597   6.255   2.534   4.594 -0.4802  0.4284  0.0596
 7061TIP3    H142598   6.189   2.586   4.548  0.1539 -0.3380 -1.8192
 7061TIP3    H242599   6.272   2.460   4.536  1.2743  0.0586  0.9729
 7062TIP3   OH242600   1.186   6.726  13.624  0.0109  0.4724 -0.0719
 7062TIP3    H142601   1.128   6.657  13.592  1.4736 -0.1969 -1.4087
 7062TIP3    H242602   1.139   6.807  13.604 -1.0487 -0.0605  0.1301
 7063TIP3   OH242603   6.404   0.921   5.532  0.1700  0.5292  0.0564
 7063TIP3    H142604   6.454   0.850   5.493 -1.6451 -0.6335 -0.2853
 7063TIP3    H242605   6.461   0.997   5.525  0.3877  0.1834 -3.9439
 7064TIP3   OH242606   0.449   2.613  12.530  0.4466  0.1065 -1.0957
 7064TIP3    H142607   0.522   2.600  12.470  0.6614 -0.8150 -0.6573
 7064TIP3    H242608   0.376   2.638  12.473  1.1272  1.1834 -1.5164
 7065TIP3   OH242609   2.297   4.659  12.982 -0.3356  0.2823 -0.7749
 7065TIP3    H142610   2.391   4.639  12.975 -0.1700  0.6323  0.3412
 7065TIP3    H242611   2.264   4.597  13.046 -0.8790  0.1513 -1.1770
 7066TIP3   OH242612   0.311   6.677   1.959 -0.0703  0.3154 -0.0650
 7066TIP3    H142613   0.386   6.666   2.017 -0.0814 -2.9516 -0.4435
 7066TIP3    H242614   0.254   6.602   1.980 -1.3309  0.5115 -2.4478
 7067TIP3   OH242615   0.156   2.351  12.363 -0.3163  0.1021 -0.4117
 7067TIP3    H142616   0.246   2.380  12.371 -0.5592  1.0895 -1.0255
 7067TIP3    H242617   0.156   2.290  12.289  0.0522 -0.8420  0.3564
 7068TIP3   OH242618   6.202   2.117  13.429 -0.1746  0.0622 -0.0523
 7068TIP3    H142619   6.261   2.138  13.357  0.4341  0.4476  0.5542
 7068TIP3    H242620   6.233   2.169  13.503 -2.6314  2.0872 -0.2871
 7069TIP3   OH242621   6.296   4.990   0.704 -0.1636 -0.6190  0.4824
 7069TIP3    H142622   6.257   5.061   0.755  0.5919 -0.5902  1.0473
 7069TIP3    H242623   6.300   4.916   0.765  0.0821 -0.8077  0.2393
 7070TIP3   OH242624   0.154   5.249   5.457 -0.2472  0.3425 -0.0751
 7070TIP3    H142625   0.120   5.282   5.540 -0.8192 -0.2207 -0.0769
 7070TIP3    H242626   0.218   5.314   5.429 -0.6467  0.9416  0.3999
 7071TIP3   OH242627   5.762   5.372   2.230 -0.5617  0.2368  0.0516
 7071TIP3    H142628   5.755   5.464   2.256  0.2454  0.7289 -1.2981
 7071TIP3    H242629   5.715   5.323   2.297  1.7366  1.3199  2.6251
 7072TIP3   OH242630   2.354   2.896   1.615  0.8522  0.1364 -0.3153
 7072TIP3    H142631   2.358   2.859   1.526  0.7194  2.2838 -1.2653
 7072TIP3    H242632   2.392   2.983   1.607 -0.4778  0.9439  1.4400
 7073TIP3   OH242633   2.394   5.691  11.892 -0.1833  0.3792  0.8981
 7073TIP3    H142634   2.460   5.693  11.961 -0.8914  0.4138  1.5984
 7073TIP3    H242635   2.439   5.724  11.815  1.2360 -1.6892  0.7702
 7074TIP3   OH242636   5.148   1.628   4.500  0.8310  0.3810  0.6164
 7074TIP3    H142637   5.138   1.637   4.595 -1.1450  0.5558  0.4185
 7074TIP3    H242638   5.127   1.536   4.482 -1.6863  0.9891  0.0769
 7075TIP3   OH242639   5.372   3.289   4.195 -0.3591 -0.1551 -0.4776
 7075TIP3    H142640   5.455   3.246   4.213 -0.7657 -0.8455 -0.2476
 7075TIP3    H242641   5.397   3.370   4.149  0.3389 -1.3053 -2.2409
 7076TIP3   OH242642   3.696   4.861   0.255  0.5825  0.5567 -0.2477
 7076TIP3    H142643   3.749   4.816   0.321 -0.0176 -0.9876 -0.7792
 7076TIP3    H242644   3.749   4.857   0.176 -0.0228 -0.4280 -0.6223
 7077TIP3   OH242645   5.431   3.220   2.518  0.8674 -0.3754 -0.6249
 7077TIP3    H142646   5.500   3.287   2.524  0.4482  0.0401 -0.3681
 7077TIP3    H242647   5.478   3.137   2.530  1.1109 -0.0139  1.3047
 7078TIP3   OH242648   0.432   3.952  16.179 -0.2088 -0.7194 -0.3097
 7078TIP3    H142649   0.387   4.001  16.248  0.0823 -0.7202 -0.1173
 7078TIP3    H242650   0.491   3.893  16.227  1.0526  0.2861 -0.5848
 7079TIP3   OH242651   2.909   4.297   0.439 -0.1441  0.1853  0.0651
 7079TIP3    H142652   2.822   4.285   0.479 -0.2747  2.9903  0.8509
 7079TIP3    H242653   2.969   4.296   0.514  0.4833 -1.2461 -0.4302
 7080TIP3   OH242654   5.430   2.815  16.140 -0.3464  0.1223  0.3071
 7080TIP3    H142655   5.495   2.852  16.081 -0.2814  0.3587  0.5247
 7080TIP3    H242656   5.449   2.722  16.141 -1.4030 -0.1553 -1.3695
 7081TIP3   OH242657   4.149   3.099  12.172  0.9965  0.4943  0.0967
 7081TIP3    H142658   4.099   3.178  12.192  0.7249  0.6494 -1.1036
 7081TIP3    H242659   4.188   3.116  12.086 -0.3411 -1.2352 -0.9461
 7082TIP3   OH242660   1.553   1.671   1.419 -0.3449 -0.3213 -0.2640
 7082TIP3    H142661   1.565   1.643   1.329  1.7007 -0.5103  0.0209
 7082TIP3    H242662   1.553   1.766   1.416  1.1689 -0.2987 -0.3480
 7083TIP3   OH242663   0.507   0.860   0.184 -0.1973 -0.0417  0.0722
 7083TIP3    H142664   0.423   0.896   0.213  0.0113  0.7504 -0.2776
 7083TIP3    H242665   0.526   0.790   0.247 -1.6659 -1.0177 -0.5142
 7084TIP3   OH242666   2.638   0.412   0.425 -0.2221  0.1179 -0.2410
 7084TIP3    H142667   2.702   0.457   0.370  0.6573 -0.5131  0.2294
 7084TIP3    H242668   2.641   0.321   0.397 -1.7428  0.2664 -0.9600
 7085TIP3   OH242669   2.673   2.277   5.660 -0.0401 -0.1213 -0.4010
 7085TIP3    H142670   2.735   2.211   5.627  0.5491  0.0096  0.4142
 7085TIP3    H242671   2.709   2.303   5.744  0.1209  1.7798 -1.0103
 7086TIP3   OH242672   4.047   0.422  14.644 -0.3712  0.1235  0.1865
 7086TIP3    H142673   4.118   0.439  14.705 -0.5689  1.4474  0.0652
 7086TIP3    H242674   4.055   0.491  14.578 -1.9255  0.4719  0.3258
 7087TIP3   OH242675   4.110   2.923  10.394  0.2274  0.2621 -0.8462
 7087TIP3    H142676   4.170   2.849  10.401  1.6965  1.4186 -0.6979
 7087TIP3    H242677   4.119   2.953  10.304  0.9247  1.2865 -0.4469
 7088TIP3   OH242678   3.514   5.769   2.501  0.4564  0.1909 -0.8834
 7088TIP3    H142679   3.529   5.754   2.407  0.1728  0.3633 -0.9585
 7088TIP3    H242680   3.575   5.839   2.524 -0.4728  1.1628 -1.2772
 7089TIP3   OH242681   3.069   6.384  10.811  0.4776  0.5203 -0.3665
 7089TIP3    H142682   3.016   6.310  10.840 -3.2618  3.0305 -0.0018
 7089TIP3    H242683   3.099   6.361  10.724 -0.2077 -1.5589 -0.0971
 7090TIP3   OH242684   2.289   2.866   0.620  0.2355  0.3779  0.4626
 7090TIP3    H142685   2.215   2.851   0.679 -0.8076  1.6265 -0.5005
 7090TIP3    H242686   2.305   2.960   0.625 -1.5647  1.0275 -3.1305
 7091TIP3   OH242687   4.163   0.544   4.624 -0.5645  0.0117  0.1727
 7091TIP3    H142688   4.217   0.484   4.677  0.8594  1.3617  0.3230
 7091TIP3    H242689   4.074   0.527   4.653 -0.0713 -1.1124  1.1417
 7092TIP3   OH242690   6.246   0.418   3.576  0.0911  0.0599  0.3427
 7092TIP3    H142691   6.183   0.474   3.531 -0.8258 -0.6909  0.6529
 7092TIP3    H242692   6.298   0.380   3.506 -0.9274 -0.6279 -0.0668
 7093TIP3   OH242693   6.292   2.040   0.446 -0.1217  0.1559 -0.0682
 7093TIP3    H142694   6.366   2.046   0.507  0.0703  0.7620 -0.3550
 7093TIP3    H242695   6.310   2.106   0.379  0.2425 -1.2505 -1.4159
 7094TIP3   OH242696   5.958   1.029   1.913  0.2057 -0.0767  0.0311
 7094TIP3    H142697   5.932   0.982   1.834 -0.9935 -0.0603  0.4015
 7094TIP3    H242698   6.047   1.059   1.894 -0.5643  1.2005 -1.9250
 7095TIP3   OH242699   5.728   2.811   5.758  0.4795 -0.5790  0.1366
 7095TIP3    H142700   5.714   2.883   5.820 -1.6833  1.5330 -2.4945
 7095TIP3    H242701   5.670   2.742   5.788  0.5500 -0.1762  1.2417
 7096TIP3   OH242702   5.652   3.489  16.452  0.2074  0.0670 -0.4166
 7096TIP3    H142703   5.579   3.513  16.396 -0.1743 -1.2181 -0.5154
 7096TIP3    H242704   5.729   3.521  16.406 -0.2829  1.4756 -0.2878
 7097TIP3   OH242705   1.347   6.754   4.878 -0.2972 -0.4404 -0.2392
 7097TIP3    H142706   1.383   6.669   4.902 -2.1132 -1.5704 -1.2914
 7097TIP3    H242707   1.398   6.781   4.801 -0.3476 -1.0426 -0.4876
 7098TIP3   OH242708   6.475   5.630   2.055 -0.0958  0.1201  0.0802
 7098TIP3    H142709   6.412   5.694   2.024  1.6671  0.7380 -2.5090
 7098TIP3    H242710   6.454   5.550   2.006 -0.6529 -0.5627  1.3808
 7099TIP3   OH242711   1.279   4.883   5.093 -0.2115 -0.0467  0.3185
 7099TIP3    H142712   1.287   4.957   5.153  0.7419 -0.3449  0.5690
 7099TIP3    H242713   1.189   4.889   5.060 -0.4400  0.6799  1.0359
 7100TIP3   OH242714   0.042   6.659  11.434 -0.0450  0.1336  0.1453
 7100TIP3    H142715  -0.028   6.707  11.479 -0.0109 -1.7517  2.3905
 7100TIP3    H242716   0.020   6.667  11.341 -1.6494  1.9322  0.6088
 7101TIP3   OH242717   3.013   6.393   3.049  0.3933 -0.0077  0.1492
 7101TIP3    H142718   3.046   6.409   3.138  0.4599  0.3959  0.0544
 7101TIP3    H242719   2.977   6.304   3.053 -1.2144  0.6520  1.0627
 7102TIP3   OH242720   4.629   4.828   2.698 -0.0378 -0.4469 -0.3340
 7102TIP3    H142721   4.557   4.853   2.640 -1.9862 -2.2160  1.1692
 7102TIP3    H242722   4.638   4.902   2.759 -1.1666 -0.5458 -0.0296
 7103TIP3   OH242723   3.596   3.340  10.739  0.6414  0.9962  0.3272
 7103TIP3    H142724   3.685   3.306  10.735  1.3590  2.8271 -0.1688
 7103TIP3    H242725   3.556   3.314  10.657  0.2477 -0.9534  1.0844
 7104TIP3   OH242726   6.347   0.351   3.310 -0.6448  0.2302 -0.3665
 7104TIP3    H142727   6.419   0.413   3.307  0.3368 -0.6661  2.1567
 7104TIP3    H242728   6.279   0.391   3.256  1.7909  0.9361 -3.2164
 7105TIP3   OH242729   4.901   4.031  11.195 -0.4851  0.2581  0.1563
 7105TIP3    H142730   4.905   3.935  11.202  0.0802  0.4000  2.2579
 7105TIP3    H242731   4.903   4.062  11.285  2.2501  2.3844 -0.5106
 7106TIP3   OH242732   6.150   0.711   4.532 -0.2747  0.6184 -0.4772
 7106TIP3    H142733   6.236   0.717   4.491  1.7616 -1.4823  2.9292
 7106TIP3    H242734   6.130   0.617   4.530 -0.2710  0.4498  2.5497
 7107TIP3   OH242735   0.521   3.817  16.756  0.5691 -0.7456  0.5015
 7107TIP3    H142736   0.498   3.907  16.782 -0.8975 -1.3408  1.4172
 7107TIP3    H242737   0.610   3.824  16.722  0.0691  1.2704 -0.5927
 7108TIP3   OH242738   5.236   5.301  14.244 -0.1868 -0.6528  0.3692
 7108TIP3    H142739   5.191   5.325  14.163 -0.7768  0.1813  0.9247
 7108TIP3    H242740   5.322   5.269  14.216 -0.2931 -0.1466 -0.5673
 7109TIP3   OH242741   3.020   0.785  13.071 -0.7475 -0.2159  0.2369
 7109TIP3    H142742   2.966   0.794  13.150 -1.4445 -0.1291 -0.2361
 7109TIP3    H242743   3.008   0.867  13.025  1.4368  0.6477  1.0957
 7110TIP3   OH242744   3.309   1.693  13.870 -0.0647 -0.2846 -0.5836
 7110TIP3    H142745   3.295   1.599  13.883 -2.3387  0.1223  0.3493
 7110TIP3    H242746   3.223   1.727  13.845  0.4068  1.7550  0.3723
 7111TIP3   OH242747   3.281   0.263   3.355 -0.2573  0.4833 -0.0583
 7111TIP3    H142748   3.324   0.274   3.270  0.7516 -0.4328  0.3259
 7111TIP3    H242749   3.327   0.323   3.414  0.8315 -0.8373  0.4638
 7112TIP3   OH242750   4.828   0.326  11.574 -0.3422  0.1659  0.7233
 7112TIP3    H142751   4.872   0.279  11.644 -1.3414 -0.2004  1.1362
 7112TIP3    H242752   4.866   0.291  11.493 -0.7667 -1.0762  1.0356
 7113TIP3   OH242753   6.538   2.197  15.166  0.0412  0.2799  0.2283
 7113TIP3    H142754   6.607   2.215  15.230  1.0652  1.2733 -1.1070
 7113TIP3    H242755   6.499   2.282  15.148 -0.9329 -0.1389  0.2511
 7114TIP3   OH242756   0.152   6.289   5.222  0.3380  0.2970  0.1225
 7114TIP3    H142757   0.155   6.194   5.232  0.7163  0.4328  1.6259
 7114TIP3    H242758   0.100   6.319   5.297 -0.1167  1.2591 -0.5518
 7115TIP3   OH242759   6.156   4.605   4.700  0.3482  0.7319 -0.3682
 7115TIP3    H142760   6.103   4.617   4.621  0.2327 -1.0464 -0.6066
 7115TIP3    H242761   6.135   4.680   4.755 -2.5184  0.0806 -0.4148
 7116TIP3   OH242762   6.506   4.869   1.904  0.7148  0.4470 -0.1454
 7116TIP3    H142763   6.503   4.837   1.994  0.0712  0.2487 -0.2329
 7116TIP3    H242764   6.417   4.896   1.885  0.3804 -1.3313 -1.3559
 7117TIP3   OH242765   4.022   1.368   4.540  0.1105  0.4201 -0.3623
 7117TIP3    H142766   4.064   1.416   4.611  1.5552 -0.0899 -0.8387
 7117TIP3    H242767   3.990   1.288   4.581  0.0861  0.5662 -0.0936
 7118TIP3   OH242768   2.390   0.813  12.008  0.5051  0.1955 -0.0707
 7118TIP3    H142769   2.414   0.851  11.923  1.7720  0.8159  0.5315
 7118TIP3    H242770   2.471   0.774  12.040 -0.2603 -1.1322  0.3180
 7119TIP3   OH242771   0.082   3.723   3.826 -0.1065  0.5538  0.9274
 7119TIP3    H142772   0.125   3.638   3.825 -1.6434 -0.2629  0.5612
 7119TIP3    H242773   0.057   3.737   3.917 -0.5897  0.2047  0.8531
 7120TIP3   OH242774   0.064   2.417   3.207  0.7336 -0.2009 -0.0907
 7120TIP3    H142775  -0.024   2.378   3.206  0.8160 -0.4462  0.9647
 7120TIP3    H242776   0.078   2.442   3.298  1.3208  0.8746 -0.4504
 7121TIP3   OH242777   4.955   4.132  15.663  0.5795 -0.1509 -0.1508
 7121TIP3    H142778   4.948   4.145  15.568 -1.1078  2.6304  0.2525
 7121TIP3    H242779   4.870   4.095  15.688 -0.7598  3.0964  0.6815
 7122TIP3   OH242780   3.968   5.115   5.124  0.1726 -0.2499 -0.0839
 7122TIP3    H142781   3.959   5.029   5.083  1.4968 -0.0854 -0.7864
 7122TIP3    H242782   4.059   5.140   5.107 -0.4232  1.6760 -0.6960
 7123TIP3   OH242783   3.965   0.870   4.214 -0.0570 -0.0418 -0.2640
 7123TIP3    H142784   3.952   0.792   4.268  0.4641 -0.2526 -0.4346
 7123TIP3    H242785   3.998   0.936   4.275  0.8811 -0.3876 -0.3803
 7124TIP3   OH242786   1.002   1.094  13.922  0.2702  0.3611  0.1871
 7124TIP3    H142787   1.047   1.178  13.912  1.3314 -0.1043  0.7634
 7124TIP3    H242788   0.979   1.067  13.834  1.3440  0.5350 -0.1647
 7125TIP3   OH242789   4.983   4.675  14.387 -0.4456  0.2376  0.4361
 7125TIP3    H142790   4.919   4.732  14.430 -0.3526 -0.4347  1.4968
 7125TIP3    H242791   4.940   4.590  14.383  0.4905 -0.3196  1.5103
 7126TIP3   OH242792   0.740   2.904  14.603  0.1843  0.3751  0.6460
 7126TIP3    H142793   0.750   2.811  14.622 -1.1427 -0.1343 -0.9687
 7126TIP3    H242794   0.824   2.931  14.568  0.2579 -0.4887  0.1273
 7127TIP3   OH242795   3.430   0.054  12.424 -0.0987 -0.2175 -0.1349
 7127TIP3    H142796   3.370   0.109  12.375 -0.7332  0.2027  1.0690
 7127TIP3    H242797   3.440   0.098  12.508  1.7208 -0.4071 -0.2028
 7128TIP3   OH242798   0.607   4.991  16.631 -0.0561 -0.6289 -0.3381
 7128TIP3    H142799   0.630   4.964  16.542 -0.1715  0.4494 -0.7133
 7128TIP3    H242800   0.564   5.077  16.619 -1.0188 -0.9531  0.6609
 7129TIP3   OH242801   3.492   0.374   5.046  0.6608 -0.7435 -0.7690
 7129TIP3    H142802   3.453   0.311   4.984 -0.8957 -1.6745  1.0629
 7129TIP3    H242803   3.441   0.454   5.033 -0.7771 -1.4193  0.3517
 7130TIP3   OH242804   4.646   6.092  11.211  0.5810  0.0399 -0.0503
 7130TIP3    H142805   4.681   6.106  11.122  0.6396  1.5340  0.1970
 7130TIP3    H242806   4.617   6.000  11.210 -0.0522  0.2120 -1.8318
 7131TIP3   OH242807   6.049   5.352   2.895 -0.5876  0.3202 -0.0586
 7131TIP3    H142808   6.122   5.373   2.836 -0.9681  2.3679  0.1360
 7131TIP3    H242809   6.029   5.261   2.875  2.0239 -0.3391 -0.1104
 7132TIP3   OH242810   2.057   2.307   4.183 -0.0546 -0.6582  0.8137
 7132TIP3    H142811   2.100   2.304   4.268  4.9079  1.7533 -1.2035
 7132TIP3    H242812   2.043   2.216   4.159  2.1483 -1.5474  2.6103
 7133TIP3   OH242813   6.702   1.579  12.241 -0.2159 -0.7233 -0.4655
 7133TIP3    H142814   6.720   1.511  12.307  0.9129 -0.1555 -0.1555
 7133TIP3    H242815   6.779   1.578  12.185  0.7774  1.6146  0.7233
 7134TIP3   OH242816   1.307   4.061   0.129  0.1160 -0.4099  0.6961
 7134TIP3    H142817   1.362   4.106   0.193 -0.0519  0.4286  0.2780
 7134TIP3    H242818   1.219   4.098   0.143  0.1481  0.0530 -0.2430
 7135TIP3   OH242819   1.109   5.945   1.306 -0.3682  0.4347  0.1478
 7135TIP3    H142820   1.199   5.968   1.330 -0.2076 -1.5664  1.7679
 7135TIP3    H242821   1.118   5.875   1.242 -0.8151  1.2032 -0.7861
 7136TIP3   OH242822   4.607   4.885   1.081  0.2169  0.1274 -0.1551
 7136TIP3    H142823   4.600   4.980   1.092  0.0500  0.1545 -0.4598
 7136TIP3    H242824   4.561   4.849   1.156  0.2544  0.2880 -0.0533
 7137TIP3   OH242825   5.407   3.587   1.289 -0.3206  0.2637  0.0960
 7137TIP3    H142826   5.441   3.545   1.368 -0.4869  0.8307  0.4706
 7137TIP3    H242827   5.465   3.556   1.219 -1.2866 -1.7118  0.1066
 7138TIP3   OH242828   0.912   1.207   2.552 -0.6993 -0.0254  0.0103
 7138TIP3    H142829   0.919   1.136   2.616 -0.1202  1.4714  1.7018
 7138TIP3    H242830   0.822   1.203   2.521 -0.1489 -2.8134 -1.6264
 7139TIP3   OH242831   6.495   2.911  16.032  0.8232 -0.1773 -0.1474
 7139TIP3    H142832   6.520   2.902  15.940 -0.4133 -0.1824 -0.5053
 7139TIP3    H242833   6.409   2.952  16.029  1.2917  0.9584  1.0608
 7140TIP3   OH242834   5.859   5.697  12.147 -0.2193 -0.0611 -0.4977
 7140TIP3    H142835   5.822   5.665  12.229 -1.6955 -0.3379 -1.2272
 7140TIP3    H242836   5.839   5.628  12.084 -0.4896  0.8267 -1.4115
 7141TIP3   OH242837   5.947   3.037  16.710 -0.1561  0.1126 -0.1337
 7141TIP3    H142838   6.041   3.053  16.705 -0.2012  0.5263  0.2924
 7141TIP3    H242839   5.933   2.958  16.657  0.3493  0.3508 -0.6330
 7142TIP3   OH242840   5.338   3.517  11.194  0.1794  0.0348  0.5714
 7142TIP3    H142841   5.310   3.487  11.108  1.6768 -2.4376  0.8579
 7142TIP3    H242842   5.294   3.602  11.205 -1.2071 -0.2497 -1.9684
 7143TIP3   OH242843   4.026   4.251   2.380  0.3765  0.3030  0.3404
 7143TIP3    H142844   4.046   4.188   2.310  3.2670  0.5212  0.8142
 7143TIP3    H242845   3.965   4.206   2.437  0.3467 -1.0681 -0.7127
 7144TIP3   OH242846   0.601   3.149  11.767 -0.1809  0.1555 -0.3422
 7144TIP3    H142847   0.642   3.168  11.682  1.4240 -1.9021 -0.1031
 7144TIP3    H242848   0.660   3.189  11.831 -0.6082  0.4402 -0.1198
 7145TIP3   OH242849   3.426   4.745   3.197 -0.6138 -0.0197  0.2149
 7145TIP3    H142850   3.426   4.655   3.231 -0.0514  0.0942  0.5297
 7145TIP3    H242851   3.438   4.800   3.274  1.4224  0.2137 -0.2157
 7146TIP3   OH242852   5.239   0.671  14.164  0.4610 -0.7731 -0.1061
 7146TIP3    H142853   5.205   0.702  14.080 -0.6311 -1.0095  0.2409
 7146TIP3    H242854   5.212   0.579  14.168  1.5629 -1.1182 -0.0249
 7147TIP3   OH242855   0.405   3.355   0.677  0.4783 -0.1656  0.2150
 7147TIP3    H142856   0.434   3.307   0.599 -0.1668  0.9285 -0.7321
 7147TIP3    H242857   0.397   3.288   0.745  1.6582 -1.0461 -0.4848
 7148TIP3   OH242858   3.398   1.698   3.306  0.1469 -0.0618  0.0564
 7148TIP3    H142859   3.432   1.783   3.278 -0.2081  1.0703  2.7242
 7148TIP3    H242860   3.466   1.635   3.280  1.2816  1.2876 -0.3756
 7149TIP3   OH242861   0.697   5.864  12.968 -0.0988  0.5011  0.3005
 7149TIP3    H142862   0.711   5.893  12.877 -1.4716 -1.1327 -0.4740
 7149TIP3    H242863   0.657   5.940  13.011  3.2511  2.3749  0.4344
 7150TIP3   OH242864   0.510   3.647   1.186 -0.1029 -0.6335  0.0709
 7150TIP3    H142865   0.469   3.686   1.263  2.4916  0.3705  1.0393
 7150TIP3    H242866   0.437   3.631   1.126 -1.7199  2.7736  0.8848
 7151TIP3   OH242867   6.460   1.118  10.665 -0.4128  0.1856 -0.3554
 7151TIP3    H142868   6.544   1.153  10.635 -0.4121  0.7838  0.3341
 7151TIP3    H242869   6.453   1.032  10.622  0.3913  0.2774 -0.6795
 7152TIP3   OH242870   1.499   6.453   5.949 -0.6564  0.0706  0.0389
 7152TIP3    H142871   1.503   6.388   5.878  2.3700 -0.0647  0.2260
 7152TIP3    H242872   1.445   6.411   6.016  0.0779 -1.7079 -0.4077
 7153TIP3   OH242873   3.841   5.993  16.735  0.1479 -0.3039  0.2131
 7153TIP3    H142874   3.753   5.975  16.768  0.2679 -1.6456 -0.1405
 7153TIP3    H242875   3.890   6.022  16.811 -0.3411 -0.5505  0.6255
 7154TIP3   OH242876   4.498   2.683   0.525  0.1804 -0.3398 -0.3863
 7154TIP3    H142877   4.540   2.597   0.514 -0.6761 -0.9404  0.8529
 7154TIP3    H242878   4.444   2.693   0.447  0.1072 -1.0362 -0.4331
 7155TIP3   OH242879   1.269   1.649  13.642 -0.1093 -0.4147 -0.2033
 7155TIP3    H142880   1.248   1.740  13.663 -0.8685 -0.7429  0.5068
 7155TIP3    H242881   1.185   1.609  13.619 -0.1740 -1.5073  1.7311
 7156TIP3   OH242882   5.753   4.544  11.492  0.0656 -0.3204  0.1442
 7156TIP3    H142883   5.771   4.523  11.400  0.0711  0.4462 -0.0381
 7156TIP3    H242884   5.822   4.500  11.541  0.3008 -0.3960 -0.2490
 7157TIP3   OH242885   6.564   1.878  10.883  0.7284 -0.9165  0.5151
 7157TIP3    H142886   6.489   1.819  10.869  0.3440 -0.9866  2.4841
 7157TIP3    H242887   6.616   1.870  10.803 -2.3909  0.7567 -1.9360
 7158TIP3   OH242888   2.551   3.790  13.451 -0.1350  0.4285 -0.4904
 7158TIP3    H142889   2.515   3.807  13.364  0.3380 -1.4001 -1.0868
 7158TIP3    H242890   2.597   3.871  13.474 -0.5655  1.0680 -1.7740
 7159TIP3   OH242891   0.930   0.542  11.297 -0.5563  0.2875  0.5152
 7159TIP3    H142892   0.932   0.467  11.238 -1.0239  0.9214 -0.3192
 7159TIP3    H242893   1.021   0.553  11.324 -0.2400  0.3115 -0.5116
 7160TIP3   OH242894   6.459   5.076  15.940  0.2580 -0.0315  0.3496
 7160TIP3    H142895   6.514   5.110  16.010 -0.2095  0.8605  0.2924
 7160TIP3    H242896   6.405   5.150  15.914  0.0212 -0.5148 -0.5610
 7161TIP3   OH242897   5.404   5.292  13.872 -0.6630 -0.0668  0.1391
 7161TIP3    H142898   5.340   5.321  13.937 -2.3016 -2.2917 -0.3532
 7161TIP3    H242899   5.440   5.211  13.908  2.4259  1.3933  0.6613
 7162TIP3   OH242900   4.618   3.576  12.767  0.0350  0.4048 -0.0833
 7162TIP3    H142901   4.640   3.483  12.768  0.6811  0.5507  0.6729
 7162TIP3    H242902   4.676   3.615  12.701 -0.3013  0.2665 -0.4666
 7163TIP3   OH242903   2.656   6.592  16.374 -0.2620  0.6064 -0.4342
 7163TIP3    H142904   2.562   6.580  16.388  0.3645 -3.4422  1.8846
 7163TIP3    H242905   2.691   6.609  16.461  1.4110 -0.8109 -0.7753
 7164TIP3   OH242906   3.683   2.392   1.060  0.3326  0.6302  0.0941
 7164TIP3    H142907   3.593   2.404   1.091  0.4519  3.2182 -0.3957
 7164TIP3    H242908   3.737   2.393   1.138  0.1214  1.1778  0.2311
 7165TIP3   OH242909   3.280   0.436  11.242  0.2309  0.4067 -0.2840
 7165TIP3    H142910   3.267   0.410  11.151  0.2282 -0.1485 -0.1296
 7165TIP3    H242911   3.193   0.430  11.281  0.6286 -1.9786  0.4100
 7166TIP3   OH242912   2.279   1.272   5.613 -0.1000  0.1043  0.0118
 7166TIP3    H142913   2.328   1.330   5.555 -0.8887  1.5748  0.7304
 7166TIP3    H242914   2.322   1.282   5.698 -1.0713  0.7657  0.4570
 7167TIP3   OH242915   5.428   2.659   1.109 -1.1000  0.2955 -0.5127
 7167TIP3    H142916   5.407   2.753   1.105  0.7115  0.8158  1.0073
 7167TIP3    H242917   5.474   2.648   1.192  2.5109 -1.1442 -2.5181
 7168TIP3   OH242918   6.369   4.852  14.998 -0.2971  0.3436 -0.5349
 7168TIP3    H142919   6.408   4.765  14.990 -1.9174 -0.3733 -1.0571
 7168TIP3    H242920   6.398   4.884  15.083  1.2813 -0.1949 -0.8424
 7169TIP3   OH242921   0.691   1.571  15.270 -0.3212 -0.0933  0.0587
 7169TIP3    H142922   0.759   1.520  15.226 -0.7059 -0.2868 -0.3318
 7169TIP3    H242923   0.618   1.572  15.207 -0.3509  0.8778  0.0920
 7170TIP3   OH242924   3.659   2.798   2.325  0.0202  0.6236  0.4873
 7170TIP3    H142925   3.711   2.718   2.326 -1.3900 -0.3319  0.5442
 7170TIP3    H242926   3.672   2.836   2.238  2.5515  1.6535  1.2136
 7171TIP3   OH242927   4.516   2.895  11.471  0.4768  0.0624  1.0488
 7171TIP3    H142928   4.604   2.860  11.458  0.6003  0.4617  0.7715
 7171TIP3    H242929   4.520   2.942  11.554  0.8267  0.9898  0.5167
 7172TIP3   OH242930   0.958   6.580  13.886 -0.7717  0.6143 -0.2245
 7172TIP3    H142931   0.911   6.654  13.924 -2.1997 -0.7720  0.9054
 7172TIP3    H242932   1.008   6.617  13.814 -0.0530  2.9427  1.3465
 7173TIP3   OH242933   3.749   2.656  14.264 -0.2662 -0.6126  0.0881
 7173TIP3    H142934   3.792   2.727  14.216 -1.2618 -0.6824 -0.9433
 7173TIP3    H242935   3.663   2.649  14.224 -1.7503  0.3064  2.8573
 7174TIP3   OH242936   3.413   4.191  13.373 -0.1886 -0.2068 -0.3791
 7174TIP3    H142937   3.408   4.132  13.297  0.6292 -1.5596  0.5821
 7174TIP3    H242938   3.327   4.185  13.414 -0.4598  0.1225 -0.8785
 7175TIP3   OH242939   3.786   6.094   1.510  0.1559 -0.0202  0.2916
 7175TIP3    H142940   3.804   6.175   1.463 -0.5361 -0.0593 -0.0522
 7175TIP3    H242941   3.719   6.050   1.458  0.5184 -0.8128  0.4776
 7176TIP3   OH242942   5.751   4.783  15.287 -0.1668  0.1118 -0.2013
 7176TIP3    H142943   5.712   4.696  15.297  1.7388 -0.9059 -1.1265
 7176TIP3    H242944   5.759   4.816  15.377  0.4566 -1.3276  0.2971
 7177TIP3   OH242945   6.750   5.792   2.053 -0.2233  0.4928  0.3176
 7177TIP3    H142946   6.679   5.785   2.116 -1.1588  3.8881 -0.1415
 7177TIP3    H242947   6.713   5.843   1.981  2.3239  1.3787 -0.4769
 7178TIP3   OH242948   1.678   2.360  11.042  0.5669  0.3194 -0.3843
 7178TIP3    H142949   1.682   2.268  11.071  1.1568 -0.0469 -1.5556
 7178TIP3    H242950   1.594   2.366  10.996 -0.8073  1.1423  2.0577
 7179TIP3   OH242951   0.720   3.999   1.216  0.0975 -0.4609 -0.3244
 7179TIP3    H142952   0.804   4.001   1.263 -0.2197 -0.5528  0.2582
 7179TIP3    H242953   0.726   3.921   1.160  1.5360  1.0830 -2.4852
 7180TIP3   OH242954   4.861   3.596   4.902  0.1660 -1.0236 -0.3411
 7180TIP3    H142955   4.801   3.668   4.885  2.1134  0.9504  0.6522
 7180TIP3    H242956   4.806   3.518   4.896 -1.6860  0.3060 -3.3593
 7181TIP3   OH242957   6.215   5.708   5.958  0.1048  0.0031  0.1505
 7181TIP3    H142958   6.183   5.617   5.953 -1.9196  0.7076 -0.9958
 7181TIP3    H242959   6.215   5.728   6.052 -0.1001 -0.9678  0.3682
 7182TIP3   OH242960   6.174   2.496  11.641 -0.0806 -0.6498  0.3644
 7182TIP3    H142961   6.091   2.542  11.652 -0.0939 -0.2574 -1.2378
 7182TIP3    H242962   6.152   2.404  11.650 -0.9353 -0.6367 -1.2719
 7183TIP3   OH242963   6.615   3.188   5.085  0.1452 -0.1023 -0.0032
 7183TIP3    H142964   6.615   3.123   5.155 -2.7990  0.1228  0.3176
 7183TIP3    H242965   6.620   3.272   5.131 -0.1547 -0.0060 -0.1423
 7184TIP3   OH242966   3.689   6.446  11.022  0.1344 -0.1279 -0.5139
 7184TIP3    H142967   3.764   6.419  10.970  1.1362 -1.4643  1.5105
 7184TIP3    H242968   3.726   6.485  11.101 -1.1724 -2.2342  1.2660
 7185TIP3   OH242969   5.152   5.064   5.163 -0.2938 -0.1605 -0.0785
 7185TIP3    H142970   5.208   5.141   5.153  1.3483 -1.1446  1.0135
 7185TIP3    H242971   5.079   5.094   5.217  1.3390  0.2120  2.0582
 7186TIP3   OH242972   4.819   5.568   0.388 -0.1576 -0.5938 -0.1264
 7186TIP3    H142973   4.782   5.480   0.401 -0.9680 -0.4518 -1.2997
 7186TIP3    H242974   4.881   5.579   0.460 -1.8219 -1.1658  1.4860
 7187TIP3   OH242975   4.726   4.136   1.936  0.1036  0.1550  0.5607
 7187TIP3    H142976   4.784   4.087   1.994  0.2693 -0.5236 -0.1604
 7187TIP3    H242977   4.748   4.105   1.848 -0.9994  0.2619  0.2376
 7188TIP3   OH242978   2.735   5.323   2.686  0.5371  0.6706 -0.1714
 7188TIP3    H142979   2.654   5.320   2.636 -0.2927 -0.8719  1.1749
 7188TIP3    H242980   2.780   5.401   2.654 -0.3348  0.2289 -2.6400
 7189TIP3   OH242981   2.716   4.778   5.466  0.0140  0.2049  0.4027
 7189TIP3    H142982   2.667   4.728   5.401  2.8713 -1.8058 -0.3717
 7189TIP3    H242983   2.688   4.741   5.550  1.2849 -2.0594 -0.1096
 7190TIP3   OH242984   2.204   4.912   4.331  0.1627 -0.2806 -0.5081
 7190TIP3    H142985   2.274   4.915   4.266  0.1365 -1.0376 -0.5762
 7190TIP3    H242986   2.243   4.871   4.408  0.3634  1.1362  0.1881
 7191TIP3   OH242987   4.621   6.082   4.411  0.6247  0.2378  0.2804
 7191TIP3    H142988   4.568   6.131   4.474 -0.3146  1.4473 -1.3694
 7191TIP3    H242989   4.675   6.149   4.368  0.7938 -0.4733 -0.6324
 7192TIP3   OH242990   1.927   1.684  13.908 -0.4902  0.0339  0.3536
 7192TIP3    H142991   1.982   1.716  13.980  0.4867 -1.1003  0.1406
 7192TIP3    H242992   1.976   1.704  13.829 -2.1910  2.5755 -0.2003
 7193TIP3   OH242993   4.941   1.423  10.347  0.1731  0.6062  0.1931
 7193TIP3    H142994   5.030   1.425  10.383  0.3458  1.2562 -0.2631
 7193TIP3    H242995   4.906   1.339  10.376  1.1843  0.0239 -0.2241
 7194TIP3   OH242996   1.927   3.908  12.260  0.3879 -0.0111  0.2632
 7194TIP3    H142997   1.878   3.961  12.323 -0.5901 -1.4619  0.8024
 7194TIP3    H242998   1.969   3.971  12.202 -0.8155  1.3267  0.7894
 7195TIP3   OH242999   4.914   5.406  14.210 -0.5194  0.1549 -0.3611
 7195TIP3    H143000   4.859   5.327  14.214 -0.5456  0.0292 -2.3462
 7195TIP3    H243001   4.944   5.410  14.119  1.4422  1.1391  0.2789
 7196TIP3   OH243002   6.254   2.843   1.501 -0.1401 -0.3911  0.0187
 7196TIP3    H143003   6.253   2.809   1.590 -0.3050 -0.1838  0.0948
 7196TIP3    H243004   6.168   2.820   1.466 -0.6868  0.9534  0.4441
 7197TIP3   OH243005   0.536   2.574   1.253  0.3892 -0.1235  0.3900
 7197TIP3    H143006   0.587   2.653   1.270 -1.2858  1.1545 -0.1825
 7197TIP3    H243007   0.590   2.523   1.193  1.9315  0.0860  1.5356
 7198TIP3   OH243008   4.400   0.109  11.736 -0.0110 -0.6147 -0.7243
 7198TIP3    H143009   4.446   0.162  11.801 -0.8547  1.1289 -1.4845
 7198TIP3    H243010   4.456   0.111  11.659 -1.2027  1.4825 -1.6401
 7199TIP3   OH243011   2.437   0.121  13.264  0.0595 -0.2935 -0.5025
 7199TIP3    H143012   2.517   0.129  13.212 -0.0016 -0.3137 -0.6002
 7199TIP3    H243013   2.451   0.179  13.339 -0.3725  0.7697 -1.2032
 7200TIP3   OH243014   0.429   2.534  15.034  0.4418 -0.2793  0.5535
 7200TIP3    H143015   0.343   2.569  15.056  0.5873  0.3289  0.1578
 7200TIP3    H243016   0.477   2.534  15.117  0.1015 -0.5313  0.7546
 7201TIP3   OH243017   5.567   0.917  14.359 -0.0865 -0.2761  0.2738
 7201TIP3    H143018   5.546   0.926  14.266  0.9546 -1.6801 -0.1273
 7201TIP3    H243019   5.491   0.873  14.397 -1.5483  2.3069  0.6196
 7202TIP3   OH243020   0.416   1.144   4.897  0.1260  0.1491  0.7346
 7202TIP3    H143021   0.397   1.053   4.921  1.7278 -0.7172 -1.0571
 7202TIP3    H243022   0.364   1.159   4.818  1.4749  0.0465 -0.2015
 7203TIP3   OH243023   6.156   4.904   6.437  0.0586  0.1822 -0.5394
 7203TIP3    H143024   6.077   4.857   6.412 -1.6179  2.3057  0.3902
 7203TIP3    H243025   6.125   4.975   6.494  2.7915  0.2990  0.9892
 7204TIP3   OH243026   1.624   4.693  15.805 -0.0450 -0.8417 -0.1636
 7204TIP3    H143027   1.686   4.745  15.856 -0.8991 -0.4711  0.5243
 7204TIP3    H243028   1.632   4.726  15.716 -0.0659 -0.0095  0.1313
 7205TIP3   OH243029   1.095   3.753  13.114  0.1740 -0.4566 -0.0505
 7205TIP3    H143030   1.099   3.689  13.186  0.4608  0.2413  0.5688
 7205TIP3    H243031   1.040   3.711  13.048  0.5257 -1.4364  0.2532
 7206TIP3   OH243032   5.297   6.646  11.811  0.4264 -0.8913 -0.1729
 7206TIP3    H143033   5.246   6.670  11.733  2.5360  0.9310 -1.1097
 7206TIP3    H243034   5.332   6.560  11.790  0.8888 -0.4664 -1.2226
 7207TIP3   OH243035   5.599   4.258   3.818 -0.1884  0.1753 -0.3122
 7207TIP3    H143036   5.531   4.267   3.751 -0.4920 -0.1056 -0.0480
 7207TIP3    H243037   5.675   4.224   3.770 -0.0077  1.1648 -0.7391
 7208TIP3   OH243038   1.851   0.388   4.545 -0.5019 -0.4787 -0.4900
 7208TIP3    H143039   1.815   0.433   4.622  1.6313 -0.2318  0.4352
 7208TIP3    H243040   1.939   0.361   4.572  0.5635  0.1464 -3.0445
 7209TIP3   OH243041   6.157   1.459   5.139  0.4095 -0.1102 -0.1112
 7209TIP3    H143042   6.117   1.527   5.193  1.6244 -0.4872  1.3197
 7209TIP3    H243043   6.109   1.379   5.161 -2.2568  0.4498 -3.1188
 7210TIP3   OH243044   6.067   4.726   1.061 -0.0805  0.0442 -0.2920
 7210TIP3    H143045   6.043   4.704   0.971 -1.9110 -0.4170  0.2834
 7210TIP3    H243046   6.085   4.642   1.102  0.9567  0.2687 -0.2605
 7211TIP3   OH243047   2.697   4.772  13.515  1.0011  0.3750 -0.5990
 7211TIP3    H143048   2.683   4.751  13.423  0.8989  1.9925 -0.9770
 7211TIP3    H243049   2.610   4.765  13.555  1.1876 -1.2074 -0.4035
 7212TIP3   OH243050   6.644   2.479   2.943  0.3145  0.0693 -0.0153
 7212TIP3    H143051   6.590   2.558   2.930 -0.0961 -0.2079 -0.0163
 7212TIP3    H243052   6.734   2.511   2.938  0.1542  0.4520 -0.5641
 7213TIP3   OH243053   1.599   1.176  12.887 -0.1305  0.5119 -0.1061
 7213TIP3    H143054   1.680   1.178  12.937 -0.3677  0.7213  0.2826
 7213TIP3    H243055   1.598   1.090  12.845 -0.5144 -0.1735  1.2595
 7214TIP3   OH243056   5.090   4.444  12.026  0.6715 -0.4105  0.8844
 7214TIP3    H143057   5.176   4.424  12.062 -0.2761 -1.3746  2.7403
 7214TIP3    H243058   5.070   4.532  12.056 -0.2882 -1.3567  3.2533
 7215TIP3   OH243059   0.032   3.344   2.020  0.1958 -0.5294  0.0713
 7215TIP3    H143060  -0.018   3.306   1.948  1.6505 -1.4183 -0.5161
 7215TIP3    H243061   0.025   3.438   2.007  0.1853 -0.6703 -1.0752
 7216TIP3   OH243062   5.165   3.211   4.886 -0.1435 -0.1447 -0.7422
 7216TIP3    H143063   5.260   3.195   4.886  0.0042  0.6921 -0.9073
 7216TIP3    H243064   5.157   3.306   4.883 -0.9923 -0.1996 -0.4429
 7217TIP3   OH243065   2.223   0.261  14.947  0.7789 -0.2397 -0.1351
 7217TIP3    H143066   2.264   0.298  14.869  1.1065 -0.1030  0.1054
 7217TIP3    H243067   2.169   0.332  14.981 -0.7294 -0.8155 -1.2026
 7218TIP3   OH243068   5.283   6.516   4.242 -0.1296 -0.1084  0.0838
 7218TIP3    H143069   5.288   6.525   4.337  1.5197 -1.8021  0.2110
 7218TIP3    H243070   5.216   6.449   4.227  1.4271 -1.7586  0.2412
 7219TIP3   OH243071   4.258   0.584   2.966  0.4270 -0.1268  0.5647
 7219TIP3    H143072   4.196   0.538   3.023 -0.3760  0.5048  0.2176
 7219TIP3    H243073   4.226   0.566   2.877  0.4383  0.6326  0.4041
 7220TIP3   OH243074   6.712   1.715   6.209  0.3224 -0.1896  0.5808
 7220TIP3    H143075   6.806   1.736   6.210  0.2161  0.3184  0.1926
 7220TIP3    H243076   6.709   1.620   6.204  0.8196 -0.2495  1.2422
 7221TIP3   OH243077   2.048   3.671   5.618 -0.3576 -0.0806 -0.1047
 7221TIP3    H143078   2.058   3.630   5.704  1.5536  2.1615  0.8827
 7221TIP3    H243079   1.993   3.748   5.634  0.2281  0.5048 -0.7818
 7222TIP3   OH243080   4.819   0.116   1.165  0.0401  0.1057 -0.0672
 7222TIP3    H143081   4.732   0.149   1.186  0.2661  0.5788  0.1200
 7222TIP3    H243082   4.869   0.193   1.138  1.0015  0.1805  1.7801
 7223TIP3   OH243083   1.387   0.031   0.179  0.0662  0.2509 -0.4261
 7223TIP3    H143084   1.458   0.039   0.241  0.0482 -1.7254 -0.1139
 7223TIP3    H243085   1.415  -0.037   0.117 -0.4080  1.3432 -1.9184
 7224TIP3   OH243086   3.552   4.010  16.113 -0.1885 -0.2606 -0.8145
 7224TIP3    H143087   3.594   4.053  16.187 -0.0923  2.6480 -2.4236
 7224TIP3    H243088   3.459   4.006  16.137 -0.4501  2.2624 -1.1365
 7225TIP3   OH243089   3.133   2.240   4.754 -0.1622 -0.0833  0.5308
 7225TIP3    H143090   3.049   2.242   4.801 -2.0720 -0.5466 -2.5510
 7225TIP3    H243091   3.150   2.331   4.730 -0.4113 -0.1327  0.1623
 7226TIP3   OH243092   4.167   6.310   2.548  0.2120  0.2664 -0.1380
 7226TIP3    H143093   4.152   6.296   2.642 -0.3640 -1.6180 -0.4685
 7226TIP3    H243094   4.118   6.390   2.528  0.7058  0.9559  1.2229
 7227TIP3   OH243095   4.912   5.125   4.392  0.7170 -0.5013 -0.0282
 7227TIP3    H143096   4.961   5.203   4.366 -0.8615  0.3987 -0.4151
 7227TIP3    H243097   4.848   5.112   4.322  1.7360 -2.9138 -0.6128
 7228TIP3   OH243098   6.031   2.418  11.263  0.2923 -0.0664 -0.4204
 7228TIP3    H143099   6.057   2.508  11.281  0.2775 -0.3255  1.0608
 7228TIP3    H243100   5.935   2.422  11.255 -0.0316 -0.2871  2.3388
 7229TIP3   OH243101   6.486   3.305  14.733  0.5578 -0.2377 -0.1088
 7229TIP3    H143102   6.543   3.362  14.681  0.2002 -1.5635 -2.0367
 7229TIP3    H243103   6.400   3.311  14.692 -0.2993  0.2679  1.6284
 7230TIP3   OH243104   1.310   0.581  11.938  0.4535  0.7254 -0.7246
 7230TIP3    H143105   1.393   0.571  11.983  0.0264  0.5618  0.0500
 7230TIP3    H243106   1.286   0.673  11.952 -0.0868  0.4666  0.1293
 7231TIP3   OH243107   5.757   2.070   2.402 -0.0561  0.0205 -0.0744
 7231TIP3    H143108   5.806   2.021   2.468  0.3122  0.5619  0.0621
 7231TIP3    H243109   5.738   2.007   2.333 -1.7672 -0.9780  1.2079
 7232TIP3   OH243110   2.805   4.063  16.434  0.2103 -0.2375 -0.0299
 7232TIP3    H143111   2.740   4.022  16.492  0.2182  0.2711  0.3442
 7232TIP3    H243112   2.830   4.144  16.479 -1.8783  1.6651 -2.0324
 7233TIP3   OH243113   4.790   3.842  14.726 -0.1642 -0.2731 -0.5069
 7233TIP3    H143114   4.751   3.929  14.717 -1.0635 -0.8292 -2.5078
 7233TIP3    H243115   4.715   3.782  14.734  0.4195 -0.9607  0.0444
 7234TIP3   OH243116   3.495   0.125   2.217 -0.1766 -1.1027  0.1974
 7234TIP3    H143117   3.524   0.192   2.278 -1.9994 -0.8734  0.8705
 7234TIP3    H243118   3.572   0.105   2.164  0.2086  2.1509 -0.6391
 7235TIP3   OH243119   0.308   0.306   5.479  0.1936  0.4661  0.2034
 7235TIP3    H143120   0.332   0.215   5.497 -3.2250 -0.6676 -0.2378
 7235TIP3    H243121   0.289   0.343   5.565 -1.3260 -0.2207  0.1892
 7236TIP3   OH243122   6.257   5.463  11.302  0.0209 -0.1027  0.3161
 7236TIP3    H143123   6.187   5.519  11.270  1.5496  1.4415 -0.5446
 7236TIP3    H243124   6.270   5.398  11.233  1.8857  1.9304 -1.4117
 7237TIP3   OH243125   0.495   6.130   5.889  0.2118 -0.8224 -0.1447
 7237TIP3    H143126   0.512   6.099   5.977  0.6266  0.2907  0.1849
 7237TIP3    H243127   0.578   6.169   5.861 -0.8686  2.1098  0.3957
 7238TIP3   OH243128   5.008   5.378  11.999  0.1417  0.4988  0.1296
 7238TIP3    H143129   4.953   5.451  12.026 -0.6765 -0.5255  1.3486
 7238TIP3    H243130   5.012   5.384  11.903 -3.4790 -0.3107 -0.2006
 7239TIP3   OH243131   0.458   3.829  12.396  0.3998 -0.1487  0.2301
 7239TIP3    H143132   0.455   3.828  12.300 -3.5054  0.7702  0.1730
 7239TIP3    H243133   0.424   3.743  12.422  0.2642  0.0568  0.7497
 7240TIP3   OH243134   4.648   2.798   6.433  0.1886 -0.6185  0.5157
 7240TIP3    H143135   4.621   2.761   6.349  0.1853 -0.8718  0.6254
 7240TIP3    H243136   4.624   2.890   6.429  1.0900 -0.4040 -0.1554
 7241TIP3   OH243137   6.618   5.952  16.512 -0.3531 -0.2490 -0.3500
 7241TIP3    H143138   6.682   5.896  16.468  0.8170  0.9827 -0.3028
 7241TIP3    H243139   6.565   5.892  16.564  1.5093 -1.2150  0.5287
 7242TIP3   OH243140   4.923   5.157   2.402 -0.3924  0.3435 -0.0489
 7242TIP3    H143141   4.899   5.066   2.384  1.4449 -0.6126  1.9456
 7242TIP3    H243142   4.969   5.186   2.323 -1.2880 -0.3246 -0.8308
 7243TIP3   OH243143   5.374   1.314   2.031  0.5674 -0.1098 -0.2898
 7243TIP3    H143144   5.320   1.378   2.078 -0.8282 -3.0650  2.4626
 7243TIP3    H243145   5.319   1.284   1.959  1.2049  1.5838 -1.5612
 7244TIP3   OH243146   1.198   6.379  12.066 -0.0243 -0.2781 -0.2985
 7244TIP3    H143147   1.139   6.397  12.138 -0.3232 -0.3750 -0.5180
 7244TIP3    H243148   1.198   6.460  12.014  0.1397 -0.2316 -0.2294
 7245TIP3   OH243149   5.004   2.514  11.710  0.3049  0.4856 -0.2102
 7245TIP3    H143150   5.022   2.579  11.777  2.5533  0.8989 -1.0982
 7245TIP3    H243151   5.040   2.432  11.745  0.9143  0.5706 -0.6079
 7246TIP3   OH243152   3.616   1.287   2.827 -0.1971  0.2255  0.3380
 7246TIP3    H143153   3.521   1.299   2.829 -0.3236 -0.6070 -0.0683
 7246TIP3    H243154   3.651   1.372   2.852 -1.0483  0.5526  0.4765
 7247TIP3   OH243155   2.840   0.548   0.301  0.1106 -0.2310  0.2527
 7247TIP3    H143156   2.876   0.631   0.269  1.0357 -0.9029 -0.4790
 7247TIP3    H243157   2.909   0.484   0.287 -0.9954 -1.3607 -0.2384
 7248TIP3   OH243158   2.670   5.997   4.859  0.0684  0.3404  0.3017
 7248TIP3    H143159   2.668   6.034   4.947 -0.2988  2.5796 -0.5844
 7248TIP3    H243160   2.592   5.943   4.854  0.0053  0.3241  1.2902
 7249TIP3   OH243161   1.399   4.566  13.795  0.2758 -0.2431  0.0856
 7249TIP3    H143162   1.418   4.606  13.710  0.1867 -0.4250 -0.0207
 7249TIP3    H243163   1.467   4.500  13.807  2.1348  1.7685  1.5138
 7250TIP3   OH243164   1.174   5.264  15.138  0.0778  0.2579 -0.1540
 7250TIP3    H143165   1.097   5.210  15.121 -1.1860  1.6626  0.8806
 7250TIP3    H243166   1.216   5.273  15.052 -0.2521 -1.4429 -0.5338
 7251TIP3   OH243167   2.372   5.501  10.928  0.2992 -0.2217  0.0822
 7251TIP3    H143168   2.283   5.537  10.933 -0.2383 -1.5626  0.8098
 7251TIP3    H243169   2.414   5.549  10.857 -1.2629 -0.1099 -0.7983
 7252TIP3   OH243170   2.666   6.285   0.162 -0.8614 -0.1435 -0.1642
 7252TIP3    H143171   2.646   6.244   0.078 -1.1827 -0.8786  0.2534
 7252TIP3    H243172   2.691   6.374   0.141 -0.4362 -0.4714 -1.0855
 7253TIP3   OH243173   5.781   5.878  17.019 -0.6186 -0.8872  0.7147
 7253TIP3    H143174   5.733   5.870  17.101 -0.7772 -1.3369  0.5799
 7253TIP3    H243175   5.853   5.938  17.039 -0.2983 -1.4746  1.3451
 7254TIP3   OH243176   3.886   6.686   0.134 -0.6003 -0.4189 -0.6627
 7254TIP3    H143177   3.938   6.742   0.191 -1.4373  0.0690 -0.3657
 7254TIP3    H243178   3.850   6.745   0.068  0.0924 -0.9289 -1.5156
 7255TIP3   OH243179   6.570   6.059   5.803 -0.3481 -0.3538 -0.0053
 7255TIP3    H143180   6.481   6.094   5.803  0.1930  1.1156  0.6975
 7255TIP3    H243181   6.568   5.988   5.868 -1.5326 -1.8977 -1.6626
 7256TIP3   OH243182   5.669   0.960  12.105  0.5586  0.2659  0.5294
 7256TIP3    H143183   5.606   1.006  12.050 -0.6272 -1.1279  0.6864
 7256TIP3    H243184   5.727   1.029  12.137 -0.2510  1.4395 -0.4354
 7257TIP3   OH243185   1.983   5.543  15.908 -0.1023  0.0887  0.4469
 7257TIP3    H143186   1.949   5.497  15.985 -0.4421  0.4088  0.4894
 7257TIP3    H243187   1.985   5.476  15.840 -0.6342  0.0110  0.4999
 7258TIP3   OH243188   1.536   1.123  16.748  0.8261 -0.7835  0.2915
 7258TIP3    H143189   1.629   1.117  16.772  0.7593 -2.4386  0.2092
 7258TIP3    H243190   1.508   1.032  16.736 -0.4949 -0.2616 -0.8971
 7259TIP3   OH243191   2.564   4.746  15.492 -0.1661 -0.7219  0.2793
 7259TIP3    H143192   2.562   4.829  15.444 -1.1216 -1.2933 -0.7403
 7259TIP3    H243193   2.472   4.726  15.508  0.1057 -1.0724  1.4381
 7260TIP3   OH243194   6.018   1.052  15.868 -0.6466 -0.4686  0.1212
 7260TIP3    H143195   5.961   1.127  15.885  0.1323  0.0885  0.3337
 7260TIP3    H243196   6.047   1.063  15.778 -1.9025 -1.4712 -0.4429
 7261TIP3   OH243197   4.995   0.127  15.905  0.0370  0.0453 -0.1803
 7261TIP3    H143198   4.903   0.102  15.914  0.3363 -2.2950 -2.3243
 7261TIP3    H243199   4.993   0.221  15.886 -1.7654  0.3293  1.2002
 7262TIP3   OH243200   2.844   1.389   4.169  0.0711  0.4216  0.4051
 7262TIP3    H143201   2.889   1.357   4.247 -0.8349 -1.7163  0.1537
 7262TIP3    H243202   2.910   1.385   4.100 -0.2257 -2.1391  0.1561
 7263TIP3   OH243203   2.802   2.712   4.139 -0.0967 -0.1407  0.0318
 7263TIP3    H143204   2.835   2.641   4.195 -0.0341 -0.1389 -0.0030
 7263TIP3    H243205   2.860   2.786   4.158  0.5970 -0.4521 -0.8284
 7264TIP3   OH243206   6.681   1.194  13.067 -0.5151  0.5024  0.2571
 7264TIP3    H143207   6.765   1.234  13.044 -0.6811  0.7052  0.0033
 7264TIP3    H243208   6.667   1.128  13.000 -1.0812  1.2101 -0.3273
 7265TIP3   OH243209   6.179   2.154   5.350 -0.6522  0.0765  0.2027
 7265TIP3    H143210   6.121   2.223   5.381 -0.8767 -0.2563  0.5268
 7265TIP3    H243211   6.156   2.144   5.257  1.9986  3.1009 -0.9791
 7266TIP3   OH243212   1.978   4.497  12.559  0.3850  0.8505 -0.6748
 7266TIP3    H143213   1.962   4.591  12.555 -0.5257  0.6973 -0.7916
 7266TIP3    H243214   2.042   4.486  12.629 -1.3001  1.3478  1.0232
 7267TIP3   OH243215   2.301   4.538  11.722 -0.3288  0.1821 -0.1786
 7267TIP3    H143216   2.239   4.512  11.790 -0.5822  0.8609 -0.1430
 7267TIP3    H243217   2.287   4.632  11.711  0.9641  0.4309  0.1073
 7268TIP3   OH243218   2.108   6.257   5.388  0.0066 -0.4806  0.0539
 7268TIP3    H143219   2.168   6.259   5.462 -0.1309 -0.2847  0.1615
 7268TIP3    H243220   2.030   6.303   5.419  0.6777  1.3823 -0.8381
 7269TIP3   OH243221   3.009   3.937   3.431  0.1488  0.5834 -0.3729
 7269TIP3    H143222   2.977   3.949   3.342  0.1623  1.0124 -0.3247
 7269TIP3    H243223   2.942   3.977   3.486 -0.3573 -0.5815 -0.1135
 7270TIP3   OH243224   4.023   0.439  12.143 -0.1909  0.3012 -0.2300
 7270TIP3    H143225   4.074   0.404  12.216  0.2031 -5.2080 -2.6105
 7270TIP3    H243226   3.944   0.476  12.183  1.8411  1.4394  3.0496
 7271TIP3   OH243227   1.384   2.392   0.251 -0.6904  0.2611  0.0689
 7271TIP3    H143228   1.468   2.434   0.229  0.0802 -1.1052  0.3195
 7271TIP3    H243229   1.319   2.446   0.206  0.5689 -0.8207 -3.3839
 7272TIP3   OH243230   6.113   4.936   1.200  0.7931 -0.1462  0.4649
 7272TIP3    H143231   6.075   4.933   1.287  0.0854 -0.4216  0.1580
 7272TIP3    H243232   6.088   4.852   1.160  1.9773 -0.4653  0.3510
 7273TIP3   OH243233   3.746   3.017  14.954  0.3927  0.4322 -0.1661
 7273TIP3    H143234   3.662   3.014  14.907  0.3324  0.2168 -0.0518
 7273TIP3    H243235   3.721   3.030  15.046  0.3504 -1.5683  0.1687
 7274TIP3   OH243236   3.979   0.195  11.143  0.1540 -0.2900  0.4528
 7274TIP3    H143237   3.918   0.210  11.071  0.6008  0.0738  0.1424
 7274TIP3    H243238   3.924   0.187  11.220 -0.2386  0.8738  0.3084
 7275TIP3   OH243239   2.801   2.835   5.283 -0.2707  0.0270  0.2784
 7275TIP3    H143240   2.748   2.777   5.337 -1.3166  2.3792  1.9732
 7275TIP3    H243241   2.889   2.828   5.320  0.3564 -2.5973 -1.4499
 7276TIP3   OH243242   0.137   3.925   6.112 -0.0093 -0.6881  1.2059
 7276TIP3    H143243   0.215   3.980   6.106 -0.6271  0.0543 -1.2966
 7276TIP3    H243244   0.072   3.979   6.156 -0.0819 -0.0200  0.3059
 7277TIP3   OH243245   4.621   1.249  14.152  0.2245  0.0909 -0.2072
 7277TIP3    H143246   4.566   1.178  14.187  2.1154 -0.9133  0.8894
 7277TIP3    H243247   4.621   1.235  14.057 -1.0179 -0.1384 -0.1988
 7278TIP3   OH243248   1.159   0.748  14.085  0.1970 -0.3643  0.3394
 7278TIP3    H143249   1.214   0.823  14.107 -1.0344  0.6673  0.0374
 7278TIP3    H243250   1.146   0.755  13.990  0.4549 -1.2447  0.2299
 7279TIP3   OH243251   4.296   2.365  14.958  0.1504  0.2277 -0.0390
 7279TIP3    H143252   4.335   2.320  15.033 -0.1565  1.0558  0.6321
 7279TIP3    H243253   4.216   2.405  14.993 -1.8908 -2.2085 -1.5515
 7280TIP3   OH243254   0.839   2.292  17.059 -0.1730 -0.0834  0.5267
 7280TIP3    H143255   0.920   2.319  17.102  0.8201 -0.4508 -1.0715
 7280TIP3    H243256   0.804   2.222  17.115  1.1055 -0.5774  0.7345
 7281TIP3   OH243257   4.355   6.225  14.857  0.1042 -0.4748 -0.2255
 7281TIP3    H143258   4.432   6.238  14.802 -1.1284  0.3660 -1.8404
 7281TIP3    H243259   4.318   6.141  14.828  0.1852 -0.6763  0.2510
 7282TIP3   OH243260   0.555   5.660  13.614  0.1735  0.3616  0.2910
 7282TIP3    H143261   0.568   5.738  13.560 -1.3530  0.6564  0.3136
 7282TIP3    H243262   0.565   5.691  13.704 -0.4044  0.5267  0.2982
 7283TIP3   OH243263   1.720   1.341  16.978 -0.4069  0.4966 -0.2399
 7283TIP3    H143264   1.799   1.381  17.014 -0.2429 -0.8305  0.9492
 7283TIP3    H243265   1.752   1.285  16.907 -0.6125  2.1827 -1.7354
 7284TIP3   OH243266   4.955   5.720   4.747 -0.0778 -0.2745  0.4063
 7284TIP3    H143267   4.990   5.773   4.819  1.3038  0.1381 -0.5225
 7284TIP3    H243268   4.964   5.630   4.778  1.1686 -0.1400  0.4996
 7285TIP3   OH243269   5.725   3.567  16.849  0.4591 -0.4891  0.0970
 7285TIP3    H143270   5.779   3.511  16.793 -0.2358  0.3517 -1.4371
 7285TIP3    H243271   5.638   3.564  16.810 -0.6281 -1.6020  2.3745
 7286TIP3   OH243272   3.026   1.803   2.343  0.3564 -0.1797  0.3300
 7286TIP3    H143273   3.050   1.721   2.301  1.2492  0.7341 -1.0384
 7286TIP3    H243274   3.090   1.814   2.414  1.5627  0.3094 -0.7934
 7287TIP3   OH243275   5.010   3.569   0.196  0.0542 -0.6046  0.0270
 7287TIP3    H143276   5.102   3.558   0.220  0.3843  0.8279 -0.4955
 7287TIP3    H243277   4.962   3.516   0.260  1.2475 -1.7446  0.0247
 7288TIP3   OH243278   5.773   1.943   0.704 -0.2402  0.0805 -0.5715
 7288TIP3    H143279   5.681   1.922   0.717 -0.2322  1.3476  2.3710
 7288TIP3    H243280   5.815   1.923   0.788  1.5026  2.5676 -0.7270
 7289TIP3   OH243281   4.920   4.536  13.671  0.0995 -0.3689 -0.0570
 7289TIP3    H143282   4.861   4.599  13.713 -0.5775 -0.5190 -0.7628
 7289TIP3    H243283   5.007   4.575  13.680 -0.3228  0.7508 -0.6137
 7290TIP3   OH243284   3.373   4.147  11.260  0.2365  0.7461 -0.6002
 7290TIP3    H143285   3.399   4.207  11.190  0.2270 -1.2207 -2.4080
 7290TIP3    H243286   3.284   4.120  11.237 -0.5825  1.5967  1.3428
 7291TIP3   OH243287   0.371   3.419  16.347 -0.7726  0.1079 -0.1206
 7291TIP3    H143288   0.275   3.427  16.341 -0.9087 -0.0137  1.5724
 7291TIP3    H243289   0.385   3.353  16.415  0.5221 -1.8095 -2.0940
 7292TIP3   OH243290   4.070   4.272   4.294  0.0966  0.6619 -0.0459
 7292TIP3    H143291   4.091   4.356   4.335  0.8418 -0.5036  2.1206
 7292TIP3    H243292   4.088   4.207   4.362  0.1543 -1.3275 -1.8595
 7293TIP3   OH243293   3.652   0.844   2.986  0.2057 -0.0292  0.0497
 7293TIP3    H143294   3.672   0.793   3.064 -0.6373  0.0046  0.2979
 7293TIP3    H243295   3.619   0.780   2.923  2.7747 -0.3890 -1.0258
 7294TIP3   OH243296   2.181   2.616  13.823 -0.1795  0.2049 -0.4846
 7294TIP3    H143297   2.093   2.640  13.796 -0.7472 -1.3413 -0.1246
 7294TIP3    H243298   2.198   2.533  13.778 -0.4805 -1.5375  2.3515
 7295TIP3   OH243299   1.543   2.540   3.279  0.0559  0.3403  0.5020
 7295TIP3    H143300   1.500   2.597   3.343  1.8806 -0.3098  2.4301
 7295TIP3    H243301   1.532   2.452   3.315 -1.0349 -0.3732 -1.4341
 7296TIP3   OH243302   0.242   1.523   1.193 -0.0304  0.9128 -0.0787
 7296TIP3    H143303   0.159   1.565   1.171  0.2045  0.8968 -1.0544
 7296TIP3    H243304   0.290   1.519   1.110 -0.0205 -1.2447 -0.0436
 7297TIP3   OH243305   1.382   3.069   1.469  0.4753  0.1784 -0.4010
 7297TIP3    H143306   1.306   3.011   1.460  0.4582  0.0538  0.5092
 7297TIP3    H243307   1.378   3.125   1.391 -1.2830  1.0345  0.2642
 7298TIP3   OH243308   1.850   2.633  16.609 -0.2720  0.2458  0.0694
 7298TIP3    H143309   1.826   2.637  16.702  2.9181  1.8498  0.9857
 7298TIP3    H243310   1.809   2.710  16.570 -0.8020  0.1213  0.3716
 7299TIP3   OH243311   1.270   5.445  12.942  0.0674  0.3093  0.2817
 7299TIP3    H143312   1.286   5.534  12.975  0.2957  1.3475 -2.4179
 7299TIP3    H243313   1.201   5.456  12.877  0.2751 -1.4856 -0.2795
 7300TIP3   OH243314   6.358   2.449  13.194 -0.2443 -0.1132 -0.5038
 7300TIP3    H143315   6.331   2.531  13.235 -1.2644  0.0087 -1.3833
 7300TIP3    H243316   6.306   2.444  13.114 -0.5208 -1.8319 -0.2469
 7301TIP3   OH243317   4.185   2.880   1.909 -0.3399  0.2696 -0.2327
 7301TIP3    H143318   4.125   2.925   1.849  0.2749  1.1638 -0.1986
 7301TIP3    H243319   4.143   2.797   1.927 -0.6736  0.0859 -1.7061
 7302TIP3   OH243320   3.834   1.402  12.855 -0.0785 -0.4187  0.0604
 7302TIP3    H143321   3.749   1.442  12.836  0.5574  0.7747 -0.3662
 7302TIP3    H243322   3.847   1.417  12.949 -0.4624 -0.8512  0.1839
 7303TIP3   OH243323   4.594   6.746   1.983  0.2580 -0.0027 -0.1857
 7303TIP3    H143324   4.557   6.806   2.048  0.5339  0.5167 -0.4976
 7303TIP3    H243325   4.564   6.659   2.010 -0.0847  0.2677  0.3171
 7304TIP3   OH243326   4.369   5.266   5.860 -0.0368  0.3809  0.0396
 7304TIP3    H143327   4.388   5.187   5.912 -0.2908  0.7946  0.7780
 7304TIP3    H243328   4.275   5.263   5.845  0.0524  0.2104 -0.4887
 7305TIP3   OH243329   3.815   5.292   0.228 -0.0366  0.0099 -0.2393
 7305TIP3    H143330   3.820   5.244   0.311 -0.3092  0.2955 -0.0582
 7305TIP3    H243331   3.780   5.228   0.166 -1.4325  0.2677  0.2417
 7306TIP3   OH243332   2.188   1.454  11.900 -0.0983 -0.3063  0.7925
 7306TIP3    H143333   2.194   1.493  11.987  2.7253 -0.4632  0.7670
 7306TIP3    H243334   2.142   1.519  11.847  0.4925  0.9701  1.7966
 7307TIP3   OH243335   5.420   4.912  12.644 -0.0083 -0.2363  0.2739
 7307TIP3    H143336   5.358   4.881  12.579 -0.3129 -0.4984  0.6830
 7307TIP3    H243337   5.386   4.998  12.669  0.6984  0.3339 -0.6800
 7308TIP3   OH243338   5.410   1.321   1.443  0.2802 -0.1998 -0.2034
 7308TIP3    H143339   5.445   1.409   1.458 -1.8256  0.6605  0.0182
 7308TIP3    H243340   5.454   1.266   1.508 -0.1894  1.2100  1.3753
 7309TIP3   OH243341   6.459   6.141  14.070 -0.0299  0.1846  1.3260
 7309TIP3    H143342   6.445   6.145  13.975  1.3893 -0.1440  1.0865
 7309TIP3    H243343   6.404   6.211  14.105 -1.2869 -0.2642  0.3648
 7310TIP3   OH243344   3.484   3.386   1.047 -0.4373 -0.9902 -0.3905
 7310TIP3    H143345   3.432   3.345   1.115  0.0500 -1.2937 -0.1931
 7310TIP3    H243346   3.447   3.353   0.965 -0.4711 -1.3042 -0.2493
 7311TIP3   OH243347   6.513   1.702   3.582 -0.1579  0.4326 -0.2082
 7311TIP3    H143348   6.458   1.764   3.534  1.1069  1.2633 -0.6193
 7311TIP3    H243349   6.577   1.672   3.517  0.1157 -0.2256  0.3604
 7312TIP3   OH243350   6.613   1.200   1.168  0.5744 -0.4197 -0.5637
 7312TIP3    H143351   6.647   1.160   1.248 -1.0406 -0.1561  0.3116
 7312TIP3    H243352   6.590   1.289   1.194  2.3298  0.5118 -1.9991
 7313TIP3   OH243353   4.528   4.955   1.365  0.2192 -0.1992  0.0588
 7313TIP3    H143354   4.497   5.025   1.422 -1.9175  0.2202 -1.5079
 7313TIP3    H243355   4.544   4.997   1.280 -2.3666 -1.6967 -1.3091
 7314TIP3   OH243356   6.710   1.009  14.319  1.3141  1.2643 -0.6557
 7314TIP3    H143357   6.797   0.976  14.297  0.4427 -1.6808 -0.2166
 7314TIP3    H243358   6.654   0.976  14.248  0.0063 -0.2473  0.9935
 7315TIP3   OH243359   0.459   1.669  11.930  0.4101  0.5332  0.8346
 7315TIP3    H143360   0.527   1.686  11.864 -0.8876 -1.3918 -1.1373
 7315TIP3    H243361   0.496   1.599  11.984  0.4519  0.2729  0.4745
 7316TIP3   OH243362   1.997   3.985   0.571  0.3110 -0.0247 -0.5200
 7316TIP3    H143363   1.933   3.958   0.504 -0.2097  0.2739 -0.1530
 7316TIP3    H243364   1.964   3.947   0.652  0.9655 -0.4182 -0.4372
 7317TIP3   OH243365   5.978   4.133  15.254  0.0315 -0.3745  0.1266
 7317TIP3    H143366   6.027   4.062  15.296  1.0186  0.1914 -0.0325
 7317TIP3    H243367   6.045   4.188  15.215 -0.6417  1.3158  1.2500
 7318TIP3   OH243368   1.504   6.526  15.827 -0.2446  0.2211 -0.2013
 7318TIP3    H143369   1.417   6.547  15.860  0.3949  2.6281  0.1714
 7318TIP3    H243370   1.520   6.436  15.855 -2.5273 -0.2322 -0.1671
 7319TIP3   OH243371   6.247   5.620  12.173 -0.6400  0.1275 -0.0097
 7319TIP3    H143372   6.246   5.531  12.138  0.3009  0.1998 -0.2552
 7319TIP3    H243373   6.286   5.673  12.103 -1.7232  0.8419 -0.0940
 7320TIP3   OH243374   4.420   6.270   3.368  0.0774 -0.0972  0.2564
 7320TIP3    H143375   4.329   6.295   3.354 -0.9345 -1.0950  3.9036
 7320TIP3    H243376   4.463   6.350   3.396 -0.3899 -0.1283  1.1044
 7321TIP3   OH243377   4.148   0.564  13.793 -0.0092 -0.3136 -0.1893
 7321TIP3    H143378   4.168   0.636  13.852  0.1906 -1.5104  1.2648
 7321TIP3    H243379   4.228   0.512  13.791 -1.7187 -3.6413  3.4997
 7322TIP3   OH243380   5.484   6.389   0.480  0.0202 -0.6279  0.0013
 7322TIP3    H143381   5.545   6.376   0.407  2.3828 -2.3179  2.1122
 7322TIP3    H243382   5.520   6.336   0.551 -1.8912  1.2907  2.5837
 7323TIP3   OH243383   2.217   1.975   4.353 -0.3801  0.6752  0.3015
 7323TIP3    H143384   2.288   1.911   4.346 -0.2746  0.8924 -0.7582
 7323TIP3    H243385   2.261   2.059   4.360 -0.4088  1.1870 -3.5768
 7324TIP3   OH243386   6.019   0.801  14.395  0.4649 -0.1056 -0.5348
 7324TIP3    H143387   6.003   0.827  14.304  0.4778  2.5331  0.1241
 7324TIP3    H243388   6.113   0.816  14.408 -0.1168  3.3639  0.8536
 7325TIP3   OH243389   3.037   6.245   2.664  0.4138  0.1635 -0.4099
 7325TIP3    H143390   3.069   6.177   2.723  1.4809  0.8934 -0.1133
 7325TIP3    H243391   2.949   6.264   2.695 -0.4921 -2.0827 -1.4054
 7326TIP3   OH243392   6.583   2.746  11.194  0.1352  0.0262  0.6205
 7326TIP3    H143393   6.670   2.720  11.165  0.2779  1.2530 -0.1566
 7326TIP3    H243394   6.535   2.762  11.113 -0.8758 -0.7737  1.0376
 7327TIP3   OH243395   3.666   5.356  13.313 -0.4187  0.4123 -0.0893
 7327TIP3    H143396   3.585   5.365  13.262 -0.0822 -1.7777 -1.1281
 7327TIP3    H243397   3.637   5.362  13.404 -1.7760 -0.4060 -0.4379
 7328TIP3   OH243398   2.992   3.757   1.358 -0.1889  0.2715 -1.1385
 7328TIP3    H143399   2.969   3.839   1.314 -0.0376 -0.7278 -3.1901
 7328TIP3    H243400   3.087   3.758   1.364 -0.1658  0.1181 -1.4524
 7329TIP3   OH243401   3.164   1.407  16.151  0.2779 -0.1469 -0.1203
 7329TIP3    H143402   3.206   1.351  16.087  1.0808  0.5160 -0.1904
 7329TIP3    H243403   3.234   1.465  16.183 -0.3508  0.2878  0.5170
 7330TIP3   OH243404   1.706   2.664  14.988 -0.4969  0.1517  0.0382
 7330TIP3    H143405   1.708   2.699  15.077 -1.5698  2.0643 -0.6227
 7330TIP3    H243406   1.752   2.729  14.936 -3.1906  1.0954 -1.3620
 7331TIP3   OH243407   0.992   4.659  11.765 -0.2031  0.5852  1.0352
 7331TIP3    H143408   1.008   4.635  11.856  0.5969  0.0738  0.7711
 7331TIP3    H243409   1.069   4.711  11.740 -0.4344  0.7549  0.6666
 7332TIP3   OH243410   5.245   0.962   5.987  0.1199 -0.1738  0.5469
 7332TIP3    H143411   5.300   1.008   6.051 -0.0216 -0.3169  0.7732
 7332TIP3    H243412   5.300   0.889   5.958  0.7919  0.7723 -0.6712
 7333TIP3   OH243413   3.675   3.081   4.615  0.2730  0.2667 -0.2054
 7333TIP3    H143414   3.602   3.106   4.558 -0.1206 -0.4020  0.0025
 7333TIP3    H243415   3.642   3.007   4.666  1.6551 -1.2440 -1.3774
 7334TIP3   OH243416   0.405   4.897  13.083  0.6729  0.3203  0.3987
 7334TIP3    H143417   0.453   4.850  13.151 -0.4074 -1.3542  0.0571
 7334TIP3    H243418   0.443   4.866  13.001 -1.0374 -1.2157  0.1104
 7335TIP3   OH243419   0.747   0.223  15.859 -0.0713  0.3476  0.3920
 7335TIP3    H143420   0.678   0.162  15.883 -0.6414  0.8311  0.0076
 7335TIP3    H243421   0.707   0.310  15.867 -1.1438  0.6094 -4.3506
 7336TIP3   OH243422   4.916   6.053  11.937 -0.4944  0.0577  0.0544
 7336TIP3    H143423   4.845   6.012  11.986  0.4780 -0.3664  1.1556
 7336TIP3    H243424   4.889   6.046  11.845 -2.3764  0.8926  0.4792
 7337TIP3   OH243425   4.664   3.910  16.814 -0.0950  0.4311  0.1923
 7337TIP3    H143426   4.658   3.978  16.748  0.2182  0.7486  0.4909
 7337TIP3    H243427   4.578   3.911  16.857  1.0099  3.2089  2.7088
 7338TIP3   OH243428   5.602   5.780   1.664  0.3052  0.1077 -0.0443
 7338TIP3    H143429   5.687   5.736   1.666  0.3536  0.0471 -1.7490
 7338TIP3    H243430   5.619   5.861   1.615 -0.4150  0.5582  0.4414
 7339TIP3   OH243431   3.403   2.056  14.935 -0.0403  0.0484  0.1056
 7339TIP3    H143432   3.327   2.028  14.986  0.5141 -0.1277  0.8384
 7339TIP3    H243433   3.478   2.037  14.990  0.4150  2.7722  0.5715
 7340TIP3   OH243434   1.984   2.398  11.988 -0.4860 -0.0463 -0.0990
 7340TIP3    H143435   1.958   2.374  11.899 -1.5251 -3.0523  0.8928
 7340TIP3    H243436   2.056   2.338  12.009 -0.0209  0.8616  0.9931
 7341TIP3   OH243437   3.211   5.012  15.010  0.0880 -0.0111 -0.2729
 7341TIP3    H143438   3.248   4.927  14.984  1.4101 -0.1347  1.7285
 7341TIP3    H243439   3.117   4.996  15.015  0.2717 -1.2645 -0.3285
 7342TIP3   OH243440   5.596   5.480  14.322  0.4793 -0.4142  0.1428
 7342TIP3    H143441   5.536   5.515  14.257  0.8751  1.5222  0.7730
 7342TIP3    H243442   5.608   5.388  14.297 -3.2129 -1.1055  0.3461
 7343TIP3   OH243443   5.549   3.723  17.059  0.0181  0.0146 -0.2934
 7343TIP3    H143444   5.600   3.646  17.032 -1.4622 -0.8270 -0.8450
 7343TIP3    H243445   5.474   3.724  16.998  0.0566  1.9735 -0.3738
 7344TIP3   OH243446   4.149   4.547   2.695 -0.3216 -0.8512 -0.5248
 7344TIP3    H143447   4.117   4.554   2.606  0.8099 -1.5707 -1.0136
 7344TIP3    H243448   4.113   4.624   2.740  1.2145  0.9934 -2.2562
 7345TIP3   OH243449   2.849   5.391  13.190  0.2787  0.1624 -0.0128
 7345TIP3    H143450   2.888   5.306  13.174 -0.1042 -0.4471  1.9962
 7345TIP3    H243451   2.875   5.444  13.115  0.7230 -1.6371 -1.1923
 7346TIP3   OH243452   0.503   0.750  16.423  0.1841  0.2539 -0.2662
 7346TIP3    H143453   0.591   0.770  16.391  0.2627 -1.9022 -1.5831
 7346TIP3    H243454   0.448   0.751  16.345 -0.1136 -2.5772 -0.2028
 7347TIP3   OH243455   1.538   5.553  17.149  0.1152 -0.3639  0.0968
 7347TIP3    H143456   1.515   5.587  17.236  0.7858 -0.2209  0.2286
 7347TIP3    H243457   1.597   5.619  17.112 -0.3404 -0.3195 -0.5627
 7348TIP3   OH243458   6.596   0.401  11.645 -0.6304 -0.3110  0.1571
 7348TIP3    H143459   6.587   0.368  11.556  0.9909 -1.0169  0.2275
 7348TIP3    H243460   6.690   0.418  11.655 -0.9997  1.3517  1.1809
 7349TIP3   OH243461   1.863   4.416  16.295  0.1686  0.7331  0.2700
 7349TIP3    H143462   1.889   4.325  16.309  2.3405  0.7889 -2.5236
 7349TIP3    H243463   1.848   4.422  16.200 -2.7544  2.6810  0.7309
 7350TIP3   OH243464   5.653   1.631  14.786  0.2234  0.1725  0.2113
 7350TIP3    H143465   5.665   1.640  14.880  1.5522  0.1922  0.0573
 7350TIP3    H243466   5.667   1.718  14.751  2.9844 -0.3961 -0.2909
 7351TIP3   OH243467   1.782   2.608   6.042  0.0933 -0.2016  0.8214
 7351TIP3    H143468   1.780   2.637   6.133  0.2342  1.2480  0.3753
 7351TIP3    H243469   1.842   2.533   6.043  1.1115  0.5874  1.7162
 7352TIP3   OH243470   3.795   2.660   6.194  0.0818  0.2208  0.6800
 7352TIP3    H143471   3.776   2.708   6.113  2.0314  0.9130  0.5944
 7352TIP3    H243472   3.711   2.619   6.217 -0.6570  0.4223 -1.3989
 7353TIP3   OH243473   1.814   3.806   2.343  0.0627  0.1826  0.1020
 7353TIP3    H143474   1.738   3.778   2.290  0.8342 -3.2489  0.6047
 7353TIP3    H243475   1.871   3.851   2.280 -0.6760 -0.5809 -1.1645
 7354TIP3   OH243476   5.139   0.708  16.032 -0.2525  0.2816 -0.4384
 7354TIP3    H143477   5.176   0.619  16.033  0.5428  0.6016  0.3757
 7354TIP3    H243478   5.203   0.759  15.982  0.3358  0.7981  0.8015
 7355TIP3   OH243479   3.365   1.865   4.803  0.0801 -0.0617 -1.2532
 7355TIP3    H143480   3.292   1.820   4.846  1.6793 -1.8660 -0.2972
 7355TIP3    H243481   3.430   1.876   4.872  1.3540  0.1060 -2.4431
 7356TIP3   OH243482   4.953   3.552   2.235  0.0677 -0.0005 -0.5554
 7356TIP3    H143483   4.997   3.622   2.283 -2.0731  0.1358  1.4153
 7356TIP3    H243484   4.931   3.487   2.302  0.1906 -1.5947 -2.0035
 7357TIP3   OH243485   2.809   4.938  14.837 -0.3431  0.1229  0.4846
 7357TIP3    H143486   2.820   4.993  14.915 -0.1561  0.2014  0.4051
 7357TIP3    H243487   2.741   4.982  14.787  2.0830  2.2251 -1.2229
 7358TIP3   OH243488   1.724   6.622   1.507 -0.2590 -0.3975 -0.3240
 7358TIP3    H143489   1.696   6.545   1.457  3.0729 -2.1795  0.2159
 7358TIP3    H243490   1.782   6.670   1.447 -1.3769  1.0935 -0.2595
 7359TIP3   OH243491   0.602   1.729  11.714  0.3489 -0.1530 -0.3567
 7359TIP3    H143492   0.585   1.822  11.731  2.5413 -0.2655  3.6798
 7359TIP3    H243493   0.674   1.729  11.652  0.4931  0.8721 -0.2045
 7360TIP3   OH243494   6.435   1.692   4.333  0.3077 -0.1575  0.4714
 7360TIP3    H143495   6.360   1.751   4.331  1.9931  2.0719 -0.4677
 7360TIP3    H243496   6.489   1.719   4.259  0.4508 -3.9658 -1.0096
 7361TIP3   OH243497   3.257   1.773   0.657 -0.3786 -0.1807  0.1108
 7361TIP3    H143498   3.186   1.714   0.680 -0.6166  0.3814  0.8558
 7361TIP3    H243499   3.255   1.841   0.724  0.6712  0.0118 -0.0317
 7362TIP3   OH243500   4.416   2.788  11.229  0.7341  0.9407 -0.5347
 7362TIP3    H143501   4.465   2.845  11.169  1.9223  1.9051  1.2767
 7362TIP3    H243502   4.432   2.824  11.316 -1.0515 -0.3350  0.3927
 7363TIP3   OH243503   3.890   5.803   0.901 -0.2773 -0.2627  0.4312
 7363TIP3    H143504   3.970   5.847   0.927 -0.5038 -0.1036  0.8565
 7363TIP3    H243505   3.835   5.872   0.864  0.4633 -0.6484 -1.5321
 7364TIP3   OH243506   0.035   0.435   5.408  0.0330  0.2959 -0.2089
 7364TIP3    H143507   0.076   0.375   5.346 -1.1779  0.0970 -0.8497
 7364TIP3    H243508   0.101   0.503   5.422  1.3924 -1.1026  0.4597
 7365TIP3   OH243509   2.205   0.342  17.048 -0.0457  0.2900  0.8743
 7365TIP3    H143510   2.205   0.437  17.032 -1.4094  0.2557  0.4863
 7365TIP3    H243511   2.112   0.321  17.062  0.1566 -1.0986  0.2564
 7366TIP3   OH243512   5.520   0.919  16.162  0.1200  0.3463 -0.2924
 7366TIP3    H143513   5.594   0.875  16.205  1.5886  2.3212 -0.6667
 7366TIP3    H243514   5.544   0.919  16.069  0.6966  2.7685 -0.1973
 7367TIP3   OH243515   3.163   0.548  13.332  0.2500 -0.4707  0.0795
 7367TIP3    H143516   3.180   0.635  13.295 -0.0351 -0.1858  0.6028
 7367TIP3    H243517   3.072   0.551  13.360  0.2621 -0.9128  0.1712
 7368TIP3   OH243518   6.112   1.669  11.950  0.3816  0.0369 -0.4556
 7368TIP3    H143519   6.068   1.755  11.949  0.0004 -0.1569 -1.9531
 7368TIP3    H243520   6.202   1.688  11.977 -0.2859  0.5814  1.6132
 7369TIP3   OH243521   1.565   2.552   1.135  0.3295  0.1241  0.3144
 7369TIP3    H143522   1.574   2.643   1.162 -0.4995  0.4185 -0.3575
 7369TIP3    H243523   1.620   2.544   1.058  0.2965  0.0911  0.2940
 7370TIP3   OH243524   3.649   1.307  13.802  0.0355  0.1133  0.1213
 7370TIP3    H143525   3.624   1.390  13.842 -1.7018 -1.6053  2.9865
 7370TIP3    H243526   3.566   1.263  13.783  0.8409 -1.9852  1.0974
 7371TIP3   OH243527   4.876   0.760   1.691  0.3827 -0.0723 -0.1111
 7371TIP3    H143528   4.965   0.794   1.687 -0.0887  1.1374 -1.2237
 7371TIP3    H243529   4.824   0.834   1.724 -0.1882 -0.8200  0.7085
 7372TIP3   OH243530   6.678   0.264   2.628 -0.0956  0.5511  0.5607
 7372TIP3    H143531   6.617   0.238   2.559  0.3079 -0.2945  0.5078
 7372TIP3    H243532   6.761   0.224   2.604  0.6293  2.0771  0.3813
 7373TIP3   OH243533   2.341   0.515   2.408  0.0589 -0.0608 -0.3831
 7373TIP3    H143534   2.269   0.452   2.417  0.9465 -0.8574  1.6838
 7373TIP3    H243535   2.417   0.462   2.386  0.5209  0.4671 -0.0821
 7374TIP3   OH243536   4.383   0.169   1.483  0.1738  0.2319 -0.3864
 7374TIP3    H143537   4.332   0.250   1.470  1.7192  1.0612 -1.5322
 7374TIP3    H243538   4.362   0.115   1.408  0.8153  0.4916 -0.7563
 7375TIP3   OH243539   1.001   1.767  14.852 -0.3221  0.3192  0.0021
 7375TIP3    H143540   1.087   1.748  14.888 -0.5722  0.0944  0.4829
 7375TIP3    H243541   1.019   1.798  14.763  0.3576  1.6769  0.5784
 7376TIP3   OH243542   3.365   0.590  12.739 -0.1702  0.3638 -0.1570
 7376TIP3    H143543   3.287   0.645  12.749  0.7192  1.6580 -0.0800
 7376TIP3    H243544   3.422   0.641  12.682  2.0495  1.0268  2.5065
 7377TIP3   OH243545   1.360   3.000   2.049  0.5109 -0.4047  0.0790
 7377TIP3    H143546   1.423   3.027   1.982 -0.3226 -1.1426 -1.0492
 7377TIP3    H243547   1.358   2.904   2.042  1.1375 -0.5935  1.8662
 7378TIP3   OH243548   6.504   4.777   2.165 -0.2617 -0.5834 -0.1485
 7378TIP3    H143549   6.418   4.766   2.207 -0.1574 -0.3884  0.1191
 7378TIP3    H243550   6.550   4.839   2.222 -0.1168 -0.3237 -0.5475
 7379TIP3   OH243551   4.997   5.746   2.644 -0.3426 -0.1786 -0.3143
 7379TIP3    H143552   5.028   5.836   2.630 -0.2771 -0.2589 -0.7085
 7379TIP3    H243553   4.985   5.739   2.738 -1.9473  0.7845 -0.3983
 7380TIP3   OH243554   1.236   6.428  15.201  0.0170 -0.0719 -0.0298
 7380TIP3    H143555   1.270   6.351  15.247 -0.5901 -0.3529 -0.0447
 7380TIP3    H243556   1.146   6.405  15.178 -0.0600  0.5115 -0.3402
 7381TIP3   OH243557   3.690   4.211   2.496  0.2293 -0.2199  0.2972
 7381TIP3    H143558   3.603   4.201   2.532  0.3877 -0.5161  0.6065
 7381TIP3    H243559   3.700   4.305   2.480 -0.1343 -0.1848  0.2836
 7382TIP3   OH243560   4.711   4.828  12.132 -0.1197  0.1982  0.3480
 7382TIP3    H143561   4.655   4.883  12.186 -0.4050 -0.3182  0.5890
 7382TIP3    H243562   4.730   4.752  12.187  0.2660  0.0566  0.0221
 7383TIP3   OH243563   4.842   4.354  16.219 -0.3771  0.2334 -0.2649
 7383TIP3    H143564   4.882   4.441  16.224  1.4485 -0.4922 -1.4099
 7383TIP3    H243565   4.834   4.326  16.310 -1.7437  1.8813  0.1767
 7384TIP3   OH243566   5.333   3.811   0.273  1.1225 -0.0972 -0.1429
 7384TIP3    H143567   5.375   3.891   0.306  0.0748  0.9906 -1.3401
 7384TIP3    H243568   5.364   3.803   0.183 -1.8150  1.2987 -1.4256
 7385TIP3   OH243569   2.202   4.535  17.000  0.2448  0.2001  0.6676
 7385TIP3    H143570   2.238   4.476  16.934 -1.0330 -1.4136  1.3450
 7385TIP3    H243571   2.188   4.617  16.953 -0.1488 -0.7403 -0.9513
 7386TIP3   OH243572   3.380   6.283  13.320 -0.5379 -0.2620  0.1891
 7386TIP3    H143573   3.408   6.267  13.229  1.3309  1.9994  0.2840
 7386TIP3    H243574   3.451   6.247  13.373 -0.4434  0.5676  0.6444
 7387TIP3   OH243575   0.303   0.088  14.609  0.4786  0.7186 -0.2384
 7387TIP3    H143576   0.342   0.170  14.581  0.0304  0.7350 -0.8283
 7387TIP3    H243577   0.215   0.112  14.641  1.4323  0.9117  2.5303
 7388TIP3   OH243578   1.267   5.920   0.941  0.3998  0.0132 -0.1821
 7388TIP3    H143579   1.214   5.840   0.946  2.1539 -1.1148  2.0265
 7388TIP3    H243580   1.231   5.968   0.866 -1.0882 -2.5462 -1.2302
 7389TIP3   OH243581   3.983   4.535  11.728  0.2031  0.5092  0.2062
 7389TIP3    H143582   3.964   4.474  11.657 -0.1774 -0.0238  0.7582
 7389TIP3    H243583   4.004   4.617  11.684  0.8947 -0.0563 -0.5585
 7390TIP3   OH243584   0.811   0.321  11.618  0.2363  0.2949 -0.2286
 7390TIP3    H143585   0.807   0.303  11.711 -1.2307  0.0923 -0.3103
 7390TIP3    H243586   0.764   0.249  11.577 -0.2465  1.0284 -1.0185
 7391TIP3   OH243587   5.081   4.042   1.993  0.2396 -0.1163  0.2184
 7391TIP3    H143588   5.146   4.111   1.994  1.6953 -1.4336  0.0721
 7391TIP3    H243589   5.130   3.962   1.973 -1.3649 -1.2159  0.4266
 7392TIP3   OH243590   2.461   2.537   0.567 -0.0156 -0.3606 -0.1302
 7392TIP3    H143591   2.521   2.552   0.640 -0.4903 -2.3133  0.7301
 7392TIP3    H243592   2.476   2.610   0.508  1.0757  0.7722  1.4694
 7393TIP3   OH243593   5.474   0.353  12.069  0.5646 -0.4228  0.3079
 7393TIP3    H143594   5.534   0.398  12.009  0.5417 -0.9833 -0.1447
 7393TIP3    H243595   5.530   0.322  12.140  0.8346 -0.9799 -0.1337
 7394TIP3   OH243596   3.592   5.192  13.908 -0.4270  0.3477 -0.4597
 7394TIP3    H143597   3.605   5.249  13.984 -0.2113  2.3372 -1.9122
 7394TIP3    H243598   3.680   5.167  13.881 -0.2919  1.9766 -1.6851
 7395TIP3   OH243599   2.490   0.835   3.443 -0.5128  0.2568 -0.0416
 7395TIP3    H143600   2.488   0.825   3.538 -1.3345  1.1117  0.0471
 7395TIP3    H243601   2.580   0.861   3.424  0.3597 -2.3018  0.2021
 7396TIP3   OH243602   3.201   2.928   3.208  0.6321 -0.1908 -0.3670
 7396TIP3    H143603   3.210   2.990   3.135  1.6117  0.3644  0.2085
 7396TIP3    H243604   3.131   2.964   3.262  1.1570  0.3858 -0.0677
 7397TIP3   OH243605   5.246   0.406  12.601  0.4741 -0.1120  0.0090
 7397TIP3    H143606   5.294   0.326  12.580  1.9909  0.6397  0.3882
 7397TIP3    H243607   5.277   0.430  12.688 -1.8184 -0.4077  0.9636
 7398TIP3   OH243608   5.437   2.860   1.825 -0.0995  0.2565  0.0273
 7398TIP3    H143609   5.522   2.817   1.816 -0.3806 -0.4523  0.6210
 7398TIP3    H243610   5.373   2.789   1.813 -0.6227  0.8906 -1.0062
 7399TIP3   OH243611   0.389   4.037  11.763  0.3038 -0.2439  0.1386
 7399TIP3    H143612   0.483   4.041  11.748  0.3584  1.4695  0.6663
 7399TIP3    H243613   0.360   4.128  11.755 -0.9163 -0.3800  2.3722
 7400TIP3   OH243614   1.094   4.732  16.733 -0.2569  0.1025 -0.4004
 7400TIP3    H143615   1.099   4.828  16.728 -1.3722  0.2215  0.3567
 7400TIP3    H243616   1.140   4.702  16.655 -0.3024  1.2722 -0.9053
 7401TIP3   OH243617   4.935   3.545   1.777 -0.2170  0.3303 -0.1044
 7401TIP3    H143618   4.906   3.522   1.866  0.8659 -0.3226  0.1058
 7401TIP3    H243619   5.028   3.565   1.788  0.6032 -2.2448 -1.4619
 7402TIP3   OH243620   3.922   1.902  12.165  0.1162 -0.0731 -0.6169
 7402TIP3    H143621   4.001   1.950  12.141 -0.4942  1.5243  0.4346
 7402TIP3    H243622   3.850   1.957  12.133 -0.5857 -1.2333 -1.0777
 7403TIP3   OH243623   3.440   4.330   3.980  0.1674 -0.4243  0.6241
 7403TIP3    H143624   3.496   4.397   4.018  0.2193 -0.1514  0.0755
 7403TIP3    H243625   3.477   4.314   3.893 -0.0297 -0.9421  0.6277
 7404TIP3   OH243626   3.032   1.646   0.737 -0.3312 -0.0550  0.3036
 7404TIP3    H143627   2.966   1.691   0.788 -0.3438  0.7629 -0.4149
 7404TIP3    H243628   2.983   1.602   0.667 -0.1215  0.5185 -0.2054
 7405TIP3   OH243629   3.800   6.334  14.631  1.0440 -0.5027  0.7401
 7405TIP3    H143630   3.747   6.280  14.689 -0.0705 -0.1530  0.0765
 7405TIP3    H243631   3.760   6.324  14.545  1.7388  0.1929  0.3207
 7406TIP3   OH243632   6.095   6.651  14.866  0.8311  0.4355  0.0204
 7406TIP3    H143633   6.171   6.684  14.817  0.8659 -0.6905 -0.7248
 7406TIP3    H243634   6.037   6.615  14.799  0.8919 -1.1651  0.7945
 7407TIP3   OH243635   2.802   0.774   4.097  0.1271  0.3655  0.1751
 7407TIP3    H143636   2.729   0.744   4.043  1.2091 -1.8056 -0.1894
 7407TIP3    H243637   2.763   0.793   4.182 -0.6715 -2.2980  0.4747
 7408TIP3   OH243638   3.836   1.648   0.427  0.3121  0.3931 -0.4470
 7408TIP3    H143639   3.751   1.648   0.471  0.2954  2.2422 -0.3934
 7408TIP3    H243640   3.816   1.628   0.335 -0.0642 -0.0893 -0.2617
 7409TIP3   OH243641   0.999   0.540  10.961 -0.3810  0.8721 -0.8392
 7409TIP3    H143642   1.072   0.601  10.949  0.6555 -0.2108 -0.2514
 7409TIP3    H243643   0.987   0.499  10.875  1.1870 -0.5197 -0.4437
 7410TIP3   OH243644   1.597   5.345  10.684  0.3328  0.2687 -0.7203
 7410TIP3    H143645   1.667   5.332  10.749 -0.6059 -0.2423  0.2147
 7410TIP3    H243646   1.569   5.436  10.697  0.2050  0.1936 -0.4742
 7411TIP3   OH243647   2.339   0.493   6.085 -0.1498 -0.4992  0.2190
 7411TIP3    H143648   2.285   0.512   6.162 -1.6316  0.3962 -0.9907
 7411TIP3    H243649   2.277   0.479   6.014  1.1180  2.6342 -1.7369
 7412TIP3   OH243650   6.154   3.656  16.014  0.0787  0.2692 -0.8370
 7412TIP3    H143651   6.088   3.722  15.994 -0.7951  0.2841  1.7410
 7412TIP3    H243652   6.237   3.703  16.004 -0.5202  1.8824  1.0671
 7413TIP3   OH243653   1.503   2.524  11.248 -0.0425 -0.0305 -0.3160
 7413TIP3    H143654   1.537   2.446  11.205 -0.3160 -0.6829  0.6064
 7413TIP3    H243655   1.572   2.589  11.239  0.4935 -0.6099 -0.4761
 7414TIP3   OH243656   4.311   1.433  14.345  0.7586 -0.8603  0.6843
 7414TIP3    H143657   4.277   1.343  14.353 -0.4541 -0.6146 -1.1821
 7414TIP3    H243658   4.256   1.485  14.404 -0.9749 -0.7761 -0.9461
 7415TIP3   OH243659   1.740   0.121  16.976  0.1506 -0.2434  0.1246
 7415TIP3    H143660   1.671   0.153  17.034  1.0212  0.5466  0.7470
 7415TIP3    H243661   1.697   0.108  16.892 -0.7934  0.0668  0.5525
 7416TIP3   OH243662   0.627   1.819  10.832 -0.0992  0.3183  0.1419
 7416TIP3    H143663   0.599   1.783  10.748 -2.4352  0.3359  0.8337
 7416TIP3    H243664   0.717   1.848  10.817 -0.0052 -0.8342 -1.9629
 7417TIP3   OH243665   6.151   2.866   5.240  0.5204  0.2514  0.3227
 7417TIP3    H143666   6.211   2.824   5.302  2.3588  0.4147 -1.2844
 7417TIP3    H243667   6.116   2.941   5.288  0.4710 -0.6441  1.7610
 7418TIP3   OH243668   4.636   2.913   4.490  0.1846  0.4098  0.6825
 7418TIP3    H143669   4.542   2.929   4.489 -0.2558 -1.8194  1.7293
 7418TIP3    H243670   4.669   2.969   4.561 -0.2215  1.6674 -0.0950
 7419TIP3   OH243671   1.745   4.880   5.137  0.2713 -0.2394 -0.0309
 7419TIP3    H143672   1.668   4.886   5.194  0.3983 -4.3593  0.8613
 7419TIP3    H243673   1.820   4.895   5.195  0.2900 -1.5870  0.3190
 7420TIP3   OH243674   4.484   3.936   1.241 -0.0882  0.1975  0.8938
 7420TIP3    H143675   4.474   4.004   1.175  1.9118  0.0948  0.4229
 7420TIP3    H243676   4.411   3.875   1.225 -1.2089  1.5798  0.5664
 7421TIP3   OH243677   5.830   5.296   1.563  0.1747  0.6193 -0.7216
 7421TIP3    H143678   5.903   5.293   1.626  0.4965 -0.8585 -1.1261
 7421TIP3    H243679   5.872   5.316   1.479  0.0193  0.5210 -0.8231
 7422TIP3   OH243680   4.521   0.435   5.664 -0.2971  0.0854  0.6105
 7422TIP3    H143681   4.502   0.345   5.637 -0.0001  0.3541 -0.5748
 7422TIP3    H243682   4.505   0.487   5.585 -0.4147  1.0735  1.2626
 7423TIP3   OH243683   6.477   6.597  16.344  0.2389 -0.2613 -1.0442
 7423TIP3    H143684   6.556   6.544  16.353  0.2611 -0.3196 -1.5875
 7423TIP3    H243685   6.508   6.687  16.338  0.1197  0.3411  3.4110
 7424TIP3   OH243686   1.025   5.132   3.817  0.0283 -0.2552  0.1843
 7424TIP3    H143687   1.072   5.126   3.901  1.0384  1.6745 -0.1823
 7424TIP3    H243688   1.094   5.138   3.751 -0.6390  2.0004 -0.4325
 7425TIP3   OH243689   1.206   6.063   3.807 -0.8996  0.1009  0.6499
 7425TIP3    H143690   1.117   6.057   3.773 -1.6961  0.6003  2.5193
 7425TIP3    H243691   1.245   6.136   3.759 -1.4503 -0.1871 -0.2558
 7426TIP3   OH243692   3.018   4.259   1.287  0.2930 -0.4436 -0.1884
 7426TIP3    H143693   3.016   4.331   1.224  1.6010 -0.5763 -0.4103
 7426TIP3    H243694   3.086   4.285   1.350 -0.3498 -0.7458  0.6429
 7427TIP3   OH243695   2.554   4.587   0.845  0.1892 -0.0436  0.2886
 7427TIP3    H143696   2.493   4.538   0.790 -1.3026  1.1575  0.8123
 7427TIP3    H243697   2.631   4.600   0.789 -0.0171 -1.5633 -0.3946
 7428TIP3   OH243698   0.801   6.390   4.460  0.9224 -0.0830 -0.0642
 7428TIP3    H143699   0.776   6.482   4.473  0.0948 -0.5451  2.0005
 7428TIP3    H243700   0.726   6.352   4.414 -0.2566 -0.4083  1.9929
 7429TIP3   OH243701   3.637   0.669   5.462  0.0929  0.3830  0.0981
 7429TIP3    H143702   3.610   0.616   5.537  1.3766 -0.5259 -0.0519
 7429TIP3    H243703   3.731   0.654   5.453  0.3275  1.9267 -0.5700
 7430TIP3   OH243704   5.324   5.282   3.881 -0.3947  0.3424  0.7025
 7430TIP3    H143705   5.285   5.272   3.968  1.2767 -1.4387  1.3078
 7430TIP3    H243706   5.345   5.192   3.854  1.2767  1.0584 -0.5156
 7431TIP3   OH243707   4.652   3.640   1.862  0.0447  0.4150  0.1163
 7431TIP3    H143708   4.691   3.666   1.946  0.2637 -0.2788  0.2386
 7431TIP3    H243709   4.727   3.629   1.804 -0.1683  1.9398 -0.4912
 7432TIP3   OH243710   2.187   2.934  17.143 -0.3343  0.2919 -0.4485
 7432TIP3    H143711   2.243   2.855  17.139  0.2910  0.6333  1.0739
 7432TIP3    H243712   2.112   2.912  17.087 -0.4128 -1.5760  0.3056
 7433TIP3   OH243713   2.134   0.940   1.448  0.6318  0.3128  0.4458
 7433TIP3    H143714   2.212   0.972   1.494 -0.3806  0.6683  1.9780
 7433TIP3    H243715   2.122   0.851   1.478  0.0635  0.4861  0.7572
 7434TIP3   OH243716   4.484   4.494   3.757 -0.0956  0.4071 -0.5692
 7434TIP3    H143717   4.444   4.407   3.753  1.1485 -0.2494  0.2085
 7434TIP3    H243718   4.460   4.536   3.675 -1.9067 -0.1272 -0.3499
 7435TIP3   OH243719   0.732   2.272   3.237 -0.0309  0.5602 -0.3052
 7435TIP3    H143720   0.761   2.209   3.170 -2.1596  1.5852 -2.3573
 7435TIP3    H243721   0.752   2.358   3.199 -4.0684  1.2873 -1.2432
 7436TIP3   OH243722   5.309   6.008  16.912  0.2874 -0.3305 -0.6638
 7436TIP3    H143723   5.349   6.063  16.845 -2.3746  0.8218 -1.4611
 7436TIP3    H243724   5.215   6.018  16.898 -0.3431 -3.0376  0.8861
 7437TIP3   OH243725   0.195   3.551  13.266 -0.6472  0.0739  0.2013
 7437TIP3    H143726   0.145   3.631  13.250  0.9426  0.9602 -0.5414
 7437TIP3    H243727   0.256   3.574  13.336 -0.2346 -0.4976  0.0404
 7438TIP3   OH243728   5.333   2.054   4.992  0.3721  0.5044  0.3494
 7438TIP3    H143729   5.297   2.005   5.067  1.4859 -0.2784  0.3944
 7438TIP3    H243730   5.343   1.989   4.923  0.1336  1.0597 -0.2227
 7439TIP3   OH243731   6.232   0.313  14.619  0.2109 -0.7468 -0.0914
 7439TIP3    H143732   6.270   0.309  14.707  0.5450 -0.7982 -0.2342
 7439TIP3    H243733   6.201   0.403  14.611  1.4513 -0.3196 -0.4272
 7440TIP3   OH243734   0.252   6.037  12.288  0.1595 -0.1831 -0.0751
 7440TIP3    H143735   0.182   6.002  12.233  1.3014 -0.0980 -1.6490
 7440TIP3    H243736   0.332   6.005  12.247  1.1101  1.3580  0.5178
 7441TIP3   OH243737   1.521   2.452  14.720  0.2235 -0.2986  0.3268
 7441TIP3    H143738   1.580   2.511  14.674  1.5972 -0.9383  1.2049
 7441TIP3    H243739   1.499   2.498  14.801 -0.0569 -0.2825  0.2418
 7442TIP3   OH243740   3.414   1.067   0.967 -0.0616  0.0404 -0.2058
 7442TIP3    H143741   3.419   1.067   0.871  0.4936 -1.9158 -0.2216
 7442TIP3    H243742   3.345   1.130   0.987 -0.2846  0.3969 -1.8981
 7443TIP3   OH243743   6.749   0.977  10.273  0.5012  0.0100 -0.5729
 7443TIP3    H143744   6.827   0.945  10.227  1.9005  0.7607  1.1612
 7443TIP3    H243745   6.708   0.899  10.310  0.5076 -0.3662 -1.3387
 7444TIP3   OH243746   4.084   2.736   2.295  0.0948  0.2163  1.1096
 7444TIP3    H143747   4.036   2.783   2.363 -1.7434 -0.5803  0.4336
 7444TIP3    H243748   4.021   2.672   2.262  0.1062  1.9976 -2.8863
 7445TIP3   OH243749   3.989   1.808   2.364  0.1072 -0.3884  0.4059
 7445TIP3    H143750   4.009   1.734   2.422 -0.5466  0.2556  1.4939
 7445TIP3    H243751   3.895   1.803   2.349  0.3839 -1.0633 -1.3845
 7446TIP3   OH243752   0.122   6.262  15.258 -0.2677 -0.2343  0.1595
 7446TIP3    H143753   0.044   6.208  15.264 -0.3111 -0.0332  1.9317
 7446TIP3    H243754   0.095   6.338  15.207 -1.6366  0.4195  1.7502
 7447TIP3   OH243755   5.158   2.426   2.313  0.3416 -0.7464  0.4611
 7447TIP3    H143756   5.208   2.361   2.264 -0.4077 -0.7388 -0.3455
 7447TIP3    H243757   5.180   2.410   2.405  1.8450 -0.7078  0.1269
 7448TIP3   OH243758   1.208   4.945   2.473  0.4287 -0.3618 -0.4352
 7448TIP3    H143759   1.230   4.917   2.562  0.4028  0.6992 -0.0780
 7448TIP3    H243760   1.267   5.018   2.455 -0.6400  0.4836 -0.6656
 7449TIP3   OH243761   3.404   0.940  15.493 -0.2662  0.1311 -0.2339
 7449TIP3    H143762   3.430   0.940  15.585 -2.4650  2.1133  0.4757
 7449TIP3    H243763   3.480   0.974  15.446  0.6722 -0.3362  0.8966
 7450TIP3   OH243764   5.066   4.122   4.622  0.6263  0.0326  0.5736
 7450TIP3    H143765   5.057   4.217   4.628  2.1581  0.1436  1.5860
 7450TIP3    H243766   4.994   4.095   4.565  0.7140  1.8839 -0.4774
 7451TIP3   OH243767   2.506   1.805   4.808 -0.0258  0.0471  0.0751
 7451TIP3    H143768   2.544   1.737   4.752 -2.2862 -1.2545 -0.0042
 7451TIP3    H243769   2.575   1.826   4.870  1.1919 -1.3803 -0.7237
 7452TIP3   OH243770   2.926   2.779   0.666  0.0801  0.0852 -0.7177
 7452TIP3    H143771   3.007   2.788   0.616 -0.4166  0.7929 -1.4232
 7452TIP3    H243772   2.859   2.765   0.599 -0.8072  2.3190 -0.3861
 7453TIP3   OH243773   0.133   3.031   1.030 -0.2352 -0.2661 -0.1348
 7453TIP3    H143774   0.192   3.096   1.069  1.1574 -0.4529 -1.8023
 7453TIP3    H243775   0.053   3.080   1.012  0.4624  0.7701 -0.5154
 7454TIP3   OH243776   6.397   0.416  10.857  0.0317  0.1371 -0.3754
 7454TIP3    H143777   6.320   0.469  10.875 -0.1203 -0.1048 -0.3001
 7454TIP3    H243778   6.393   0.399  10.763  0.7475  1.2800 -0.6329
 7455TIP3   OH243779   5.626   4.725   3.481 -0.0165  0.1891 -0.1424
 7455TIP3    H143780   5.676   4.802   3.505  0.4001 -0.3564  0.7736
 7455TIP3    H243781   5.614   4.677   3.563 -0.2095 -0.7531 -0.7079
 7456TIP3   OH243782   4.089   5.890  13.677  1.2844  0.2001 -0.0787
 7456TIP3    H143783   4.021   5.892  13.744  1.3515 -0.2552  0.0070
 7456TIP3    H243784   4.126   5.978  13.677  1.5609  0.0912  0.7661
 7457TIP3   OH243785   6.690   6.774  15.729 -0.4885  0.2870  0.2537
 7457TIP3    H143786   6.631   6.765  15.654  0.7060  2.9211 -1.1078
 7457TIP3    H243787   6.673   6.862  15.762  2.4567  1.0585 -0.0537
 7458TIP3   OH243788   0.838   0.203   0.603 -0.2119 -0.6016 -0.0565
 7458TIP3    H143789   0.877   0.123   0.637  3.2791  0.7319 -0.5853
 7458TIP3    H243790   0.846   0.195   0.508 -0.7284 -0.0174 -0.1567
 7459TIP3   OH243791   0.644   0.880  15.766 -0.1768 -0.8998 -0.3921
 7459TIP3    H143792   0.553   0.907  15.768  0.2937  0.8479  1.2428
 7459TIP3    H243793   0.659   0.839  15.851  0.5524 -1.1329 -0.6203
 7460TIP3   OH243794   4.563   2.057   4.476  0.3263  0.4846 -0.3706
 7460TIP3    H143795   4.568   1.993   4.547 -0.5739  0.4648 -0.3157
 7460TIP3    H243796   4.623   2.127   4.503  1.6940 -0.5172 -0.6530
 7461TIP3   OH243797   6.389   3.156   0.031 -0.0331 -0.2600 -0.4419
 7461TIP3    H143798   6.361   3.064   0.028  1.5075 -0.8031  0.3991
 7461TIP3    H243799   6.431   3.171  -0.053 -0.8200 -0.1378 -0.8159
 7462TIP3   OH243800   3.908   6.624  12.741 -0.5434  0.2733 -0.0525
 7462TIP3    H143801   3.840   6.638  12.675  0.8881  1.6184 -1.2967
 7462TIP3    H243802   3.952   6.544  12.713  0.8846  1.5181 -1.5327
 7463TIP3   OH243803   3.591   4.251   4.890 -0.7499  0.0940  0.7658
 7463TIP3    H143804   3.651   4.324   4.907  1.4492 -1.0349 -1.4484
 7463TIP3    H243805   3.601   4.193   4.966  0.3659  0.3423  0.8323
 7464TIP3   OH243806   5.987   2.443   4.253  0.2659 -0.1174  0.6654
 7464TIP3    H143807   5.899   2.480   4.256 -0.1751 -1.1313  0.5355
 7464TIP3    H243808   5.985   2.370   4.315  0.9201 -0.3386  0.4398
 7465TIP3   OH243809   4.264   2.870  15.170 -0.1250  0.4002  0.3888
 7465TIP3    H143810   4.339   2.862  15.112 -0.3135  1.9394 -0.0950
 7465TIP3    H243811   4.188   2.853  15.114 -0.2487  0.8279  0.4250
 7466TIP3   OH243812   6.183   5.730  14.290  1.2355  0.3498 -0.0809
 7466TIP3    H143813   6.243   5.782  14.344  1.7731  1.1140 -1.3738
 7466TIP3    H243814   6.240   5.666  14.247  0.6659 -0.9336  0.9998
 7467TIP3   OH243815   1.269   5.747  17.161 -0.4838 -0.2660  0.0794
 7467TIP3    H143816   1.339   5.753  17.226  0.6101 -0.0087 -1.0648
 7467TIP3    H243817   1.315   5.755  17.077 -2.1448  2.9181 -0.6948
 7468TIP3   OH243818   5.956   4.932  14.749 -0.2737  0.5813  0.3966
 7468TIP3    H143819   5.868   4.966  14.765 -0.4211  0.0434  0.7671
 7468TIP3    H243820   5.953   4.843  14.783  0.6277  0.8068  1.0943
 7469TIP3   OH243821   3.321   3.960   3.834  0.1758  0.4054  0.4337
 7469TIP3    H143822   3.332   3.963   3.739  0.4503 -0.1643  0.4399
 7469TIP3    H243823   3.404   3.924   3.867 -0.4446 -0.8048  0.7589
 7470TIP3   OH243824   0.782   3.883  15.702 -0.8897  0.6483 -0.2307
 7470TIP3    H143825   0.798   3.914  15.791 -1.3940 -2.5099  1.0980
 7470TIP3    H243826   0.694   3.913  15.681 -1.5942 -0.2779  1.2280
 7471TIP3   OH243827   1.795   4.532   3.271 -0.7813  0.8024 -1.1259
 7471TIP3    H143828   1.757   4.445   3.286 -1.0853  1.0850 -0.1579
 7471TIP3    H243829   1.804   4.538   3.176  1.2082 -1.1233 -1.1374
 7472TIP3   OH243830   3.920   0.683  16.472  0.4895 -0.3720 -0.2914
 7472TIP3    H143831   4.009   0.660  16.448  0.8270 -0.9396  1.3913
 7472TIP3    H243832   3.867   0.608  16.446  0.6778 -0.5350 -0.1984
 7473TIP3   OH243833   2.772   5.975  16.372 -0.3791 -0.2795 -0.0514
 7473TIP3    H143834   2.820   5.892  16.368 -2.1349 -1.3189 -0.4031
 7473TIP3    H243835   2.680   5.949  16.369 -0.9583  1.7024 -0.2403
 7474TIP3   OH243836   5.959   4.447  13.830 -0.1332  0.2900 -0.0079
 7474TIP3    H143837   5.967   4.506  13.756  0.8135 -0.6930 -0.7304
 7474TIP3    H243838   5.969   4.503  13.907  0.4509  1.1042 -0.6588
 7475TIP3   OH243839   0.703   2.582   5.152  0.2848  0.0250  0.7477
 7475TIP3    H143840   0.675   2.572   5.061  1.2715 -3.1023  0.6521
 7475TIP3    H243841   0.793   2.547   5.153  1.4215  2.6554  2.4309
 7476TIP3   OH243842   2.992   5.957   4.236  0.2133 -0.0328  0.1556
 7476TIP3    H143843   3.067   5.954   4.294 -0.6793  1.3886  1.4458
 7476TIP3    H243844   2.974   6.050   4.223 -1.4767 -0.3258  0.0933
 7477TIP3   OH243845   3.510   2.611   2.102 -0.1082  0.0286 -0.3042
 7477TIP3    H143846   3.444   2.660   2.151 -1.2551  0.1230 -1.8538
 7477TIP3    H243847   3.558   2.679   2.054 -0.2508 -0.1938 -0.7638
 7478TIP3   OH243848   1.477   3.500   0.853 -0.4676  0.6329  0.6935
 7478TIP3    H143849   1.485   3.409   0.880  0.8387  1.3869  3.1152
 7478TIP3    H243850   1.421   3.497   0.775  1.2933 -2.4163 -0.6477
 7479TIP3   OH243851   3.287   2.577   5.584  0.5288 -1.0423  0.0644
 7479TIP3    H143852   3.267   2.485   5.570  0.0421 -0.8170 -0.7459
 7479TIP3    H243853   3.213   2.610   5.636 -0.3895 -0.6142 -1.4722
 7480TIP3   OH243854   2.074   6.280   0.983  0.2842 -0.9961 -0.2888
 7480TIP3    H143855   2.086   6.278   1.078 -1.5303 -0.1194  0.0190
 7480TIP3    H243856   2.113   6.363   0.955 -0.0299 -0.7962 -0.1445
 7481TIP3   OH243857   6.133   4.641   6.619 -0.1170  0.1424 -0.3159
 7481TIP3    H143858   6.074   4.697   6.669 -1.3714 -1.0666 -0.3772
 7481TIP3    H243859   6.218   4.652   6.661 -0.4081  1.7668 -0.0939
 7482TIP3   OH243860   6.246   3.973  11.369 -0.4544  0.1108  0.1894
 7482TIP3    H143861   6.193   3.988  11.290 -2.2589 -0.1070  1.3081
 7482TIP3    H243862   6.185   3.986  11.441  0.9242 -0.6488  1.5335
 7483TIP3   OH243863   0.553   6.606  15.277  0.4453 -0.2079 -0.3134
 7483TIP3    H143864   0.492   6.674  15.251  0.0826 -0.9764 -1.5708
 7483TIP3    H243865   0.515   6.569  15.356 -0.3287 -0.1717 -0.6577
 7484TIP3   OH243866   0.904   6.288  15.831  0.9240 -0.5022 -0.0871
 7484TIP3    H143867   0.953   6.370  15.834  1.8629 -1.0945  1.7930
 7484TIP3    H243868   0.873   6.282  15.740  0.3287  2.2035 -0.1319
 7485TIP3   OH243869   3.778   5.145   2.233  0.1049 -0.1482 -0.0169
 7485TIP3    H143870   3.769   5.122   2.141 -0.2488 -0.8486  0.1846
 7485TIP3    H243871   3.721   5.221   2.245 -0.9962 -0.9476 -0.0592
 7486TIP3   OH243872   5.069   6.159  14.096  0.8319  0.2822 -0.0320
 7486TIP3    H143873   5.057   6.088  14.159 -0.9312  0.2471 -0.3442
 7486TIP3    H243874   5.069   6.115  14.010  1.5660  0.4946 -0.1485
 7487TIP3   OH243875   2.665   0.115   2.220  0.3849 -0.5873 -0.7881
 7487TIP3    H143876   2.741   0.125   2.277 -0.7722 -0.6050  0.8246
 7487TIP3    H243877   2.702   0.105   2.132  2.1868  0.5929 -0.2168
 7488TIP3   OH243878   4.339   2.770   1.638 -0.4354  0.1604  0.6642
 7488TIP3    H143879   4.395   2.833   1.592  1.2976 -0.2218  2.1468
 7488TIP3    H243880   4.319   2.811   1.722 -1.0947 -0.3878  0.7871
 7489TIP3   OH243881   1.432   1.978   0.251 -0.2792  0.1679  0.0042
 7489TIP3    H143882   1.491   1.941   0.185  0.7245  0.2634  0.8441
 7489TIP3    H243883   1.488   2.029   0.308 -1.0502 -0.3559  1.2646
 7490TIP3   OH243884   0.516   6.059   4.480 -0.3064  0.6517 -0.3971
 7490TIP3    H143885   0.428   6.095   4.467 -0.6672  0.4564  1.3035
 7490TIP3    H243886   0.501   5.965   4.491 -0.2883  0.9454  2.8922
 7491TIP3   OH243887   2.870   5.157   1.360  0.2900 -0.0445 -0.3172
 7491TIP3    H143888   2.876   5.239   1.312  0.7851 -1.3632 -2.7040
 7491TIP3    H243889   2.960   5.137   1.385  0.6218 -1.1190 -2.1665
 7492TIP3   OH243890   1.132   2.268  14.657  0.0010 -0.9309 -0.1700
 7492TIP3    H143891   1.209   2.272  14.600 -1.3989 -1.2838 -2.1758
 7492TIP3    H243892   1.114   2.360  14.679 -0.7813 -0.5270 -2.2586
 7493TIP3   OH243893   1.794   2.621   5.757 -0.1242 -0.3111  0.2088
 7493TIP3    H143894   1.867   2.563   5.739 -0.1158 -0.6953  1.4581
 7493TIP3    H243895   1.779   2.615   5.851  0.0375  1.8903  0.4302
 7494TIP3   OH243896   2.137   1.627  13.689  0.3253 -0.2753 -0.1723
 7494TIP3    H143897   2.187   1.689  13.741 -0.9285 -0.1637  0.9446
 7494TIP3    H243898   2.190   1.614  13.610  0.3734  2.5832 -0.6912
 7495TIP3   OH243899   5.653   6.617  16.676  0.3152  0.1808 -0.8486
 7495TIP3    H143900   5.576   6.656  16.634  0.9856  0.5063 -1.7994
 7495TIP3    H243901   5.712   6.596  16.603  0.5244 -1.4105 -0.2617
 7496TIP3   OH243902   1.715   0.858  16.694 -0.4716 -0.0626  0.1750
 7496TIP3    H143903   1.741   0.871  16.785 -0.1121 -1.4126  0.2778
 7496TIP3    H243904   1.623   0.830  16.699  0.1469 -2.2508  0.3082
 7497TIP3   OH243905   3.402   5.704   2.047 -0.1009 -0.2069  0.6676
 7497TIP3    H143906   3.397   5.625   2.101 -0.9856  1.0849  2.5783
 7497TIP3    H243907   3.350   5.682   1.969  1.3538 -2.1770  0.1802
 7498TIP3   OH243908   1.363   2.585  16.671 -0.2824  0.3626  0.1095
 7498TIP3    H143909   1.276   2.625  16.669 -1.2459 -1.5945  0.2047
 7498TIP3    H243910   1.353   2.504  16.621  1.9581  0.8858 -1.3155
 7499TIP3   OH243911   3.751   4.786  15.336 -0.1009 -0.6933  0.2038
 7499TIP3    H143912   3.751   4.876  15.368 -0.3222 -0.9905  1.0696
 7499TIP3    H243913   3.805   4.788  15.257 -1.0774  0.4232 -0.4546
 7500TIP3   OH243914   2.914   5.175  14.957 -0.1173  0.0169  0.4001
 7500TIP3    H143915   2.960   5.192  14.874  0.6233  1.8581  1.1333
 7500TIP3    H243916   2.982   5.143  15.016 -0.2249  0.6000  0.8498
 7501TIP3   OH243917   2.196   6.114  15.498  0.0029 -0.5220 -0.2479
 7501TIP3    H143918   2.104   6.089  15.501 -0.0627 -1.3282 -3.9674
 7501TIP3    H243919   2.243   6.031  15.505  0.2368 -0.5687 -1.9801
 7502TIP3   OH243920   4.863   2.439  12.715  0.5798 -0.2828  0.0628
 7502TIP3    H143921   4.789   2.498  12.730  0.6432  0.3805 -2.0336
 7502TIP3    H243922   4.916   2.447  12.795 -0.2284  1.2658  0.4812
 7503TIP3   OH243923   4.109   5.888  16.978 -0.3990  0.0543 -0.6578
 7503TIP3    H143924   4.087   5.944  17.053 -0.9870 -2.3172  1.0312
 7503TIP3    H243925   4.168   5.942  16.925 -0.3286  1.9955  1.2606
 7504TIP3   OH243926   0.753   0.900   6.310  0.6668 -0.0546  0.4737
 7504TIP3    H143927   0.689   0.849   6.360 -0.7030  1.5137  0.4056
 7504TIP3    H243928   0.718   0.902   6.221  0.5598  1.1703  0.5246
 7505TIP3   OH243929   6.561   0.539   5.672 -0.2841  0.2312  0.1493
 7505TIP3    H143930   6.644   0.587   5.681  0.5904 -1.1254 -0.2621
 7505TIP3    H243931   6.544   0.538   5.578 -1.3454  1.3827  0.3044
 7506TIP3   OH243932   3.170   2.193  14.800  0.1220 -0.2646  0.2097
 7506TIP3    H143933   3.165   2.288  14.789  1.2884 -0.1492  0.5234
 7506TIP3    H243934   3.262   2.176  14.822 -0.6533 -1.1605  3.1481
 7507TIP3   OH243935   5.763   4.610   1.028 -0.2936  0.4937  0.1863
 7507TIP3    H143936   5.828   4.594   1.096  0.7565 -3.2389 -1.4692
 7507TIP3    H243937   5.679   4.599   1.073  0.2987  0.6399  1.3726
 7508TIP3   OH243938   4.192   1.179  14.148  0.6751 -0.1690 -0.4682
 7508TIP3    H143939   4.105   1.203  14.118  1.0207  1.4935 -0.2707
 7508TIP3    H243940   4.246   1.255  14.125  1.5025  0.0126  1.8659
 7509TIP3   OH243941   5.147   0.914  12.779  0.1336 -0.4199 -0.6185
 7509TIP3    H143942   5.098   0.964  12.843 -0.0570  0.4261 -1.4095
 7509TIP3    H243943   5.188   0.844  12.830 -0.6324 -0.2269  0.2934
 7510TIP3   OH243944   2.305   1.435   6.161 -0.0956 -0.2813 -0.2888
 7510TIP3    H143945   2.285   1.487   6.239 -3.9879 -0.7744 -0.7417
 7510TIP3    H243946   2.350   1.358   6.195  0.7771  0.7668  1.0693
 7511TIP3   OH243947   0.978   4.917  16.946 -0.8472 -0.3895  0.3421
 7511TIP3    H143948   0.966   4.822  16.939 -0.6373 -0.3897 -0.0631
 7511TIP3    H243949   1.070   4.928  16.972  0.2539 -0.2379 -3.0302
 7512TIP3   OH243950   0.892   5.593  11.214 -0.1693 -0.8412 -0.2876
 7512TIP3    H143951   0.857   5.510  11.184 -0.7500 -0.2763 -1.2209
 7512TIP3    H243952   0.941   5.571  11.293  1.1025 -2.3270 -1.4243
 7513TIP3   OH243953   1.132   5.184  12.389  0.0412 -0.3274  0.1945
 7513TIP3    H143954   1.070   5.180  12.316 -1.4841 -1.4897  1.4827
 7513TIP3    H243955   1.077   5.182  12.468  1.6875 -0.6349  1.3948
 7514TIP3   OH243956   1.588   6.217  12.684  0.4596 -0.1600 -0.1698
 7514TIP3    H143957   1.596   6.307  12.651  2.0660  0.0975  0.7997
 7514TIP3    H243958   1.497   6.210  12.713  1.0170  2.2923  2.7044
 7515TIP3   OH243959   3.145   0.077   4.835 -0.4385 -0.4160  0.1976
 7515TIP3    H143960   3.103   0.120   4.761 -0.9866  1.1836  1.3738
 7515TIP3    H243961   3.072   0.047   4.890 -0.5446  4.9145  3.7473
 7516TIP3   OH243962   5.533   0.981  15.871  0.5016 -0.6129 -0.5253
 7516TIP3    H143963   5.551   1.071  15.844  0.9218 -0.2706  0.7991
 7516TIP3    H243964   5.599   0.929  15.825  0.2767 -0.2499 -1.2756
 7517TIP3   OH243965   3.591   2.563   3.889  0.2510  0.0572 -0.2944
 7517TIP3    H143966   3.534   2.639   3.879  0.9854  1.0316  2.1801
 7517TIP3    H243967   3.676   2.599   3.915  0.6260 -1.5632  0.9482
 7518TIP3   OH243968   0.499   1.870  16.647  0.2386  0.2493 -0.2946
 7518TIP3    H143969   0.457   1.798  16.601  1.7357 -1.0799  0.2938
 7518TIP3    H243970   0.478   1.855  16.740 -0.8943  1.6204 -0.2833
 7519TIP3   OH243971   2.964   1.388  11.374  0.3322 -0.5753 -0.0977
 7519TIP3    H143972   2.940   1.479  11.354 -0.3842 -0.3571  1.5510
 7519TIP3    H243973   3.016   1.360  11.299  2.9093  2.0796  0.5311
 7520TIP3   OH243974   4.779   1.911  13.962  0.2312  0.0193  0.5679
 7520TIP3    H143975   4.735   1.986  13.920 -1.6897 -1.4318 -0.1671
 7520TIP3    H243976   4.723   1.890  14.036 -0.8785 -2.3801 -0.8410
 7521TIP3   OH243977   1.515   2.662   0.483  0.7885  0.5087  0.2478
 7521TIP3    H143978   1.462   2.738   0.505  1.8833  1.1882  0.5782
 7521TIP3    H243979   1.553   2.683   0.398 -0.6375 -0.6291 -0.7411
 7522TIP3   OH243980   6.125   1.843   3.133  0.1410  0.0513  0.4920
 7522TIP3    H143981   6.103   1.934   3.150 -2.7706 -0.3958 -0.3225
 7522TIP3    H243982   6.126   1.802   3.220  1.6908  0.8457  0.8821
 7523TIP3   OH243983   4.308   2.296  14.685 -0.3730 -1.0614  0.2731
 7523TIP3    H143984   4.397   2.325  14.668 -1.2841  1.0264 -1.3648
 7523TIP3    H243985   4.292   2.317  14.777  0.3622 -0.1226  0.1962
 7524TIP3   OH243986   5.455   4.683  16.825 -0.3427  0.0079  0.6998
 7524TIP3    H143987   5.512   4.628  16.770  0.1687 -0.9229  2.0896
 7524TIP3    H243988   5.512   4.712  16.897 -1.6410 -1.1926  2.3039
 7525TIP3   OH243989   0.246   5.887  17.249  0.1341  0.4428  0.6778
 7525TIP3    H143990   0.190   5.889  17.327  1.3252 -1.1455  1.6468
 7525TIP3    H243991   0.334   5.905  17.282  1.1653 -3.1809  0.3037
 7526TIP3   OH243992   5.628   5.459   1.862  0.0247  0.1492 -0.2501
 7526TIP3    H143993   5.627   5.419   1.775  1.3255 -0.4648 -0.0158
 7526TIP3    H243994   5.713   5.434   1.899 -0.2793  0.8425  0.9934
 7527TIP3   OH243995   5.034   4.496  14.827  0.2192  0.0251 -0.1710
 7527TIP3    H143996   5.071   4.561  14.768  2.1104 -0.6162  0.2324
 7527TIP3    H243997   5.070   4.518  14.913 -0.3962 -0.5959  0.2564
 7528TIP3   OH243998   2.197   3.721   3.857 -0.3867 -0.3971 -0.4120
 7528TIP3    H143999   2.254   3.798   3.862 -1.6779  0.5286  1.9540
 7528TIP3    H244000   2.239   3.657   3.913 -1.6212  0.3448  1.4739
 7529TIP3   OH244001   6.246   1.139   5.111  0.3707  0.4462  0.2390
 7529TIP3    H144002   6.244   1.174   5.023  1.1222 -0.2896 -0.0860
 7529TIP3    H244003   6.173   1.181   5.156 -0.8987 -0.2355 -1.1354
 7530TIP3   OH244004   0.192   4.291   3.144  0.0479 -0.4346  0.7486
 7530TIP3    H144005   0.197   4.386   3.139 -0.1332 -0.3486  1.9861
 7530TIP3    H244006   0.278   4.260   3.116 -0.1966  0.0235 -0.6227
 7531TIP3   OH244007   5.567   2.994   2.546  0.6337  0.0436  0.5124
 7531TIP3    H144008   5.537   2.908   2.575  0.4983  0.3464  1.2838
 7531TIP3    H244009   5.583   2.983   2.452 -0.2136 -0.5889  0.4295
 7532TIP3   OH244010   0.082   5.151   4.301 -0.2844 -0.1755 -0.2115
 7532TIP3    H144011   0.140   5.080   4.273 -0.1273  0.3170 -1.1803
 7532TIP3    H244012   0.055   5.193   4.220 -1.2517  0.1949  0.2880
 7533TIP3   OH244013   6.627   6.387   1.819  0.0860  0.5819 -0.0610
 7533TIP3    H144014   6.583   6.413   1.900 -2.1817 -3.4545  0.2813
 7533TIP3    H244015   6.684   6.315   1.846  1.6947  1.2010 -1.6542
 7534TIP3   OH244016   6.252   3.135  12.305 -0.0205 -0.3693 -0.1177
 7534TIP3    H144017   6.228   3.086  12.226  1.3118 -1.0151 -0.1502
 7534TIP3    H244018   6.310   3.076  12.353  1.0467  0.8860  0.1974
 7535TIP3   OH244019   6.197   3.095  14.481 -0.3107 -0.1188 -0.3784
 7535TIP3    H144020   6.276   3.046  14.504 -0.0876  0.1231 -0.6226
 7535TIP3    H244021   6.220   3.186  14.495 -0.2049  0.0316 -1.4036
 7536TIP3   OH244022   2.765   6.695  15.344 -0.2713  0.1542  0.5273
 7536TIP3    H144023   2.774   6.759  15.415  0.3667 -1.5263  2.0538
 7536TIP3    H244024   2.673   6.700  15.318 -0.5077  0.8592  1.4527
 7537TIP3   OH244025   2.194   2.102   4.729 -0.1330  0.2553 -0.2348
 7537TIP3    H144026   2.144   2.067   4.656  0.8288 -1.3603 -0.1783
 7537TIP3    H244027   2.191   2.034   4.796  1.9750  0.1189 -0.1874
 7538TIP3   OH244028   2.709   6.078   5.132 -0.2110 -0.1293 -0.3402
 7538TIP3    H144029   2.736   6.060   5.222  1.3393 -1.4462 -1.0202
 7538TIP3    H244030   2.760   6.156   5.108  1.6771 -1.5006 -0.9945
 7539TIP3   OH244031   2.515   6.475   0.785  0.3433 -0.0355 -0.3518
 7539TIP3    H144032   2.550   6.551   0.831  0.2706 -0.0220 -0.3185
 7539TIP3    H244033   2.500   6.506   0.695 -0.2548  0.1639 -0.1889
 7540TIP3   OH244034   4.953   3.412  11.325 -0.4384  0.2381 -0.1931
 7540TIP3    H144035   4.930   3.321  11.343 -0.4254  0.4132  0.7315
 7540TIP3    H244036   4.889   3.441  11.260 -0.7608 -0.2713 -0.1044
 7541TIP3   OH244037   2.355   4.876   3.427  0.6972  0.0882  0.2219
 7541TIP3    H144038   2.267   4.873   3.466  1.2991 -2.8635  1.6687
 7541TIP3    H244039   2.391   4.789   3.444  3.6572  0.9672 -0.9672
 7542TIP3   OH244040   0.774   2.687   1.417 -0.3211  0.4882  0.2087
 7542TIP3    H144041   0.776   2.783   1.411 -1.5713  0.6469  1.8692
 7542TIP3    H244042   0.705   2.668   1.480 -1.3252 -1.5933 -1.3938
 7543TIP3   OH244043   0.899   0.561   3.365  0.1087 -0.4081  0.5277
 7543TIP3    H144044   0.834   0.491   3.357  0.6102 -0.8313  0.0200
 7543TIP3    H244045   0.969   0.534   3.306 -0.3519  1.2805 -0.8640
 7544TIP3   OH244046   5.405   0.978   2.898 -0.3783  0.4288 -0.1213
 7544TIP3    H144047   5.442   1.066   2.899  0.0508  0.2478  0.5060
 7544TIP3    H244048   5.349   0.974   2.976 -0.5328  0.1989 -0.2407
 7545TIP3   OH244049   1.384   1.931  15.006 -0.2520 -0.2063 -0.0819
 7545TIP3    H144050   1.406   1.940  15.099  2.0171  0.3185 -0.5930
 7545TIP3    H244051   1.312   1.993  14.993  0.4753  0.9494  1.0191
 7546TIP3   OH244052   1.800   0.642   3.614 -0.3715  0.2784  0.2463
 7546TIP3    H144053   1.806   0.601   3.528 -1.9054 -0.4788  0.4491
 7546TIP3    H244054   1.713   0.617   3.645 -0.2803  1.4699  1.5441
 7547TIP3   OH244055   4.928   5.066   2.658  0.1320 -0.0376  0.1753
 7547TIP3    H144056   4.931   5.105   2.571  1.3076  0.6097  0.4844
 7547TIP3    H244057   4.902   4.975   2.643  0.5986 -0.0071 -0.8777
 7548TIP3   OH244058   2.385   3.188  10.966 -0.1906 -0.6822  0.1569
 7548TIP3    H144059   2.453   3.138  10.921 -0.3782  0.0559 -0.9860
 7548TIP3    H244060   2.327   3.218  10.897 -0.1922  0.9638  0.8014
 7549TIP3   OH244061   3.294   5.101   5.670  0.1177  0.3270 -0.4495
 7549TIP3    H144062   3.212   5.089   5.719 -0.6245 -0.1780 -1.7523
 7549TIP3    H244063   3.337   5.175   5.712 -0.7923  0.3113  0.5480
 7550TIP3   OH244064   2.376   3.645   1.923 -0.1030 -0.0165 -0.1314
 7550TIP3    H144065   2.419   3.579   1.977 -1.2073  0.2182  1.1088
 7550TIP3    H244066   2.319   3.596   1.864  0.1549 -0.2258 -0.2062
 7551TIP3   OH244067   2.321   3.191  12.144  0.0678 -0.9070 -0.3307
 7551TIP3    H144068   2.249   3.249  12.120 -1.3684 -1.8811  1.3842
 7551TIP3    H244069   2.302   3.108  12.100  1.3920 -0.5361 -1.6842
 7552TIP3   OH244070   4.867   6.347  16.313 -0.4683  0.1028 -0.2312
 7552TIP3    H144071   4.903   6.430  16.283  0.4958 -0.3206 -0.3024
 7552TIP3    H244072   4.814   6.315  16.240 -1.6480  1.1069  0.1615
 7553TIP3   OH244073   1.329   0.001  13.409 -0.8720  0.1703  0.4130
 7553TIP3    H144074   1.340   0.096  13.418  0.0737  0.1657 -0.4330
 7553TIP3    H244075   1.297  -0.028  13.494 -0.3932  1.1474  0.9447
 7554TIP3   OH244076   3.585   5.446   5.671  0.1779  1.0027 -0.0995
 7554TIP3    H144077   3.678   5.462   5.687 -0.1211  2.2767  0.5182
 7554TIP3    H244078   3.561   5.377   5.733  0.6233  0.9563  0.0219
 7555TIP3   OH244079   2.491   0.869   2.031 -0.3470  0.0042 -0.0006
 7555TIP3    H144080   2.470   0.779   2.057  0.9049  0.6524  3.9225
 7555TIP3    H244081   2.576   0.862   1.988  0.3660 -0.6249  1.4496
 7556TIP3   OH244082   5.230   5.310  11.516 -0.0676 -0.7206  0.0255
 7556TIP3    H144083   5.279   5.385  11.548 -1.4010  0.5267 -0.7407
 7556TIP3    H244084   5.178   5.281  11.591 -0.6006  0.0294 -0.0418
 7557TIP3   OH244085   4.009   3.979   3.337 -0.4256  0.3579 -0.1947
 7557TIP3    H144086   4.021   4.009   3.426  0.8236  0.0778 -0.2389
 7557TIP3    H244087   3.930   3.925   3.339 -3.0058  3.8486 -0.2155
 7558TIP3   OH244088   2.155   0.492   1.754  0.0773 -0.0361 -0.5908
 7558TIP3    H144089   2.160   0.472   1.847 -1.8766  0.6005 -0.3077
 7558TIP3    H244090   2.236   0.457   1.717  0.9035 -0.2639  1.3413
 7559TIP3   OH244091   5.581   2.585   3.769  0.1802  0.0183  0.0600
 7559TIP3    H144092   5.506   2.642   3.756 -1.2423 -1.3383  1.7484
 7559TIP3    H244093   5.631   2.626   3.839 -0.1128 -0.1187  0.3508
 7560TIP3   OH244094   4.486   1.897   3.864 -0.1514 -0.1543  0.6750
 7560TIP3    H144095   4.517   1.987   3.857  2.1849 -0.9708 -0.7041
 7560TIP3    H244096   4.541   1.858   3.932 -0.8630 -0.6571  0.9760
 7561TIP3   OH244097   5.660   2.044  11.343 -0.0562  0.0714  0.1300
 7561TIP3    H144098   5.584   1.986  11.353 -1.2864  1.1200 -2.2890
 7561TIP3    H244099   5.734   1.985  11.330 -1.0825 -1.0260 -1.0667
 7562TIP3   OH244100   3.646   6.136  12.925  0.1095 -0.6351 -0.3327
 7562TIP3    H144101   3.712   6.068  12.913 -1.0099 -1.9235  0.5462
 7562TIP3    H244102   3.566   6.099  12.890 -0.4495  0.3802 -0.1610
 7563TIP3   OH244103   5.646   2.862  16.450 -0.1136 -0.6793 -0.0981
 7563TIP3    H144104   5.697   2.918  16.392  0.0416 -1.8444 -1.1234
 7563TIP3    H244105   5.652   2.775  16.411 -2.1977 -1.0152  0.1888
 7564TIP3   OH244106   3.852   3.835  16.389 -0.4969  0.6541 -0.2067
 7564TIP3    H144107   3.877   3.800  16.304  1.9146  0.4507  0.5233
 7564TIP3    H244108   3.817   3.760  16.437  1.6813 -0.1356  0.2429
 7565TIP3   OH244109   3.878   4.799   3.931 -0.1610  0.1885 -0.2447
 7565TIP3    H144110   3.880   4.775   3.838 -0.5772 -0.4550 -0.0983
 7565TIP3    H244111   3.885   4.715   3.977  0.0962  0.5086  0.3092
 7566TIP3   OH244112   4.631   6.758   4.538 -0.6482  0.2135  0.3538
 7566TIP3    H144113   4.635   6.706   4.457 -0.4425  2.1313 -0.9418
 7566TIP3    H244114   4.716   6.746   4.579 -0.5215 -0.2802 -0.0494
 7567TIP3   OH244115   2.227   1.943   1.448  0.3064 -0.4678 -0.7070
 7567TIP3    H144116   2.298   2.008   1.443  0.4903 -0.5063  0.8951
 7567TIP3    H244117   2.194   1.937   1.359  0.1867  1.9566 -0.8992
 7568TIP3   OH244118   5.826   0.054   2.510  0.1127 -0.3502 -0.0560
 7568TIP3    H144119   5.765   0.003   2.458  0.0297  1.5915 -2.0266
 7568TIP3    H244120   5.774   0.128   2.543  0.2199 -1.4024  2.7069
 7569TIP3   OH244121   5.444   5.584  10.726  0.5157  0.1624  0.9946
 7569TIP3    H144122   5.462   5.545  10.640 -1.4169  1.1688  0.0662
 7569TIP3    H244123   5.450   5.678  10.712 -1.9208  0.4372  1.3709
 7570TIP3   OH244124   2.798   3.834   3.725  0.0306 -0.3978 -0.1686
 7570TIP3    H144125   2.806   3.917   3.678  2.4480 -0.7015 -0.4438
 7570TIP3    H244126   2.819   3.767   3.660 -1.0694 -1.1747  0.2552
 7571TIP3   OH244127   0.027   3.662  15.838  0.7179 -0.0253  0.3642
 7571TIP3    H144128   0.090   3.645  15.768 -0.0609  0.5337 -0.5092
 7571TIP3    H244129   0.039   3.754  15.859  1.2588 -0.3018  1.3018
 7572TIP3   OH244130   5.268   5.368   5.536 -0.5400  0.0733  0.1419
 7572TIP3    H144131   5.356   5.384   5.569  0.4749 -1.7872 -1.4482
 7572TIP3    H244132   5.213   5.364   5.614  0.9958  0.0311  1.2558
 7573TIP3   OH244133   6.579   3.487  11.966  0.0220 -0.1367 -0.3238
 7573TIP3    H144134   6.577   3.582  11.961 -0.7232 -0.2234 -3.3963
 7573TIP3    H244135   6.665   3.462  11.932  0.7602 -0.6049  1.7087
 7574TIP3   OH244136   6.066   2.879  15.889 -0.3742  0.5969  0.3926
 7574TIP3    H144137   5.994   2.823  15.862  1.1045 -0.9532 -0.4780
 7574TIP3    H244138   6.039   2.967  15.863 -1.7225 -0.0113 -0.3481
 7575TIP3   OH244139   5.603   1.717  11.738  0.4396 -0.6671  0.6876
 7575TIP3    H144140   5.693   1.692  11.758  1.3807  0.7015 -1.4336
 7575TIP3    H244141   5.579   1.663  11.663  0.2836  0.3966 -0.0613
 7576TIP3   OH244142   3.976   3.829   0.422 -0.2843 -0.0439 -0.1183
 7576TIP3    H144143   4.006   3.823   0.331 -0.9148  2.1075 -0.5387
 7576TIP3    H244144   3.904   3.892   0.419 -0.1048  0.3142  1.9178
 7577TIP3   OH244145   0.117   5.552  14.569  0.3444 -0.2587 -0.2752
 7577TIP3    H144146   0.052   5.599  14.517  0.8611  0.3558 -0.3766
 7577TIP3    H244147   0.152   5.618  14.629  0.6883 -0.6490 -0.0415
 7578TIP3   OH244148   4.447   0.161   5.556 -0.5391  0.1906  0.2919
 7578TIP3    H144149   4.464   0.125   5.643 -1.5760 -1.6551 -0.2084
 7578TIP3    H244150   4.475   0.092   5.496 -2.9916 -0.0459 -0.7045
 7579TIP3   OH244151   0.758   1.209   1.596  0.8979 -0.3550 -0.4096
 7579TIP3    H144152   0.718   1.292   1.569  1.5411 -0.4248 -1.6154
 7579TIP3    H244153   0.695   1.171   1.656 -0.1603  0.2445 -1.1151
 7580TIP3   OH244154   3.218   0.804  15.275  0.3457 -0.5996 -0.1624
 7580TIP3    H144155   3.226   0.712  15.301 -1.4414 -1.1611 -1.4168
 7580TIP3    H244156   3.273   0.851  15.338  3.0889 -2.6918 -0.8020
 7581TIP3   OH244157   2.994   1.475  15.784 -0.4992  0.0168 -0.3687
 7581TIP3    H144158   3.028   1.551  15.832 -0.0654  0.0362 -0.7060
 7581TIP3    H244159   2.899   1.489  15.784 -0.6144 -0.4771  1.3255
 7582TIP3   OH244160   2.953   1.454   0.517  0.4515 -0.3447 -0.0316
 7582TIP3    H144161   3.019   1.389   0.540  0.6918 -0.2395 -0.4190
 7582TIP3    H244162   2.941   1.444   0.423  0.0103 -0.2741  0.0149
 7583TIP3   OH244163   4.717   3.240   3.334 -0.1525 -0.5020 -0.3963
 7583TIP3    H144164   4.711   3.310   3.399  0.1618  0.8264 -1.7690
 7583TIP3    H244165   4.636   3.190   3.345 -0.3633  0.0381  0.6124
 7584TIP3   OH244166   6.058   4.349  16.527  0.2944 -0.0749  0.3411
 7584TIP3    H144167   6.029   4.268  16.484  1.2673 -0.5804  0.5944
 7584TIP3    H244168   6.153   4.348  16.517  0.3914  0.6068  1.0992
 7585TIP3   OH244169   1.790   0.898  12.968 -0.4542  0.0349  0.2536
 7585TIP3    H144170   1.730   0.914  12.895 -1.4274 -1.2380  0.7430
 7585TIP3    H244171   1.748   0.830  13.020  0.1876  0.9693  2.0818
 7586TIP3   OH244172   0.476   3.254  14.464  0.0113 -0.7563  0.3377
 7586TIP3    H144173   0.539   3.218  14.526 -0.0005  0.1639  0.8987
 7586TIP3    H244174   0.402   3.283  14.518 -0.3674 -0.7130 -0.1921
 7587TIP3   OH244175   2.273   0.479   0.666 -0.2897 -0.1949  0.0242
 7587TIP3    H144176   2.219   0.404   0.641  0.9464 -1.0944 -0.0846
 7587TIP3    H244177   2.215   0.535   0.717 -1.1165 -1.4828  0.5457
 7588TIP3   OH244178   5.587   4.628   4.384 -0.7034 -0.0455  0.2047
 7588TIP3    H144179   5.560   4.565   4.317  1.1875 -1.4747  0.6778
 7588TIP3    H244180   5.673   4.659   4.354 -0.9871  1.2922  0.6934
 7589TIP3   OH244181   3.267   3.660   4.104 -0.3919  0.0321  0.1161
 7589TIP3    H144182   3.205   3.732   4.111 -1.1499 -0.0991 -3.4596
 7589TIP3    H244183   3.213   3.582   4.089  0.5420 -0.5676 -0.2235
 7590TIP3   OH244184   0.264   1.918   5.468  0.3103 -0.2653  0.1771
 7590TIP3    H144185   0.261   1.842   5.410 -2.9091  0.1579 -0.3994
 7590TIP3    H244186   0.218   1.891   5.547 -0.4747  0.9081  0.1480
 7591TIP3   OH244187   5.417   4.795  15.129 -0.6009  0.2660  0.0589
 7591TIP3    H144188   5.438   4.816  15.220 -1.4278 -0.3290  0.4010
 7591TIP3    H244189   5.395   4.879  15.089 -3.6513  0.1940  1.3334
 7592TIP3   OH244190   6.744   2.043  12.032  0.0176  0.5212 -0.3058
 7592TIP3    H144191   6.801   1.968  12.012  0.7741  0.6181  1.3292
 7592TIP3    H244192   6.674   2.006  12.085 -0.4067  0.7404 -0.7048
 7593TIP3   OH244193   4.978   1.482  17.012  0.8388  0.6709 -0.0369
 7593TIP3    H144194   5.057   1.435  16.986  1.4889  0.7667  1.6383
 7593TIP3    H244195   4.917   1.414  17.039  1.5380  0.7202  1.7474
 7594TIP3   OH244196   1.328   5.709  16.667  0.3487 -0.1130  0.1725
 7594TIP3    H144197   1.265   5.779  16.651  0.4804 -0.2015 -0.8223
 7594TIP3    H244198   1.288   5.632  16.625  0.6810 -0.3913  0.3661
 7595TIP3   OH244199   3.695   4.628  11.660 -0.8381 -0.0752 -0.5408
 7595TIP3    H144200   3.614   4.658  11.702 -0.6283 -0.7625  0.3924
 7595TIP3    H244201   3.743   4.584  11.730  0.6479  0.8795 -0.9227
 7596TIP3   OH244202   4.604   4.713  13.994 -0.0332  0.0379 -0.3853
 7596TIP3    H144203   4.556   4.670  13.923  1.0918 -2.2548  0.1607
 7596TIP3    H244204   4.593   4.656  14.070  0.2250  1.5483  0.8375
 7597TIP3   OH244205   5.203   6.060   2.226  0.1305 -0.0778 -0.6267
 7597TIP3    H144206   5.255   6.001   2.279 -0.8119 -0.7650 -0.4512
 7597TIP3    H244207   5.185   6.011   2.146  0.8762  0.6574 -1.2643
 7598TIP3   OH244208   5.900   6.068  14.011 -0.0926 -0.3218  0.2786
 7598TIP3    H144209   5.891   6.137  13.945  1.2343  0.9067  1.3217
 7598TIP3    H244210   5.993   6.068  14.032 -0.3973 -1.1057  1.7167
 7599TIP3   OH244211   2.751   4.616  15.338 -0.1756  0.2518  0.0729
 7599TIP3    H144212   2.684   4.654  15.395  0.2481  0.7805  0.2287
 7599TIP3    H244213   2.775   4.688  15.279  1.4290  0.5956  1.0746
 7600TIP3   OH244214   3.038   0.071  16.283 -0.4628  0.4365 -0.8648
 7600TIP3    H144215   3.081   0.156  16.284  0.0849  0.1618 -0.2756
 7600TIP3    H244216   2.945   0.091  16.273 -0.5364  1.2169  0.9583
 7601TIP3   OH244217   1.299   2.391   2.817  0.1229 -0.0056 -0.1199
 7601TIP3    H144218   1.304   2.458   2.885 -0.4235 -1.5667  1.5290
 7601TIP3    H244219   1.365   2.326   2.842 -0.1819 -0.6704 -0.9903
 7602TIP3   OH244220   0.886   3.125   2.355 -0.0439  0.2946  0.3902
 7602TIP3    H144221   0.979   3.126   2.332  0.2946  1.8746  1.6369
 7602TIP3    H244222   0.846   3.189   2.296 -0.3592 -0.3704 -0.1329
 7603TIP3   OH244223   5.583   5.646   4.295 -0.4668 -0.0522  0.3429
 7603TIP3    H144224   5.608   5.739   4.297 -1.3477  0.2117 -0.1056
 7603TIP3    H244225   5.635   5.605   4.364  0.4246  0.6481  0.1106
 7604TIP3   OH244226   1.094   2.309  12.617  0.6658 -0.2036 -0.0913
 7604TIP3    H144227   1.099   2.404  12.601  0.5277 -0.1926 -0.0751
 7604TIP3    H244228   1.111   2.301  12.711  1.2598 -0.2484 -0.1994
 7605TIP3   OH244229   1.768   6.648   5.749  1.0377 -0.3598 -0.0151
 7605TIP3    H144230   1.723   6.725   5.785  1.4777 -0.8475  1.6117
 7605TIP3    H244231   1.824   6.684   5.680 -1.6063  0.3124 -2.0282
 7606TIP3   OH244232   2.555   5.165  15.711  0.1254 -0.2317 -0.7167
 7606TIP3    H144233   2.603   5.205  15.783  0.3697  0.1505 -1.0897
 7606TIP3    H244234   2.518   5.239  15.662 -2.4234 -0.5111  0.5929
 7607TIP3   OH244235   0.771   0.694   1.103 -0.2264 -0.1518  0.0122
 7607TIP3    H144236   0.786   0.770   1.160  0.3517  1.2581 -1.8919
 7607TIP3    H244237   0.677   0.677   1.110 -0.9826  2.6314 -1.6179
 7608TIP3   OH244238   3.302   6.687   6.478  0.2026 -0.0452  0.3266
 7608TIP3    H144239   3.369   6.734   6.428  0.6502 -0.0624  0.9011
 7608TIP3    H244240   3.317   6.594   6.458  1.4839 -0.1974  1.7804
 7609TIP3   OH244241   4.302   6.304  12.543 -0.4252 -0.5086 -0.1346
 7609TIP3    H144242   4.294   6.230  12.482  1.1857 -0.0866 -0.8925
 7609TIP3    H244243   4.314   6.380  12.486 -1.1501  0.2200  0.6708
 7610TIP3   OH244244   2.281   1.381  15.899 -0.3227 -0.3517 -0.1152
 7610TIP3    H144245   2.338   1.331  15.841  0.4311  0.7270 -0.3408
 7610TIP3    H244246   2.338   1.448  15.936 -1.6883  1.5872 -1.3364
 7611TIP3   OH244247   5.517   2.581  14.496 -1.0295 -0.0821 -0.9960
 7611TIP3    H144248   5.591   2.575  14.555 -0.7431  0.7622 -1.2569
 7611TIP3    H244249   5.510   2.494  14.457  0.1138 -0.0506 -1.3043
 7612TIP3   OH244250   3.832   6.145  15.753 -0.2741  0.0776  0.4656
 7612TIP3    H144251   3.804   6.057  15.779 -2.4726  0.9334  1.2139
 7612TIP3    H244252   3.864   6.134  15.664 -0.8205 -1.4365  0.4166
 7613TIP3   OH244253   4.556   0.891  16.140  0.7728 -0.4267  0.0127
 7613TIP3    H144254   4.513   0.952  16.199  0.7308 -0.8573  0.4290
 7613TIP3    H244255   4.527   0.918  16.052 -1.4113 -1.5178  0.3465
 7614TIP3   OH244256   4.518   2.511   0.029 -0.5069 -0.2545 -0.1205
 7614TIP3    H144257   4.570   2.577  -0.017 -0.2515 -1.1150 -1.0909
 7614TIP3    H244258   4.457   2.562   0.082 -1.1159  0.7688 -1.7454
 7615TIP3   OH244259   2.897   5.650   3.072  0.3786  0.1166 -0.0053
 7615TIP3    H144260   2.968   5.682   3.016  0.4048  0.3424  0.1509
 7615TIP3    H244261   2.870   5.568   3.033 -0.8156  1.1186 -1.4036
 7616TIP3   OH244262   5.543   2.863   4.189 -0.1627  0.4014 -0.1016
 7616TIP3    H144263   5.468   2.819   4.148  1.1405 -1.9206 -0.1372
 7616TIP3    H244264   5.599   2.888   4.116 -0.0707  0.5435  0.0167
 7617TIP3   OH244265   0.141   0.070   4.395  0.3665  0.0563 -0.3547
 7617TIP3    H144266   0.237   0.073   4.400  0.4002 -1.0790 -0.1265
 7617TIP3    H244267   0.114   0.024   4.474 -0.2038 -1.7994 -1.5908
 7618TIP3   OH244268   5.716   2.944  15.388  0.1407  0.1268  0.3820
 7618TIP3    H144269   5.781   2.874  15.398  1.0511  0.9043  0.1097
 7618TIP3    H244270   5.667   2.922  15.309  0.7545  0.0517  0.0199
 7619TIP3   OH244271   4.841   4.888  14.204  0.2078  0.2311  0.3057
 7619TIP3    H144272   4.799   4.888  14.290  0.7481 -1.5418  0.6052
 7619TIP3    H244273   4.911   4.822  14.212 -0.3053 -0.6191 -1.7697
 7620TIP3   OH244274   2.133   3.244   3.908 -0.2232 -0.7278  0.0771
 7620TIP3    H144275   2.131   3.321   3.965  0.2896 -0.4371 -0.2907
 7620TIP3    H244276   2.114   3.278   3.821 -0.3206 -1.0698 -0.0367
 7621TIP3   OH244277   3.014   5.792   3.403  0.0107  0.2863 -0.1048
 7621TIP3    H144278   2.958   5.834   3.468 -0.4715 -2.6912  1.6029
 7621TIP3    H244279   2.958   5.782   3.326 -0.4676  0.9321  0.1503
 7622TIP3   OH244280   3.872   0.173  16.824 -0.1542 -0.5359  0.7090
 7622TIP3    H144281   3.918   0.105  16.874  0.6783 -0.1154  0.5498
 7622TIP3    H244282   3.939   0.208  16.765 -0.8010 -0.1774  0.1754
 7623TIP3   OH244283   4.829   3.787   0.246  0.1226  0.5160 -0.3973
 7623TIP3    H144284   4.859   3.878   0.245  0.0796  0.5504  0.6437
 7623TIP3    H244285   4.910   3.736   0.255  0.4221  0.2779 -3.3588
 7624TIP3   OH244286   3.008   0.733  14.774 -0.0825 -0.0139  0.2734
 7624TIP3    H144287   3.082   0.702  14.722  0.4811  1.0035  0.4496
 7624TIP3    H244288   2.987   0.819  14.738 -0.1072  0.4232  1.2843
 7625TIP3   OH244289   5.872   3.637  16.351 -0.0511  0.0137  0.2717
 7625TIP3    H144290   5.929   3.594  16.288 -1.1845 -0.7529 -0.2574
 7625TIP3    H244291   5.925   3.645  16.430  1.1186  0.2599 -0.5210
 7626TIP3   OH244292   1.481   5.387  11.562  0.5458  0.3833  0.2155
 7626TIP3    H144293   1.456   5.296  11.576 -1.4761  0.9738  0.8307
 7626TIP3    H244294   1.517   5.415  11.646  0.5008  0.3608  0.2420
 7627TIP3   OH244295   5.726   4.734   0.799 -0.0451  0.5130 -0.3514
 7627TIP3    H144296   5.747   4.667   0.864  1.3823  0.5480 -0.7466
 7627TIP3    H244297   5.804   4.740   0.744  0.2090  3.0871  0.1684
 7628TIP3   OH244298   0.471   0.834  13.416  0.2317 -0.3715  0.0076
 7628TIP3    H144299   0.473   0.853  13.510 -0.2146 -2.0097  0.3911
 7628TIP3    H244300   0.389   0.785  13.404  1.2872 -2.0377 -0.8110
 7629TIP3   OH244301   4.704   1.907   3.343  0.5653 -0.4140 -0.6089
 7629TIP3    H144302   4.613   1.929   3.326  0.3112 -2.0232 -1.4864
 7629TIP3    H244303   4.752   1.941   3.268  0.8097  1.0363  0.1759
 7630TIP3   OH244304   4.118   0.429  15.231  0.1653  0.0573 -0.0221
 7630TIP3    H144305   4.101   0.338  15.255  0.8070 -0.0725 -0.0521
 7630TIP3    H244306   4.209   0.444  15.256 -0.4914  1.2776  1.7812
 7631TIP3   OH244307   4.680   0.754  11.372 -0.4023  0.1771  0.5392
 7631TIP3    H144308   4.674   0.802  11.454  0.1167  0.4690  0.4086
 7631TIP3    H244309   4.590   0.753  11.338 -0.4984  0.6465  0.7711
 7632TIP3   OH244310   5.265   1.601  17.212 -0.5754  0.9487  0.1825
 7632TIP3    H144311   5.270   1.543  17.288 -0.7461  2.0394  1.0617
 7632TIP3    H244312   5.287   1.688  17.247 -2.8312  1.8860 -0.5375
 7633TIP3   OH244313   0.658   4.028  11.740 -0.4587  0.1935  0.2045
 7633TIP3    H144314   0.720   4.057  11.808 -1.0690  1.4426  0.2470
 7633TIP3    H244315   0.713   3.986  11.674  0.0315 -2.2401  2.0484
 7634TIP3   OH244316   6.604   0.010   0.172 -0.0313 -0.2402 -0.0792
 7634TIP3    H144317   6.681  -0.045   0.186  0.3582  0.5664  1.1535
 7634TIP3    H244318   6.576  -0.010   0.083  1.5784 -0.5950 -0.5468
 7635TIP3   OH244319   4.383   6.102   6.028 -1.0222  0.2495  0.4831
 7635TIP3    H144320   4.385   6.138   6.116  0.7352  3.6575 -0.7885
 7635TIP3    H244321   4.442   6.027   6.032 -1.2448  0.1203  2.2225
 7636TIP3   OH244322   1.106   4.780  12.970 -0.7493  0.9434 -0.7390
 7636TIP3    H144323   1.016   4.796  12.939 -0.6412  1.7748 -0.6245
 7636TIP3    H244324   1.108   4.685  12.986 -1.8283  1.0141 -0.0574
 7637TIP3   OH244325   3.115   4.340   5.104  0.3679 -0.4603 -0.0034
 7637TIP3    H144326   3.186   4.279   5.084 -0.0071 -0.7635 -0.4430
 7637TIP3    H244327   3.052   4.288   5.153 -0.3747 -0.6938 -1.1535
 7638TIP3   OH244328   4.278   6.573  11.508 -0.0241 -0.3913 -0.0273
 7638TIP3    H144329   4.315   6.659  11.484  2.0509 -1.3116 -0.3155
 7638TIP3    H244330   4.349   6.527  11.551 -1.6846 -1.3174  1.9048
 7639TIP3   OH244331   4.276   3.099   2.072  0.0285 -0.0420  0.0964
 7639TIP3    H144332   4.228   3.035   2.020 -2.1929  1.0867  0.6536
 7639TIP3    H244333   4.248   3.085   2.162  2.1442 -0.5006  0.7545
 7640TIP3   OH244334   6.075   3.638   2.329 -0.1992 -0.3961 -0.0824
 7640TIP3    H144335   6.138   3.704   2.299  0.4494 -0.2746  1.4481
 7640TIP3    H244336   6.028   3.612   2.249  1.1316  0.1978 -1.1125
 7641TIP3   OH244337   1.489   4.714   0.739  0.1280 -0.1135  0.1151
 7641TIP3    H144338   1.417   4.744   0.794 -0.6087 -0.5002 -0.6314
 7641TIP3    H244339   1.511   4.790   0.685  0.3980  0.0526  0.4497
 7642TIP3   OH244340   2.152   6.205   1.971  0.3239  0.1244  0.0079
 7642TIP3    H144341   2.082   6.270   1.978  0.4186  0.4478 -1.7358
 7642TIP3    H244342   2.112   6.133   1.922  0.7705 -0.3664  0.3500
 7643TIP3   OH244343   5.551   6.689  12.320  0.1291 -0.1449  0.0834
 7643TIP3    H144344   5.455   6.681  12.320  0.1811 -1.5693  1.9212
 7643TIP3    H244345   5.568   6.774  12.279 -1.8143 -0.5847 -1.7960
 7644TIP3   OH244346   3.302   0.245   5.385 -0.1829 -0.1859  0.0148
 7644TIP3    H144347   3.292   0.209   5.474 -0.4058 -0.0972  0.0284
 7644TIP3    H244348   3.395   0.267   5.378 -0.2336  0.1573  0.3639
 7645TIP3   OH244349   4.198   1.116   6.157 -0.0590  0.2237 -0.0008
 7645TIP3    H144350   4.171   1.025   6.145  2.3596 -0.3918 -1.7287
 7645TIP3    H244351   4.120   1.167   6.137 -0.8567 -1.4331 -1.3939
 7646TIP3   OH244352   4.645   0.846   6.127 -0.3801 -0.4757  0.0432
 7646TIP3    H144353   4.644   0.789   6.204 -3.2721 -0.6024  0.0026
 7646TIP3    H244354   4.592   0.800   6.062 -0.0807  0.7867 -1.1508
 7647TIP3   OH244355   4.625   6.029  13.194  0.1408  0.3064 -0.1857
 7647TIP3    H144356   4.686   6.047  13.122  0.4938  1.1728  0.3094
 7647TIP3    H244357   4.641   6.100  13.256 -0.3609 -0.2743  0.6166
 7648TIP3   OH244358   4.805   5.148  14.866  0.1611  0.0341 -0.2853
 7648TIP3    H144359   4.886   5.186  14.900  0.8069 -0.4806 -1.2132
 7648TIP3    H244360   4.742   5.220  14.868  1.0320  0.8388 -0.8915
 7649TIP3   OH244361   4.497   5.355   5.076  0.4293  0.2603 -0.1002
 7649TIP3    H144362   4.478   5.263   5.095  1.5105 -0.2186 -1.1447
 7649TIP3    H244363   4.452   5.372   4.993 -0.8780  1.1002  0.7463
 7650TIP3   OH244364   2.458   5.049  12.158 -0.4429  0.0540  0.9500
 7650TIP3    H144365   2.442   4.957  12.179 -0.5696 -0.0720  0.3154
 7650TIP3    H244366   2.509   5.047  12.077 -1.0277  0.5534  0.5631
 7651TIP3   OH244367   2.493   5.997   6.139 -0.8074  0.2388  0.3281
 7651TIP3    H144368   2.509   5.989   6.233  0.6855  0.9683  0.1658
 7651TIP3    H244369   2.579   5.987   6.099 -1.2989  0.7509 -0.9083
 7652TIP3   OH244370   1.854   1.373  11.154 -0.3778  0.1103  0.1394
 7652TIP3    H144371   1.843   1.443  11.089  0.8714  0.5347  0.3510
 7652TIP3    H244372   1.775   1.321  11.148 -0.4306  0.3490 -1.4898
 7653TIP3   OH244373   0.512   6.696  16.206 -0.1337  0.5495 -0.6146
 7653TIP3    H144374   0.533   6.622  16.262 -0.1038  1.3273  0.4220
 7653TIP3    H244375   0.574   6.764  16.231 -1.4442  1.6125 -0.1131
 7654TIP3   OH244376   0.071   3.995   4.276  0.0373 -0.2510  0.1481
 7654TIP3    H144377   0.095   4.060   4.342 -2.3291  0.5953  0.2736
 7654TIP3    H244378   0.154   3.953   4.252  1.0881 -0.0088  3.0206
 7655TIP3   OH244379   2.369   6.308  15.010 -0.1268  0.1447 -0.2553
 7655TIP3    H144380   2.390   6.390  15.055 -0.3602 -0.4387  0.9449
 7655TIP3    H244381   2.361   6.333  14.918  1.8469  1.1031 -0.2166
 7656TIP3   OH244382   1.839   6.640   1.071 -0.0105 -0.0988 -0.2157
 7656TIP3    H144383   1.865   6.568   1.012  0.5755 -0.7336  0.7851
 7656TIP3    H244384   1.813   6.711   1.012  0.7579 -0.6430 -1.2467
 7657TIP3   OH244385   5.461   2.454  12.035  0.2712  0.7879  0.2010
 7657TIP3    H144386   5.455   2.435  12.129  2.1791 -1.6083 -0.0666
 7657TIP3    H244387   5.491   2.545  12.031  0.5289  0.8182  1.9151
 7658TIP3   OH244388   5.169   0.462   0.469  0.1822  0.3067 -0.3707
 7658TIP3    H144389   5.204   0.436   0.384  0.0591  0.4026 -0.4519
 7658TIP3    H244390   5.178   0.557   0.471  0.2421  0.2983 -0.2510
 7659TIP3   OH244391   1.551   2.570  11.939 -0.2438  0.6383 -0.5432
 7659TIP3    H144392   1.597   2.496  11.898  1.1959  0.9017  0.5400
 7659TIP3    H244393   1.556   2.552  12.033 -2.0746  0.8804 -0.3560
 7660TIP3   OH244394   4.108   4.304   1.250 -0.2198  0.6298 -0.3324
 7660TIP3    H144395   4.124   4.351   1.332  0.5371  0.4834 -0.3898
 7660TIP3    H244396   4.189   4.315   1.200 -0.2970 -0.1280 -0.6404
 7661TIP3   OH244397   6.187   3.311   4.702 -0.0209 -0.3968  0.0793
 7661TIP3    H144398   6.224   3.231   4.664 -1.3793 -0.6832 -0.7145
 7661TIP3    H244399   6.237   3.325   4.782  1.9633 -0.5747 -1.0827
 7662TIP3   OH244400   2.486   2.767  16.271  0.2487  0.5783  0.1471
 7662TIP3    H144401   2.545   2.696  16.297  0.5344 -0.2687 -2.5090
 7662TIP3    H244402   2.501   2.836  16.336  1.2128 -1.1238  1.8186
 7663TIP3   OH244403   4.932   5.445  13.242  0.1708  0.2838 -0.2671
 7663TIP3    H144404   4.930   5.375  13.177 -1.9012 -0.2996  0.3255
 7663TIP3    H244405   5.021   5.478  13.240  0.7250 -1.1737 -1.8448
 7664TIP3   OH244406   6.594   1.850   2.447  0.2086 -0.4638  0.4675
 7664TIP3    H144407   6.526   1.848   2.381  0.8291 -1.6402 -0.1559
 7664TIP3    H244408   6.597   1.761   2.482  0.9470 -0.2507  0.9769
 7665TIP3   OH244409   3.221   0.394   0.870 -0.6611  0.0998 -0.6499
 7665TIP3    H144410   3.287   0.456   0.838  1.5566 -1.4655  0.6114
 7665TIP3    H244411   3.220   0.323   0.806 -1.1732  0.1187 -0.6715
 7666TIP3   OH244412   2.864   4.247   2.520 -0.1960  0.0271 -0.3680
 7666TIP3    H144413   2.813   4.185   2.468  1.3476 -1.7276  0.1060
 7666TIP3    H244414   2.810   4.263   2.598  0.2331 -2.3871  0.4968
 7667TIP3   OH244415   3.615   5.850  13.776 -0.3447  0.1006  0.3812
 7667TIP3    H144416   3.558   5.782  13.812 -0.3194  0.8036  1.7916
 7667TIP3    H244417   3.554   5.913  13.737 -0.3850 -0.4684 -0.5229
 7668TIP3   OH244418   2.929   0.051  14.413 -0.0966  0.0442  0.5294
 7668TIP3    H144419   2.916   0.001  14.494 -1.5793 -3.3521 -1.5607
 7668TIP3    H244420   2.987  -0.004  14.360 -0.1243  1.5564 -1.1550
 7669TIP3   OH244421   1.330   2.675  13.781  0.4436 -0.1682 -0.1611
 7669TIP3    H144422   1.305   2.588  13.811  0.8990 -0.7593 -1.4288
 7669TIP3    H244423   1.346   2.725  13.862 -0.1592 -1.1421  0.5785
 7670TIP3   OH244424   3.949   5.681   6.543  0.1187  0.2157 -0.1411
 7670TIP3    H144425   4.004   5.760   6.541 -0.0506  0.3575  0.4687
 7670TIP3    H244426   3.860   5.714   6.536 -0.0570  0.2214  1.6929
 7671TIP3   OH244427   6.621   0.164  12.029  0.6904 -0.2793  0.2595
 7671TIP3    H144428   6.666   0.244  11.999 -0.3992  0.7942  1.3800
 7671TIP3    H244429   6.691   0.108  12.062  1.3420  0.7996  0.7489
 7672TIP3   OH244430   1.470   1.905  14.121  0.5397 -0.7789 -0.0895
 7672TIP3    H144431   1.435   1.819  14.141 -1.7223 -0.6167 -2.8388
 7672TIP3    H244432   1.555   1.888  14.081 -1.1883 -2.0889 -3.5217
 7673TIP3   OH244433   6.645   6.560  15.909 -0.0521 -0.1016 -0.1836
 7673TIP3    H144434   6.661   6.601  15.994  1.6664  0.4492 -0.7312
 7673TIP3    H244435   6.680   6.622  15.845 -2.5029  0.1150 -1.4425
 7674TIP3   OH244436   1.421   6.747  16.934 -0.1672 -0.1542  0.0517
 7674TIP3    H144437   1.439   6.714  17.022 -0.2697  2.3548  1.0874
 7674TIP3    H244438   1.326   6.743  16.926 -0.1119 -1.2053 -0.3458
 7675TIP3   OH244439   0.438   1.686  10.972 -0.7670  0.0606 -0.5485
 7675TIP3    H144440   0.515   1.728  10.933  0.7361 -1.7903  0.2918
 7675TIP3    H244441   0.426   1.605  10.922 -0.4894 -0.9906  1.0102
 7676TIP3   OH244442   6.101   2.563  15.672 -0.2204 -0.1202  0.8201
 7676TIP3    H144443   6.124   2.617  15.597  0.8106  0.8160  1.7748
 7676TIP3    H244444   6.183   2.519  15.696 -0.6357 -0.7347  1.1382
 7677TIP3   OH244445   3.309   2.948  12.158  0.0227  1.0791  0.0746
 7677TIP3    H144446   3.315   2.853  12.145 -0.3796  0.9158  1.0142
 7677TIP3    H244447   3.400   2.977  12.163  0.1394  0.6626  0.3626
 7678TIP3   OH244448   5.741   0.500   4.434  0.3006 -0.0298 -0.7596
 7678TIP3    H144449   5.814   0.506   4.372  0.5930  0.9684 -0.3307
 7678TIP3    H244450   5.669   0.546   4.390  0.4003  0.3610 -0.5164
 7679TIP3   OH244451   3.254   1.994   5.164  0.0431 -0.0462 -0.4903
 7679TIP3    H144452   3.294   2.073   5.129 -0.3653 -0.4097 -1.8145
 7679TIP3    H244453   3.242   1.937   5.088  0.6236 -1.5179  0.4717
 7680TIP3   OH244454   4.351   6.665   4.606 -0.6551  0.5688 -0.0600
 7680TIP3    H144455   4.445   6.656   4.586 -0.3605  1.9154  0.6036
 7680TIP3    H244456   4.308   6.650   4.522  0.0298 -1.4724 -0.1197
 7681TIP3   OH244457   1.878   2.511   4.473 -0.2922  0.1437 -0.4389
 7681TIP3    H144458   1.894   2.604   4.484 -0.6289  0.2739 -1.0252
 7681TIP3    H244459   1.965   2.472   4.464 -0.1692  0.4465 -0.5553
 7682TIP3   OH244460   6.698   1.229   4.650 -0.2637  0.0158  0.0061
 7682TIP3    H144461   6.637   1.183   4.593  1.8992 -2.0933 -0.8067
 7682TIP3    H244462   6.720   1.309   4.602  0.3426 -0.9849 -1.4576
 7683TIP3   OH244463   2.063   6.067  16.762  0.1195  0.3191 -0.3677
 7683TIP3    H144464   2.029   6.135  16.704  0.8790  0.7850 -0.2917
 7683TIP3    H244465   1.991   6.006  16.774  0.0015  0.0971 -1.9776
 7684TIP3   OH244466   2.819   1.248  16.975  0.5512 -0.0867  0.5445
 7684TIP3    H144467   2.824   1.168  16.924  1.1476  1.1283 -1.4395
 7684TIP3    H244468   2.726   1.264  16.988  0.4396 -1.2680  1.3035
 7685TIP3   OH244469   1.224   3.292   1.765  0.4888 -0.4846 -0.2657
 7685TIP3    H144470   1.203   3.241   1.686 -2.0529 -0.5062  0.3198
 7685TIP3    H244471   1.206   3.383   1.740 -0.2164 -0.4798  0.2020
 7686TIP3   OH244472   0.119   5.909   2.988  0.1738 -0.5009  0.0455
 7686TIP3    H144473   0.197   5.901   2.934  0.6040  0.2444  0.5382
 7686TIP3    H244474   0.144   5.874   3.073 -0.5922 -1.9459 -0.2921
 7687TIP3   OH244475   6.449   1.922  17.034 -0.2796 -0.4758  0.2710
 7687TIP3    H144476   6.541   1.920  17.059 -0.0699  0.5780 -0.3659
 7687TIP3    H244477   6.446   1.882  16.947 -0.0777  1.3988 -0.6457
 7688TIP3   OH244478   2.512   1.087   1.799  0.2778 -0.0176  0.1816
 7688TIP3    H144479   2.545   1.030   1.730 -0.5306 -0.6029  0.2705
 7688TIP3    H244480   2.502   1.030   1.875 -0.8256  0.1629  0.1891
 7689TIP3   OH244481   2.830   4.359  14.444 -0.4744  0.7817 -0.4755
 7689TIP3    H144482   2.737   4.376  14.431 -1.3955 -3.1811 -0.2475
 7689TIP3    H244483   2.853   4.296  14.376  1.7326  0.7262  0.2284
 7690TIP3   OH244484   0.214   4.332   1.026 -0.1457  0.3847  0.0245
 7690TIP3    H144485   0.233   4.245   0.992  0.1079  0.5493 -0.2615
 7690TIP3    H244486   0.264   4.391   0.970 -1.4501  0.8269 -0.7238
 7691TIP3   OH244487   5.465   2.317  14.429 -0.0358 -0.8475 -0.0630
 7691TIP3    H144488   5.442   2.241  14.376  1.0120 -0.2662 -1.4031
 7691TIP3    H244489   5.519   2.282  14.500  0.6135 -1.3186 -0.7926
 7692TIP3   OH244490   3.361   6.076  11.756 -0.5436 -0.5120 -0.4960
 7692TIP3    H144491   3.416   6.030  11.693  2.0322  0.8957  0.5946
 7692TIP3    H244492   3.368   6.026  11.836 -0.9697 -0.3807 -0.3719
 7693TIP3   OH244493   3.732   4.581  16.221 -0.3970 -0.4848  0.2476
 7693TIP3    H144494   3.787   4.648  16.182 -0.2984 -0.8494 -0.2471
 7693TIP3    H244495   3.784   4.547  16.294  0.5426 -1.6287 -0.9140
 7694TIP3   OH244496   1.299   6.285   6.078  0.0713  0.0540 -0.6571
 7694TIP3    H144497   1.319   6.201   6.036  0.2098  0.3309 -1.1583
 7694TIP3    H244498   1.334   6.276   6.167  2.5679  0.5138 -1.4906
 7695TIP3   OH244499   5.109   3.984   3.714  0.1338 -0.0750  0.2053
 7695TIP3    H144500   5.016   3.972   3.731  0.2261 -2.2025 -0.4332
 7695TIP3    H244501   5.114   4.006   3.621  0.2328  0.8727  0.4282
 7696TIP3   OH244502   2.783   0.179   3.825 -0.1395 -0.2294  0.0892
 7696TIP3    H144503   2.860   0.236   3.830  0.1211 -0.4312 -1.3131
 7696TIP3    H244504   2.756   0.183   3.733 -2.5030  0.7491  0.7350
 7697TIP3   OH244505   2.348   3.643   2.461 -0.4872 -0.1886 -0.7149
 7697TIP3    H144506   2.329   3.692   2.381 -1.4148 -1.0348 -1.0321
 7697TIP3    H244507   2.304   3.558   2.448 -1.2144 -0.1037  0.9485
 7698TIP3   OH244508   3.140   5.275  14.108  0.1166  0.1869 -0.0386
 7698TIP3    H144509   3.194   5.240  14.037  0.8653  0.5104  0.3576
 7698TIP3    H244510   3.203   5.294  14.178 -0.2772  2.1270 -0.1664
 7699TIP3   OH244511   4.121   0.599   2.486 -0.2804 -0.1430  0.0936
 7699TIP3    H144512   4.156   0.574   2.572  0.5777  0.5895 -0.0265
 7699TIP3    H244513   4.028   0.612   2.501 -0.0774  0.3778  1.0204
 7700TIP3   OH244514   3.545   1.158   3.687  0.5364  0.3783  0.4672
 7700TIP3    H144515   3.500   1.162   3.603  1.1344 -1.0809  0.0350
 7700TIP3    H244516   3.625   1.208   3.674  1.9691 -2.0193 -0.7983
 7701TIP3   OH244517   3.077   0.169  13.480  0.0149  0.4389 -0.0490
 7701TIP3    H144518   3.015   0.230  13.441  0.9705  2.2603  1.1500
 7701TIP3    H244519   3.087   0.199  13.570  1.0991 -1.0410  0.3641
 7702TIP3   OH244520   5.981   4.090  12.810  0.3191 -0.6441  0.4063
 7702TIP3    H144521   5.971   4.051  12.723  1.1875 -0.0559  0.0273
 7702TIP3    H244522   5.993   4.184  12.793 -0.1455 -0.4344  1.2024
 7703TIP3   OH244523   4.598   1.585   1.184  0.3948  0.7485  0.4746
 7703TIP3    H144524   4.557   1.626   1.260 -0.0113  0.4478  0.4220
 7703TIP3    H244525   4.588   1.491   1.200  0.7908  0.6794  0.3119
 7704TIP3   OH244526   3.601   6.701  17.247 -0.3312  0.1290  0.2681
 7704TIP3    H144527   3.662   6.674  17.178 -0.0927 -1.0441  0.9233
 7704TIP3    H244528   3.591   6.624  17.302 -2.8120  0.1067 -0.1011
 7705TIP3   OH244529   0.854   0.279   1.831  0.1035 -0.0340  0.2648
 7705TIP3    H144530   0.901   0.360   1.851 -0.4809  0.6782 -1.1009
 7705TIP3    H244531   0.923   0.217   1.806  0.4910  0.3112  0.4650
 7706TIP3   OH244532   6.211   2.136   4.465 -0.0943 -0.1468  0.6053
 7706TIP3    H144533   6.175   2.051   4.489 -1.6739  0.4693  0.5113
 7706TIP3    H244534   6.240   2.174   4.547  1.1093 -0.9556  0.5914
 7707TIP3   OH244535   4.740   4.069   0.028  0.4974 -0.0001 -0.1044
 7707TIP3    H144536   4.675   4.030   0.087 -0.5309 -0.3984 -1.4495
 7707TIP3    H244537   4.771   4.147   0.075  0.5340 -0.9007  1.4212
 7708TIP3   OH244538   6.267   4.618   3.222  0.6963 -0.2386  0.2704
 7708TIP3    H144539   6.282   4.645   3.132  0.9674  1.1988  0.7091
 7708TIP3    H244540   6.182   4.574   3.221  1.1239 -1.0797 -0.8279
 7709TIP3   OH244541   3.386   5.245   3.225  0.9668 -0.6676  0.2316
 7709TIP3    H144542   3.306   5.212   3.266  0.6951 -0.2878  0.0045
 7709TIP3    H244543   3.372   5.339   3.217  0.0922 -0.9641 -2.7537
 7710TIP3   OH244544   4.391   1.940   6.635  0.0566  0.1243  0.6077
 7710TIP3    H144545   4.481   1.972   6.627 -0.1906  0.3184 -2.4023
 7710TIP3    H244546   4.338   2.019   6.643  0.0813  0.0059  2.5511
 7711TIP3   OH244547   2.131   5.409  15.131  0.1774  0.3870  0.0079
 7711TIP3    H144548   2.110   5.469  15.203 -0.0181  0.5567 -0.1905
 7711TIP3    H244549   2.046   5.384  15.095  0.2799  0.4301 -0.2685
 7712TIP3   OH244550   1.385   6.468   1.221  0.0361 -0.1978 -0.2738
 7712TIP3    H144551   1.338   6.494   1.142  0.8724 -2.0827 -1.4693
 7712TIP3    H244552   1.470   6.512   1.214 -0.6464  1.3573  0.7172
 7713TIP3   OH244553   3.978   2.885   4.090 -0.0016  0.1511  0.4502
 7713TIP3    H144554   4.049   2.929   4.136  0.8240 -1.0877  0.4083
 7713TIP3    H244555   3.955   2.811   4.147  0.2131 -0.7022 -0.5431
 7714TIP3   OH244556   1.165   4.837   1.158 -0.6974 -0.7336 -0.2715
 7714TIP3    H144557   1.074   4.809   1.146 -1.1739  0.8170 -0.4110
 7714TIP3    H244558   1.165   4.884   1.241 -0.0610 -0.5512 -0.3695
 7715TIP3   OH244559   2.122   3.098   3.236 -0.0384  0.6022 -0.1990
 7715TIP3    H144560   2.055   3.085   3.169 -0.6559 -0.2170  0.5542
 7715TIP3    H244561   2.074   3.094   3.319  1.1634 -1.8214  0.4505
 7716TIP3   OH244562   6.147   4.384  13.357 -0.3848 -0.5200 -0.2802
 7716TIP3    H144563   6.167   4.464  13.309 -1.4410 -0.3144 -0.4022
 7716TIP3    H244564   6.150   4.315  13.291  0.8227 -0.6388 -0.1197
 7717TIP3   OH244565   2.544   6.440  15.458  0.3095 -0.3586 -0.1528
 7717TIP3    H144566   2.554   6.518  15.512  0.1279  0.0160 -0.6485
 7717TIP3    H244567   2.586   6.370  15.508  1.8937  0.3603 -0.4139
 7718TIP3   OH244568   5.644   1.637   5.421 -0.0000  0.0465 -0.4658
 7718TIP3    H144569   5.664   1.546   5.400  0.6083  0.0259  0.1725
 7718TIP3    H244570   5.550   1.638   5.439  0.1177 -0.5955  0.2228
 7719TIP3   OH244571   2.194   4.483  15.556 -0.7633 -0.0911 -0.2294
 7719TIP3    H144572   2.176   4.517  15.468 -0.1943  0.7847 -0.0203
 7719TIP3    H244573   2.227   4.394  15.541  0.4445  0.4603 -0.9927
 7720TIP3   OH244574   4.098   2.470  15.143  0.4491  0.2390  0.7872
 7720TIP3    H144575   4.015   2.503  15.177  0.3979 -0.3761  1.2678
 7720TIP3    H244576   4.078   2.383  15.110 -0.1241  1.7125 -3.3281
 7721TIP3   OH244577   4.983   4.297  15.168  0.2985  0.1512  0.3334
 7721TIP3    H144578   4.949   4.378  15.205  0.1519  0.1941  0.1051
 7721TIP3    H244579   5.074   4.294  15.197  0.1004  0.0323  0.9527
 7722TIP3   OH244580   0.745   4.521  10.606 -0.3239  0.1503 -0.2031
 7722TIP3    H144581   0.835   4.553  10.599 -0.2458 -0.0645 -0.1931
 7722TIP3    H244582   0.713   4.556  10.689  0.0996 -0.6251  0.3006
 7723TIP3   OH244583   5.108   6.396  11.596  0.2115 -0.0946 -0.0112
 7723TIP3    H144584   5.171   6.356  11.537  0.4830 -0.5608  0.5754
 7723TIP3    H244585   5.023   6.364  11.566  0.2558  0.4485 -0.7343
 7724TIP3   OH244586   3.526   4.028   5.828 -0.7780 -0.0098  0.6046
 7724TIP3    H144587   3.580   4.099   5.865 -1.8511  0.1588  1.9162
 7724TIP3    H244588   3.587   3.978   5.774  0.4533  0.7817  1.2041
 7725TIP3   OH244589   1.496   3.973   5.338 -0.5209  0.0010 -0.4549
 7725TIP3    H144590   1.453   4.052   5.371 -0.0849 -0.0532  0.2698
 7725TIP3    H244591   1.440   3.901   5.366 -0.4275 -0.0087 -0.2914
 7726TIP3   OH244592   2.804   0.189  11.256  0.2597  0.1912  0.0215
 7726TIP3    H144593   2.809   0.177  11.161  1.9617  0.1495  0.0906
 7726TIP3    H244594   2.858   0.119  11.292  0.2978  0.6914  0.9780
 7727TIP3   OH244595   3.533   5.314  16.964  0.0084 -0.4360  0.4554
 7727TIP3    H144596   3.509   5.263  17.041  0.9698 -0.7303  0.5821
 7727TIP3    H244597   3.618   5.353  16.986 -0.3295  0.5676  0.0481
 7728TIP3   OH244598   2.067   3.064  13.578  0.3802 -0.5397 -0.0278
 7728TIP3    H144599   2.097   2.982  13.617  0.8658 -0.6275 -0.5564
 7728TIP3    H244600   2.143   3.123  13.586  0.6944 -0.7357 -1.3130
 7729TIP3   OH244601   3.604   1.575  14.048  0.0812 -0.1992  0.0360
 7729TIP3    H144602   3.622   1.631  13.973  1.6667  0.4022  0.8082
 7729TIP3    H244603   3.688   1.535  14.069 -0.6368 -1.4848  0.6174
 7730TIP3   OH244604   1.690   1.915   5.754  0.2635  0.4982  0.1900
 7730TIP3    H144605   1.695   1.994   5.700 -0.3713 -0.0674 -0.7222
 7730TIP3    H244606   1.781   1.886   5.762  0.2848 -0.1011 -1.6716
 7731TIP3   OH244607   3.808   4.453  15.068  0.0906 -0.0534 -0.0277
 7731TIP3    H144608   3.791   4.413  14.983 -0.5163 -0.4558  0.2792
 7731TIP3    H244609   3.856   4.386  15.117 -1.1256 -0.5214  0.5659
 7732TIP3   OH244610   0.743   1.311  11.885  0.2846  0.4924 -0.4754
 7732TIP3    H144611   0.796   1.237  11.855  0.5221  0.8178 -0.8600
 7732TIP3    H244612   0.690   1.334  11.809 -0.1023  0.4469 -0.2245
 7733TIP3   OH244613   5.397   1.159   5.826 -0.3979  0.3095  0.2729
 7733TIP3    H144614   5.403   1.242   5.874 -0.7177  2.1208 -2.5920
 7733TIP3    H244615   5.305   1.134   5.833 -0.6697  1.1240 -0.2156
 7734TIP3   OH244616   5.468   6.052  13.640  0.0374 -0.2513  0.4941
 7734TIP3    H144617   5.521   5.981  13.603 -1.7447 -1.1329 -0.5095
 7734TIP3    H244618   5.470   6.037  13.735  0.5871 -0.9956  0.3734
 7735TIP3   OH244619   2.310   0.735   0.005 -0.0331  0.2677 -0.6104
 7735TIP3    H144620   2.334   0.786   0.083  4.0931 -3.2558  0.8240
 7735TIP3    H244621   2.264   0.658   0.040 -1.4238  0.3565 -2.1388
 7736TIP3   OH244622   0.057   0.552   0.906 -0.6712 -0.3423  0.5094
 7736TIP3    H144623   0.085   0.563   0.997  1.0178 -0.7208  0.0733
 7736TIP3    H244624   0.130   0.586   0.855 -0.9735 -1.4458 -0.7046
 7737TIP3   OH244625   2.215   4.500   1.363 -0.2372 -0.4758 -0.7579
 7737TIP3    H144626   2.159   4.478   1.437 -1.3754 -1.1876 -1.7747
 7737TIP3    H244627   2.281   4.560   1.398 -1.6640  0.4249  0.5067
 7738TIP3   OH244628   3.553   6.074   2.224 -0.3272  0.0023 -0.1225
 7738TIP3    H144629   3.479   6.046   2.171  0.0342  2.4209 -2.0632
 7738TIP3    H244630   3.516   6.138   2.285  0.3742  3.6942 -3.1648
 7739TIP3   OH244631   2.325   1.169  16.862 -0.5151 -0.5320  0.1327
 7739TIP3    H144632   2.236   1.136  16.877 -0.5001 -0.9468 -0.6103
 7739TIP3    H244633   2.314   1.260  16.837 -0.6053 -0.1160  1.6294
 7740TIP3   OH244634   0.893   0.231  16.485 -0.4044 -0.1661 -0.4766
 7740TIP3    H144635   0.867   0.241  16.576  0.8335 -0.4997 -0.0667
 7740TIP3    H244636   0.979   0.190  16.489  0.2145  0.9549 -1.7719
 7741TIP3   OH244637   1.083   0.972  14.373 -0.4008  0.2168  0.3323
 7741TIP3    H144638   1.160   0.993  14.321 -0.2996 -0.9924 -0.0340
 7741TIP3    H244639   1.115   0.915  14.442 -0.5248  1.8422  1.7957
 7742TIP3   OH244640   3.034   2.130  14.107  0.3071  0.6489 -0.0409
 7742TIP3    H144641   2.975   2.074  14.157  1.4809  0.1474  0.8129
 7742TIP3    H244642   3.038   2.090  14.020 -0.4555  0.5861 -0.0515
 7743TIP3   OH244643   5.431   1.354   0.602 -0.3938  0.2946  0.5144
 7743TIP3    H144644   5.514   1.325   0.639  1.2664  2.7773 -0.9298
 7743TIP3    H244645   5.404   1.283   0.544 -0.0391 -1.1382  2.0406
 7744TIP3   OH244646   2.285   3.008   3.034 -0.0494  0.0167  0.5514
 7744TIP3    H144647   2.224   3.016   3.107  0.2324  1.1813  0.6825
 7744TIP3    H244648   2.244   2.944   2.976 -1.1413  0.3884  0.8827
 7745TIP3   OH244649   0.485   1.759   3.746  0.7419  0.0715 -0.4222
 7745TIP3    H144650   0.489   1.761   3.842 -0.8025 -0.4460 -0.3048
 7745TIP3    H244651   0.391   1.751   3.727  1.0173  0.3253 -1.9846
 7746TIP3   OH244652   6.191   5.830   2.538 -0.6777 -0.5299 -0.3144
 7746TIP3    H144653   6.212   5.867   2.624 -0.6924 -0.0171 -0.5267
 7746TIP3    H244654   6.276   5.806   2.501 -0.6189 -0.2173 -0.3893
 7747TIP3   OH244655   1.777   3.263   3.184  0.1787  0.3972  0.2512
 7747TIP3    H144656   1.683   3.262   3.171 -0.0848 -1.5161  1.8907
 7747TIP3    H244657   1.808   3.181   3.145  1.2288  1.1071 -0.4852
 7748TIP3   OH244658   5.557   4.992  12.250 -0.3399 -0.2509  0.0372
 7748TIP3    H144659   5.504   4.927  12.204 -1.4483  1.6300 -1.5061
 7748TIP3    H244660   5.643   4.987  12.209 -0.0342 -1.5781  0.8039
 7749TIP3   OH244661   1.907   0.931   0.887 -0.0348 -0.4488 -0.1603
 7749TIP3    H144662   1.996   0.959   0.864 -0.5643  1.4708 -0.0746
 7749TIP3    H244663   1.920   0.866   0.956  1.3496  3.1658  3.4076
 7750TIP3   OH244664   1.781   0.554  15.041 -0.1704  0.5522 -0.7705
 7750TIP3    H144665   1.734   0.627  15.001 -1.3457 -0.5768 -1.5407
 7750TIP3    H244666   1.728   0.531  15.117  0.2675  0.5834 -0.4543
 7751TIP3   OH244667   3.043   4.897   5.764  0.3363  0.3427  0.0687
 7751TIP3    H144668   3.017   4.822   5.817 -0.7355  1.8628  1.8149
 7751TIP3    H244669   3.135   4.880   5.742  1.0542 -0.0722  3.0161
 7752TIP3   OH244670   5.581   4.429  15.968  0.1552  0.6195 -0.0352
 7752TIP3    H144671   5.546   4.410  15.881  0.7719 -0.2251 -0.1157
 7752TIP3    H244672   5.566   4.523  15.981 -1.4420  0.4320 -0.3615
 7753TIP3   OH244673   5.336   0.366   3.954  0.0283 -0.7133  0.1206
 7753TIP3    H144674   5.393   0.289   3.955  0.8716 -0.1062  0.4806
 7753TIP3    H244675   5.341   0.400   4.044 -0.1146 -0.0855 -0.1097
 7754TIP3   OH244676   1.958   4.117  11.434  0.0661  0.1464  0.0199
 7754TIP3    H144677   1.946   4.129  11.528 -0.1688 -0.9684  0.1443
 7754TIP3    H244678   2.009   4.193  11.406 -0.1505  0.6525  0.9863
 7755TIP3   OH244679   5.619   0.533   0.758 -1.2421  0.1513  0.1080
 7755TIP3    H144680   5.692   0.595   0.752 -1.5630  0.4014 -1.8151
 7755TIP3    H244681   5.633   0.472   0.685 -2.4078 -0.3886  0.3095
 7756TIP3   OH244682   1.201   3.790  15.070  0.1298 -0.3209  0.0310
 7756TIP3    H144683   1.173   3.840  14.993 -2.1764 -0.5393  0.6331
 7756TIP3    H244684   1.196   3.699  15.042  3.1604 -0.3402 -0.7005
 7757TIP3   OH244685   5.260   6.187  11.158  0.2669 -0.1292  0.3699
 7757TIP3    H144686   5.322   6.209  11.089 -0.4557  1.0641  0.0543
 7757TIP3    H244687   5.263   6.262  11.218 -1.5652  0.4721 -0.1981
 7758TIP3   OH244688   4.792   5.881   1.525 -0.1082 -0.1754 -0.0945
 7758TIP3    H144689   4.847   5.926   1.590  0.1173  0.4107 -0.6659
 7758TIP3    H244690   4.706   5.874   1.566 -0.3341  1.3912 -0.2075
 7759TIP3   OH244691   0.646   4.620  14.354 -0.3580  0.5454 -0.6402
 7759TIP3    H144692   0.647   4.543  14.297 -0.3500  0.3554 -0.3835
 7759TIP3    H244693   0.700   4.595  14.429  0.1249  1.0057 -0.8280
 7760TIP3   OH244694   6.368   4.264  14.442  0.1831  0.1614  0.0675
 7760TIP3    H144695   6.410   4.198  14.386 -1.9218 -1.4522  0.2583
 7760TIP3    H244696   6.414   4.257  14.526  0.9659 -0.0030 -0.3683
 7761TIP3   OH244697   3.709   3.059   0.703  0.0842 -0.4713  0.3089
 7761TIP3    H144698   3.650   3.046   0.777  0.9271 -2.5796  0.7048
 7761TIP3    H244699   3.656   3.103   0.636 -1.5950 -1.2871  1.0537
 7762TIP3   OH244700   6.350   6.051   0.547  0.0856  0.8072  0.4923
 7762TIP3    H144701   6.367   6.027   0.456 -2.5379 -0.7614  0.3252
 7762TIP3    H244702   6.353   6.147   0.548 -0.2168  0.8575 -1.3174
 7763TIP3   OH244703   5.232   0.081  11.977 -0.0645  0.2167 -0.3356
 7763TIP3    H144704   5.301   0.082  12.043  1.6340 -1.0055 -1.9890
 7763TIP3    H244705   5.268   0.028  11.905 -1.7711  1.5510 -2.2937
 7764TIP3   OH244706   6.367   0.193   5.371  1.0154  0.1196  0.0166
 7764TIP3    H144707   6.278   0.206   5.405  1.2467  2.1345 -0.0159
 7764TIP3    H244708   6.366   0.104   5.336 -0.2234 -0.8514  2.2580
 7765TIP3   OH244709   1.693   2.483  16.054  0.0482  0.0431 -0.0477
 7765TIP3    H144710   1.598   2.485  16.050  0.0619  1.7510 -0.3614
 7765TIP3    H244711   1.719   2.416  15.991 -0.9334  0.0084 -0.4216
 7766TIP3   OH244712   1.232   4.249  16.717 -0.2139 -0.4154 -0.2347
 7766TIP3    H144713   1.316   4.231  16.676 -0.2177 -1.7866  0.3246
 7766TIP3    H244714   1.175   4.178  16.689 -0.8282 -0.1903  0.4064
 7767TIP3   OH244715   1.495   5.117  14.978  0.0708 -0.0946  0.3397
 7767TIP3    H144716   1.525   5.038  14.932  0.4783 -0.4381  1.1745
 7767TIP3    H244717   1.471   5.178  14.908  0.2375 -0.7719 -0.3214
 7768TIP3   OH244718   5.287   5.557  10.444 -0.5241 -0.3058  0.2060
 7768TIP3    H144719   5.224   5.569  10.516 -2.0423  0.0127 -1.0959
 7768TIP3    H244720   5.319   5.468  10.455 -0.0286  0.0366  1.7878
 7769TIP3   OH244721   0.101   1.785   1.424 -0.4931  0.0374  0.1277
 7769TIP3    H144722   0.140   1.827   1.501  0.0211 -0.5717  0.2115
 7769TIP3    H244723   0.173   1.734   1.386 -1.3199 -1.4735  0.5366
 7770TIP3   OH244724   6.265   5.745   4.679  0.3413  0.3849  0.1023
 7770TIP3    H144725   6.298   5.832   4.700 -0.6169  0.4548  1.4566
 7770TIP3    H244726   6.223   5.715   4.759 -1.6718 -0.2353 -1.0971
 7771TIP3   OH244727   0.868   0.415   2.249  0.2178  0.1427 -0.2629
 7771TIP3    H144728   0.812   0.355   2.200  1.1357 -0.4944 -0.5573
 7771TIP3    H244729   0.940   0.360   2.280  0.8213  0.9943 -0.1279
 7772TIP3   OH244730   6.132   3.822  11.857  0.1735 -0.1666 -0.5203
 7772TIP3    H144731   6.177   3.834  11.773  0.4016 -1.2113 -0.5596
 7772TIP3    H244732   6.202   3.831  11.922 -0.2316  2.1195 -0.3030
 7773TIP3   OH244733   4.053   4.583   5.511 -0.5937  0.4061  0.6680
 7773TIP3    H144734   4.029   4.514   5.450  0.0421  0.3197  0.5054
 7773TIP3    H244735   4.144   4.604   5.489 -0.7788  1.2969  0.7115
 7774TIP3   OH244736   0.501   6.554  13.089 -0.2411  0.2946  0.4492
 7774TIP3    H144737   0.432   6.621  13.083  1.2882  1.8414 -1.0497
 7774TIP3    H244738   0.567   6.583  13.026  0.1260 -3.1313 -0.9335
 7775TIP3   OH244739   3.366   6.401  12.018  0.6192  0.0506 -0.3764
 7775TIP3    H144740   3.329   6.314  12.033  1.3012 -0.0100  1.0380
 7775TIP3    H244741   3.324   6.457  12.082  0.0380  0.8365 -1.4077
 7776TIP3   OH244742   1.734   4.579  14.961 -0.3676  0.0631 -0.7075
 7776TIP3    H144743   1.651   4.539  14.987 -0.4740  1.5389  1.5886
 7776TIP3    H244744   1.722   4.601  14.869 -2.0015 -0.9725 -0.7903
 7777TIP3   OH244745   4.237   4.932  12.257  0.0592 -0.2454 -0.1952
 7777TIP3    H144746   4.231   4.952  12.163 -1.2590 -1.4181 -0.3889
 7777TIP3    H244747   4.245   4.837  12.261  0.0368 -0.2125  0.8798
 7778TIP3   OH244748   5.516   2.585   1.589 -0.1078 -0.1369 -0.1438
 7778TIP3    H144749   5.579   2.622   1.651 -1.3280  0.9628  0.4854
 7778TIP3    H244750   5.524   2.491   1.600  0.7873  0.0132  0.5689
 7779TIP3   OH244751   6.400   5.294  14.082  0.2307  0.0312  0.6068
 7779TIP3    H144752   6.457   5.219  14.102  1.0127  0.0925 -1.1921
 7779TIP3    H244753   6.312   5.263  14.101  0.7016 -0.6343  1.8610
 7780TIP3   OH244754   0.733   1.876   1.819 -0.2642 -0.0647  0.1224
 7780TIP3    H144755   0.805   1.905   1.762 -0.3673  0.6985  0.3649
 7780TIP3    H244756   0.772   1.866   1.905 -0.5308  0.8169  0.3601
 7781TIP3   OH244757   2.928   2.484  12.461 -0.0710  0.1852 -0.0802
 7781TIP3    H144758   2.869   2.559  12.457 -0.3469  0.0509  1.1214
 7781TIP3    H244759   2.872   2.410  12.482  0.4955  0.0211  0.8848
 7782TIP3   OH244760   2.542   6.475   4.214 -0.9881  0.3877 -0.3291
 7782TIP3    H144761   2.603   6.455   4.285  0.4974  0.9997 -1.3957
 7782TIP3    H244762   2.465   6.423   4.234  0.0896 -0.8588  0.7639
 7783TIP3   OH244763   2.813   3.686  14.164 -0.5885 -0.2464 -0.1153
 7783TIP3    H144764   2.779   3.621  14.226 -0.3061 -0.5084 -0.2334
 7783TIP3    H244765   2.870   3.636  14.106 -0.4964  0.0804 -0.3077
 7784TIP3   OH244766   3.745   0.796  11.616  0.6446 -0.1696  0.5680
 7784TIP3    H144767   3.693   0.748  11.552  1.3088 -0.2821  0.0996
 7784TIP3    H244768   3.834   0.793  11.582  0.8833  0.4298  1.1083
 7785TIP3   OH244769   1.489   0.080   4.280 -0.3479 -0.3195 -0.4496
 7785TIP3    H144770   1.397   0.073   4.305 -0.2156 -1.1046 -0.1510
 7785TIP3    H244771   1.530   0.002   4.318  0.6176  0.4807  0.1944
 7786TIP3   OH244772   3.763   2.738  14.996 -0.5145 -0.0095 -0.2753
 7786TIP3    H144773   3.754   2.821  14.950 -1.7671 -0.5981 -1.1420
 7786TIP3    H244774   3.813   2.682  14.936 -0.8666 -0.3078 -0.2960
 7787TIP3   OH244775   6.129   4.104  13.443  0.0250  0.0206  0.2200
 7787TIP3    H144776   6.088   4.123  13.359  1.0199 -0.2834 -0.3373
 7787TIP3    H244777   6.139   4.189  13.485  2.8179  0.6673 -1.5043
 7788TIP3   OH244778   4.723   0.105  15.924 -0.4933 -0.3444 -0.2987
 7788TIP3    H144779   4.694   0.188  15.963 -0.5704 -0.8371  0.7462
 7788TIP3    H244780   4.661   0.040  15.958  0.0630 -0.9537 -0.4313
 7789TIP3   OH244781   1.830   0.522   0.966 -0.1901  0.8723 -0.5153
 7789TIP3    H144782   1.871   0.599   0.925 -1.5804  1.5327 -0.7000
 7789TIP3    H244783   1.795   0.555   1.048  1.0659 -0.0669  0.4334
 7790TIP3   OH244784   0.282   5.244   0.202 -0.1487 -0.2061 -0.2061
 7790TIP3    H144785   0.291   5.208   0.291 -0.3012 -1.8905 -0.8506
 7790TIP3    H244786   0.189   5.261   0.192 -0.0015  1.0554  0.3287
 7791TIP3   OH244787   5.012   5.396  17.027  0.2024 -0.8310  0.2468
 7791TIP3    H144788   5.091   5.373  17.075 -0.8789 -1.0326  2.0563
 7791TIP3    H244789   4.941   5.360  17.081 -1.1612  0.2728 -0.7473
 7792TIP3   OH244790   1.630   3.166  12.254  0.2204 -0.5256  0.1069
 7792TIP3    H144791   1.693   3.236  12.235  0.6870 -0.9241  0.1726
 7792TIP3    H244792   1.614   3.124  12.170  0.0333 -0.4201  0.0891
 7793TIP3   OH244793   0.881   6.527   5.182 -0.2007  0.5017  0.4173
 7793TIP3    H144794   0.818   6.477   5.234  1.7088 -0.7833  1.6296
 7793TIP3    H244795   0.893   6.608   5.231 -2.3678  1.7305 -0.9055
 7794TIP3   OH244796   6.644   1.169  15.275 -0.4483  0.3453  0.2362
 7794TIP3    H144797   6.732   1.168  15.313 -0.4574 -0.1823  0.2459
 7794TIP3    H244798   6.652   1.114  15.197 -1.0002 -0.5065  0.7624
 7795TIP3   OH244799   5.483   1.103  11.969 -0.4321  0.3685 -0.1857
 7795TIP3    H144800   5.447   1.138  11.888 -0.9117  0.8009  0.2105
 7795TIP3    H244801   5.422   1.132  12.037 -1.4021 -1.9957  0.0648
 7796TIP3   OH244802   6.506   3.691   2.334 -0.0935  0.1176 -0.1208
 7796TIP3    H144803   6.541   3.771   2.372  0.7107 -0.7642  1.0472
 7796TIP3    H244804   6.573   3.664   2.271 -0.1182  0.0871 -0.1337
 7797TIP3   OH244805   3.305   5.557  15.875  0.3482  0.0429 -0.0947
 7797TIP3    H144806   3.303   5.558  15.970  1.3816 -0.8289 -0.0508
 7797TIP3    H244807   3.265   5.640  15.849  1.4961  1.0103  1.1191
 7798TIP3   OH244808   2.741   1.111  15.339 -0.1887 -0.9313  0.7515
 7798TIP3    H144809   2.815   1.051  15.330  0.1404 -0.3156 -0.8885
 7798TIP3    H244810   2.774   1.180  15.396  0.9661 -0.0298 -0.9215
 7799TIP3   OH244811   0.549   0.946  16.609  0.2986 -0.2379  0.0360
 7799TIP3    H144812   0.518   0.904  16.529 -0.2473 -0.9444  0.6013
 7799TIP3    H244813   0.499   0.904  16.679 -1.9242  2.8052  0.4920
 7800TIP3   OH244814   5.217   2.031  16.496 -0.7521 -0.2304  0.1460
 7800TIP3    H144815   5.140   2.026  16.551 -1.8938  0.4205 -1.3288
 7800TIP3    H244816   5.287   2.060  16.555 -1.4833 -1.3786  1.6175
 7801TIP3   OH244817   5.746   3.878   0.013 -0.5268 -0.5151  0.5291
 7801TIP3    H144818   5.741   3.858   0.106  2.3056  0.4496  0.9998
 7801TIP3    H244819   5.794   3.803  -0.024  2.0962  0.9759  0.6889
 7802TIP3   OH244820   0.978   2.441   5.460 -0.3811  0.5707 -0.2060
 7802TIP3    H144821   0.948   2.486   5.539  1.4591 -0.0518  0.9038
 7802TIP3    H244822   0.929   2.359   5.458  0.3247  0.0964  0.9306
 7803TIP3   OH244823   2.180   5.595   3.022 -0.5582  0.1369 -0.2473
 7803TIP3    H144824   2.256   5.547   2.989 -0.8994 -0.6158  0.0473
 7803TIP3    H244825   2.208   5.631   3.106 -0.6852 -0.5553  0.0921
 7804TIP3   OH244826   6.703   2.215  13.317  0.9848  0.2703  0.3395
 7804TIP3    H144827   6.690   2.269  13.239 -0.7754 -0.5534  0.0325
 7804TIP3    H244828   6.707   2.278  13.389  1.4715  0.9613 -0.2765
 7805TIP3   OH244829   6.243   3.044   2.531 -0.3347  0.0010 -0.1669
 7805TIP3    H144830   6.164   2.992   2.511 -0.8692  1.0107 -0.7633
 7805TIP3    H244831   6.299   3.033   2.454  0.2385 -0.9126  0.3587
 7806TIP3   OH244832   4.127   3.724   5.314  0.5609  0.1059 -0.1244
 7806TIP3    H144833   4.046   3.734   5.264  1.4854  1.2277 -1.4790
 7806TIP3    H244834   4.193   3.698   5.249  1.2098 -1.3694  1.0446
 7807TIP3   OH244835   3.770   4.849   3.295 -0.0981  0.1015 -0.1659
 7807TIP3    H144836   3.754   4.928   3.347 -1.2668 -0.3937  0.2536
 7807TIP3    H244837   3.801   4.882   3.211 -0.0080  0.9793  0.2017
 7808TIP3   OH244838   0.671   6.136   2.183 -0.0329  0.1487  0.9207
 7808TIP3    H144839   0.653   6.042   2.185 -0.1491  0.1744  1.0831
 7808TIP3    H244840   0.619   6.169   2.110  1.1417 -0.1472 -0.0856
 7809TIP3   OH244841   1.810   2.596   3.219  0.0508 -0.7033 -0.3744
 7809TIP3    H144842   1.718   2.603   3.243  0.5225  1.4211  1.1390
 7809TIP3    H244843   1.821   2.506   3.189 -2.1572 -1.4931  0.9800
 7810TIP3   OH244844   5.517   6.414  11.659  0.5144 -0.3557 -0.5162
 7810TIP3    H144845   5.534   6.361  11.581  1.4471 -0.7886 -0.0316
 7810TIP3    H244846   5.534   6.356  11.733 -0.2559  0.0827  0.0202
 7811TIP3   OH244847   4.365   5.021   2.270 -0.4309 -0.0010 -0.5297
 7811TIP3    H144848   4.408   4.996   2.188 -0.3765 -0.5921 -0.3229
 7811TIP3    H244849   4.438   5.042   2.329 -0.4121 -1.1483 -0.1321
 7812TIP3   OH244850   0.223   6.677  14.407  0.6238 -0.0052 -0.1279
 7812TIP3    H144851   0.145   6.632  14.439  1.4541 -1.6231 -0.3231
 7812TIP3    H244852   0.255   6.726  14.482  0.2070 -0.4341  0.3351
 7813TIP3   OH244853   2.271   4.152  11.320 -0.2081  0.1648 -0.1196
 7813TIP3    H144854   2.321   4.172  11.399  0.9432  0.1700 -0.8166
 7813TIP3    H244855   2.297   4.220  11.258  0.7089 -1.1391 -1.2323
 7814TIP3   OH244856   1.936   4.412  11.321  0.1107 -0.3140 -0.0952
 7814TIP3    H144857   2.016   4.458  11.345  0.3969 -1.4791  1.4247
 7814TIP3    H244858   1.868   4.479  11.320  0.8394  0.4358  0.1913
 7815TIP3   OH244859   5.871   2.639  16.638 -0.0651  0.4420 -0.2855
 7815TIP3    H144860   5.894   2.699  16.566 -1.7982  1.3366 -0.1584
 7815TIP3    H244861   5.845   2.558  16.594 -2.2854  1.3723 -0.8245
 7816TIP3   OH244862   2.709   1.573   2.171 -0.1192  0.0760 -0.7590
 7816TIP3    H144863   2.714   1.480   2.193 -1.2260  0.2241  0.1929
 7816TIP3    H244864   2.729   1.577   2.078  3.5664 -0.7269 -0.1819
 7817TIP3   OH244865   4.462   3.175  11.086 -0.2426  0.0796  0.2418
 7817TIP3    H144866   4.440   3.213  11.001  0.5898  2.2278  0.8970
 7817TIP3    H244867   4.382   3.184  11.138 -2.3658 -5.3352 -1.3887
 7818TIP3   OH244868   4.909   0.657  12.917 -0.4085  0.3843 -0.7962
 7818TIP3    H144869   4.903   0.650  12.822  0.5483  1.2462 -0.9455
 7818TIP3    H244870   4.820   0.679  12.945 -0.5401  0.9237 -1.5822
 7819TIP3   OH244871   4.406   2.191   5.928  0.5597  0.5547 -0.3541
 7819TIP3    H144872   4.419   2.271   5.876  1.2116  0.2529 -0.6675
 7819TIP3    H244873   4.382   2.223   6.015 -0.6443  1.0646 -0.8571
 7820TIP3   OH244874   0.103   1.694  11.186 -0.4343  0.3133  0.1908
 7820TIP3    H144875   0.110   1.627  11.118  2.4515  0.7894 -0.1171
 7820TIP3    H244876   0.011   1.720  11.185 -1.3011 -2.4906 -0.7602
 7821TIP3   OH244877   5.709   1.426   1.265 -0.0472 -0.5624  0.0191
 7821TIP3    H144878   5.737   1.466   1.347  1.7150 -1.3945 -0.1145
 7821TIP3    H244879   5.791   1.414   1.216 -0.9177 -1.2440 -1.3124
 7822TIP3   OH244880   3.093   1.685  13.182  0.3956  0.4055 -0.3283
 7822TIP3    H144881   3.032   1.613  13.199  0.9439  0.1101  0.4533
 7822TIP3    H244882   3.132   1.665  13.098  1.6770 -1.0583  0.5608
 7823TIP3   OH244883   4.065   5.718   4.849  0.5438 -0.6355 -0.0580
 7823TIP3    H144884   4.084   5.790   4.789  2.1281 -1.2645 -0.3616
 7823TIP3    H244885   4.006   5.755   4.914  1.1003  0.8541 -0.3771
 7824TIP3   OH244886   3.792   2.455  14.434  0.1352  0.7916  0.1405
 7824TIP3    H144887   3.799   2.534  14.380 -1.5525  0.6331 -0.3698
 7824TIP3    H244888   3.760   2.388  14.374  2.3565 -0.5770  0.3466
 7825TIP3   OH244889   2.668   4.318  12.077  0.0084  0.3596 -0.8954
 7825TIP3    H144890   2.680   4.329  12.172 -0.2112  0.4761 -0.8815
 7825TIP3    H244891   2.673   4.224  12.063 -1.1055  0.2452 -0.6124
 7826TIP3   OH244892   2.900   3.251   5.984  0.7116  0.2225  0.2089
 7826TIP3    H144893   2.907   3.255   6.080 -0.2657 -0.7840  0.3424
 7826TIP3    H244894   2.893   3.342   5.956 -0.8601  0.4480  1.2535
 7827TIP3   OH244895   0.875   0.117   5.093 -0.6564 -0.0997  0.1197
 7827TIP3    H144896   0.959   0.075   5.074  0.0764  0.0133  2.7601
 7827TIP3    H244897   0.826   0.051   5.141 -1.8831  0.0588 -0.8682
 7828TIP3   OH244898   0.953   5.019  15.104  0.6668 -0.4414 -0.6880
 7828TIP3    H144899   0.969   4.953  15.037  0.0053  0.8226 -2.1537
 7828TIP3    H244900   0.876   5.067  15.072 -0.2520 -0.3842  1.4559
 7829TIP3   OH244901   2.491   3.813  16.163  0.1473  0.2450  0.6756
 7829TIP3    H144902   2.560   3.768  16.211  0.5797  1.2290  0.9976
 7829TIP3    H244903   2.451   3.872  16.227 -0.1427  0.6176  0.1643
 7830TIP3   OH244904   5.104   3.630   1.044  0.1083 -0.1935  0.2725
 7830TIP3    H144905   5.184   3.582   1.067 -0.2563 -1.3608 -0.8184
 7830TIP3    H244906   5.073   3.587   0.964 -2.2127 -0.4977  1.2799
 7831TIP3   OH244907   6.241   2.780   1.758 -0.3875 -0.0094  0.4430
 7831TIP3    H144908   6.175   2.848   1.771 -1.2182 -0.9087  1.0919
 7831TIP3    H244909   6.301   2.791   1.832 -0.8837 -0.3701  0.9103
 7832TIP3   OH244910   6.688   1.751   5.435 -0.4046  0.2578  0.3399
 7832TIP3    H144911   6.728   1.665   5.437 -1.1192 -0.0784  1.8964
 7832TIP3    H244912   6.690   1.781   5.526  0.1632  2.0574 -0.2186
 7833TIP3   OH244913   1.133   3.646   4.754 -0.0831 -0.2479  0.2113
 7833TIP3    H144914   1.228   3.654   4.760 -0.2722  1.3088  2.0121
 7833TIP3    H244915   1.118   3.556   4.724  1.9144 -0.7961  0.7337
 7834TIP3   OH244916   4.081   0.736   0.458  0.0881  0.9391  0.0719
 7834TIP3    H144917   3.987   0.751   0.456 -0.2341 -0.7559  0.8065
 7834TIP3    H244918   4.119   0.814   0.418 -1.5719  1.9887  0.4774
 7835TIP3   OH244919   2.528   5.567  14.783  0.4293  0.1587  0.1331
 7835TIP3    H144920   2.604   5.510  14.775  2.1250  2.3668 -0.4605
 7835TIP3    H244921   2.453   5.507  14.786  1.8358 -2.0368 -3.1566
 7836TIP3   OH244922   3.628   2.654   4.390  0.0169 -0.1163  0.0117
 7836TIP3    H144923   3.584   2.626   4.470 -1.2118  0.8754 -0.2774
 7836TIP3    H244924   3.674   2.734   4.416  0.4835 -0.3728 -0.0251
 7837TIP3   OH244925   1.500   3.755  11.030  1.1699 -0.2882 -0.1769
 7837TIP3    H144926   1.569   3.811  10.995  1.4922  0.4571  1.5097
 7837TIP3    H244927   1.524   3.744  11.123 -0.6733 -0.4879  0.3103
 7838TIP3   OH244928   5.956   4.697  12.020 -0.1500 -0.4219 -0.8851
 7838TIP3    H144929   6.010   4.637  12.071 -1.3500 -0.5303  0.3097
 7838TIP3    H244930   5.964   4.782  12.064 -2.0454 -0.7542  0.1969
 7839TIP3   OH244931   3.881   4.359   1.537 -0.0192  0.9145  0.5598
 7839TIP3    H144932   3.880   4.437   1.592 -3.6387  1.5062 -0.1047
 7839TIP3    H244933   3.855   4.390   1.450  1.6126 -0.6110 -0.5659
 7840TIP3   OH244934   4.890   6.187   0.815 -0.1924 -0.0150  0.5624
 7840TIP3    H144935   4.836   6.265   0.798  0.4401  0.5328  0.9857
 7840TIP3    H244936   4.828   6.118   0.835 -0.8299  0.0470 -1.0779
 7841TIP3   OH244937   1.384   0.265  14.789  0.3786 -0.2120  0.0010
 7841TIP3    H144938   1.407   0.352  14.822  1.1795 -0.2379 -0.4560
 7841TIP3    H244939   1.468   0.223  14.773  0.0705 -0.0793 -2.3428
 7842TIP3   OH244940   0.398   5.895  14.252  0.0743 -0.1034 -0.0508
 7842TIP3    H144941   0.304   5.888  14.238 -0.0646  2.0175 -0.4644
 7842TIP3    H244942   0.435   5.816  14.212 -1.6705 -2.3022  2.3534
 7843TIP3   OH244943   5.151   5.590  12.642 -0.7612 -1.0392  0.0960
 7843TIP3    H144944   5.165   5.530  12.715 -2.5049 -0.3351  1.0602
 7843TIP3    H244945   5.084   5.548  12.588 -2.3320  0.1796  1.0229
 7844TIP3   OH244946   3.333   4.211  16.386  0.3131 -0.0430  0.2658
 7844TIP3    H144947   3.375   4.181  16.466 -2.0121 -0.4124  1.4426
 7844TIP3    H244948   3.335   4.135  16.327 -0.4704 -0.7197  1.0832
 7845TIP3   OH244949   3.840   5.125   3.813 -0.1427 -0.0297  0.3180
 7845TIP3    H144950   3.813   5.085   3.896  0.0235  0.4018  0.5875
 7845TIP3    H244951   3.867   5.052   3.759 -0.2785 -0.3208  0.6396
 7846TIP3   OH244952   0.437   2.160   2.558  0.1726  0.2885 -0.5043
 7846TIP3    H144953   0.453   2.184   2.649 -1.9106  0.3229 -0.1204
 7846TIP3    H244954   0.521   2.124   2.529  1.9083  3.1551  0.4287
 7847TIP3   OH244955   4.942   3.476  16.519 -0.4324  0.8762  0.5315
 7847TIP3    H144956   4.918   3.447  16.431  0.6488  4.4868 -1.1444
 7847TIP3    H244957   4.861   3.470  16.570 -1.0449 -1.3968 -0.5821
 7848TIP3   OH244958   3.210   3.228   2.275  0.3889  0.0381  0.0576
 7848TIP3    H144959   3.116   3.234   2.259  0.3028  0.3148  0.6634
 7848TIP3    H244960   3.242   3.167   2.208 -0.0813  0.6035 -0.7002
 7849TIP3   OH244961   4.508   0.615  13.264 -0.0576  0.1861  0.3149
 7849TIP3    H144962   4.495   0.524  13.240 -0.7516  0.0640  1.0949
 7849TIP3    H244963   4.424   0.657  13.245  0.3731  0.7480 -0.3944
 7850TIP3   OH244964   4.396   4.744   0.283  0.5037 -0.8302 -0.2515
 7850TIP3    H144965   4.478   4.780   0.249  0.4680 -1.0328 -0.5576
 7850TIP3    H244966   4.355   4.702   0.208  0.3347 -1.1287  0.0039
 7851TIP3   OH244967   6.163   2.711   2.645  1.0275  0.4391  0.1784
 7851TIP3    H144968   6.115   2.708   2.563  1.2828  0.5932  0.0209
 7851TIP3    H244969   6.255   2.705   2.619  1.2420  2.4461  0.2932
 7852TIP3   OH244970   5.731   6.316   0.275  0.2170  0.1235 -0.4119
 7852TIP3    H144971   5.640   6.287   0.282 -0.6940  2.2166 -2.5008
 7852TIP3    H244972   5.768   6.262   0.205  0.1146  0.3398 -0.6330
 7853TIP3   OH244973   2.806   4.746   3.716  0.1426 -0.4580 -0.2908
 7853TIP3    H144974   2.796   4.841   3.720  0.1214 -0.4575  3.4285
 7853TIP3    H244975   2.727   4.712   3.758 -1.1526 -2.3994 -3.8479
 7854TIP3   OH244976   4.241   2.381   2.053  0.5275 -0.0376 -0.5791
 7854TIP3    H144977   4.213   2.472   2.056 -3.1261 -1.0049  1.4814
 7854TIP3    H244978   4.271   2.367   1.963 -1.9219  2.4156 -1.9104
 7855TIP3   OH244979   1.151   6.720   3.159 -0.5103 -0.1945  0.4514
 7855TIP3    H144980   1.162   6.697   3.067 -0.3064  0.3203  0.3486
 7855TIP3    H244981   1.056   6.729   3.171 -0.4736  0.9750 -0.0129
 7856TIP3   OH244982   5.866   2.916   2.705  0.1937  0.2800  0.6563
 7856TIP3    H144983   5.819   2.942   2.626 -1.2251 -1.7338  0.7560
 7856TIP3    H244984   5.941   2.866   2.674 -1.6155 -2.5533  0.4713
 7857TIP3   OH244985   0.924   1.957  16.292 -0.1980  0.1848  0.2692
 7857TIP3    H144986   0.926   1.928  16.383 -4.3557 -0.1080  0.4929
 7857TIP3    H244987   0.938   1.877  16.241  1.0389  0.1501  0.6457
 7858TIP3   OH244988   4.253   5.825  10.592  0.2943 -0.3177 -0.4427
 7858TIP3    H144989   4.184   5.807  10.527 -1.1992 -2.4179  1.5813
 7858TIP3    H244990   4.325   5.767  10.567  1.2499  1.4797 -2.2304
 7859TIP3   OH244991   3.574   3.794   2.391  0.0836 -0.5645  0.8185
 7859TIP3    H144992   3.521   3.728   2.435 -0.8696 -0.7029 -0.4689
 7859TIP3    H244993   3.540   3.795   2.301  0.4571  1.2874  0.6750
 7860TIP3   OH244994   2.304   5.422  11.600 -0.0005  0.1170  0.2887
 7860TIP3    H144995   2.299   5.440  11.506  2.6467  0.7824  0.1787
 7860TIP3    H244996   2.277   5.331  11.610 -0.3348  0.0508 -1.1120
 7861TIP3   OH244997   5.665   6.630  15.528  0.1512 -0.3074  0.6548
 7861TIP3    H144998   5.697   6.640  15.618  1.2309 -1.5297  0.4541
 7861TIP3    H244999   5.570   6.638  15.535  0.2706  0.4157  1.7726
 7862TIP3   OH245000   0.347   2.103   3.620 -0.9817  0.1099 -0.4143
 7862TIP3    H145001   0.341   2.144   3.534  0.7365  0.1719 -0.5326
 7862TIP3    H245002   0.433   2.062   3.621 -0.4849  1.0797  1.6996
 7863TIP3   OH245003   1.674   6.141   5.931  0.2802  0.1929 -0.5170
 7863TIP3    H145004   1.696   6.217   5.877  1.6559  0.0673 -0.1934
 7863TIP3    H245005   1.637   6.077   5.871 -0.5237  0.9690 -0.8610
 7864TIP3   OH245006   0.198   2.255   4.328 -0.6464 -0.7337  0.1364
 7864TIP3    H145007   0.242   2.251   4.244 -1.3916 -1.9520 -0.2263
 7864TIP3    H245008   0.263   2.292   4.388 -0.2979  0.6983 -1.0634
 7865TIP3   OH245009   4.250   2.355   3.380  0.3228 -0.0896  0.4398
 7865TIP3    H145010   4.301   2.412   3.438  0.4463 -1.5465  1.8332
 7865TIP3    H245011   4.186   2.313   3.437 -0.5385 -0.4756 -0.7691
 7866TIP3   OH245012   3.334   2.499  17.179  0.3993 -0.4608 -0.1864
 7866TIP3    H145013   3.302   2.414  17.211 -1.7071  0.7826  1.2361
 7866TIP3    H245014   3.255   2.544  17.149  1.2600  1.5316  0.4091
 7867TIP3   OH245015   1.915   0.581   1.648  0.1221  0.4481  0.0043
 7867TIP3    H145016   1.998   0.541   1.672 -0.3734 -0.2186  0.6615
 7867TIP3    H245017   1.906   0.655   1.708  0.1099  0.3436  0.1327
 7868TIP3   OH245018   6.106   3.508  11.621 -0.0452 -0.2855  0.4684
 7868TIP3    H145019   6.075   3.597  11.604 -0.0451 -0.6179 -1.5639
 7868TIP3    H245020   6.176   3.518  11.684  0.3689  1.2419 -0.1893
 7869TIP3   OH245021   0.105   6.154   4.110 -0.1929 -0.4821 -0.5361
 7869TIP3    H145022   0.054   6.073   4.106 -0.7832 -0.1183 -0.4189
 7869TIP3    H245023   0.067   6.210   4.043 -1.9984  0.9590  1.5540
 7870TIP3   OH245024   4.690   5.206  13.317 -1.0023  0.5951  0.5149
 7870TIP3    H145025   4.738   5.186  13.236 -1.3875 -0.1689  0.4696
 7870TIP3    H245026   4.759   5.222  13.381 -0.5532  4.9938 -0.7466
 7871TIP3   OH245027   5.290   2.242   2.188 -0.3419  0.9347  0.3487
 7871TIP3    H145028   5.386   2.237   2.188 -0.1771  2.8849 -0.8276
 7871TIP3    H245029   5.265   2.211   2.101 -0.9991 -1.4706  1.3107
 7872TIP3   OH245030   0.463   4.509   3.835  0.2040  0.3699  0.1952
 7872TIP3    H145031   0.554   4.527   3.859  0.0486  0.6153  0.6117
 7872TIP3    H245032   0.463   4.418   3.805  0.3849  0.0265  1.2239
 7873TIP3   OH245033   5.001   1.287   5.065  0.0492 -0.3387  0.3183
 7873TIP3    H145034   5.010   1.230   5.141 -0.1440  0.2148  0.7586
 7873TIP3    H245035   4.912   1.323   5.073  0.5031  0.7568  0.5565
 7874TIP3   OH245036   0.894   3.092  17.033  0.4291 -0.6598 -0.0113
 7874TIP3    H145037   0.892   3.034  16.957 -1.8382  0.4873 -0.9423
 7874TIP3    H245038   0.803   3.096  17.062  1.0443 -0.0315  1.9741
 7875TIP3   OH245039   1.101   0.275  13.599 -0.6338 -0.4726  0.5112
 7875TIP3    H145040   1.052   0.249  13.521 -2.5126  0.4814  1.3072
 7875TIP3    H245041   1.035   0.314  13.657  1.4149  3.2072  0.6618
 7876TIP3   OH245042   1.634   2.876   3.051  0.2799  0.1848 -0.0234
 7876TIP3    H145043   1.678   2.879   3.137  0.4788  1.7178 -0.1490
 7876TIP3    H245044   1.576   2.952   3.051  0.3728  0.2757 -1.3023
 7877TIP3   OH245045   4.038   4.508   0.798  0.5896  0.1222 -0.1284
 7877TIP3    H145046   4.101   4.579   0.784 -0.4564  1.4526  1.5553
 7877TIP3    H245047   3.956   4.552   0.819 -0.2473 -1.6002  0.4386
 7878TIP3   OH245048   6.077   2.825  13.397 -0.6495 -0.4877  0.3125
 7878TIP3    H145049   6.025   2.858  13.324  0.0859  0.0433  0.0088
 7878TIP3    H245050   6.046   2.874  13.473  0.9360  1.5594 -0.2575
 7879TIP3   OH245051   6.559   3.261   3.983 -0.0625  0.2285 -0.0171
 7879TIP3    H145052   6.471   3.293   4.002 -0.3552 -0.7517  0.3110
 7879TIP3    H245053   6.613   3.300   4.052 -0.6154 -0.8779  1.0822
 7880TIP3   OH245054   5.934   0.819  10.768  0.2748  0.2499  0.6513
 7880TIP3    H145055   6.017   0.856  10.737  0.4781 -0.6704  0.0460
 7880TIP3    H245056   5.893   0.784  10.689  0.2379 -1.0614  1.2218
 7881TIP3   OH245057   2.015   2.227   1.709  0.3988 -0.0561 -0.1560
 7881TIP3    H145058   2.066   2.207   1.788  0.5681 -0.7564 -0.4411
 7881TIP3    H245059   1.934   2.266   1.742  0.8978  0.5971  0.3214
 7882TIP3   OH245060   4.238   0.294  12.880  0.3719 -0.6197 -0.2834
 7882TIP3    H145061   4.321   0.339  12.900 -0.8875  0.7367  2.4668
 7882TIP3    H245062   4.232   0.224  12.945 -0.6315 -0.7102 -0.4593
 7883TIP3   OH245063   2.652   6.639  12.767  0.3597 -0.2829  0.6835
 7883TIP3    H145064   2.691   6.716  12.726 -0.6151  0.4574  1.0975
 7883TIP3    H245065   2.674   6.647  12.860 -0.0364 -0.3207  0.7817
 7884TIP3   OH245066   1.763   4.296  11.733 -0.4309 -0.2609  0.4188
 7884TIP3    H145067   1.751   4.246  11.814  0.7090  0.6793  1.2230
 7884TIP3    H245068   1.858   4.305  11.725 -0.5416 -0.1117 -0.8946
 7885TIP3   OH245069   6.320   4.501  16.829 -0.0503 -0.0038 -0.0545
 7885TIP3    H145070   6.258   4.543  16.769  0.3111 -1.4431 -1.4864
 7885TIP3    H245071   6.267   4.480  16.906 -0.1793  3.2926  0.9202
 7886TIP3   OH245072   4.216   0.011  13.955 -0.0861 -0.4500 -0.0019
 7886TIP3    H145073   4.135   0.038  13.911  0.2089 -0.1432 -0.3687
 7886TIP3    H245074   4.272  -0.022  13.885  0.3331 -0.1024  0.1572
 7887TIP3   OH245075   4.715   4.233   0.414  0.0657 -0.1322  0.1516
 7887TIP3    H145076   4.640   4.242   0.473 -0.2921 -1.1087 -0.1463
 7887TIP3    H245077   4.766   4.313   0.429 -1.2047  0.7229  0.1018
 7888TIP3   OH245078   3.013   3.796   1.772 -0.0018 -0.0717  0.2290
 7888TIP3    H145079   2.938   3.831   1.725 -0.6708 -0.0684  1.2787
 7888TIP3    H245080   3.074   3.870   1.779 -0.3574  0.2123  0.3101
 7889TIP3   OH245081   1.650   4.052  14.841  0.7750  0.9221  0.1261
 7889TIP3    H145082   1.597   4.132  14.836  0.2894  0.5947 -0.0008
 7889TIP3    H245083   1.721   4.067  14.779 -0.3126  0.5257 -1.2828
 7890TIP3   OH245084   3.756   2.529  12.559  0.0315  0.5893 -0.2111
 7890TIP3    H145085   3.772   2.618  12.527  2.6139  0.5154  0.6606
 7890TIP3    H245086   3.728   2.541  12.650  1.5288  0.5403  0.2922
 7891TIP3   OH245087   1.848   3.202   3.820  0.1833 -0.3301 -0.0562
 7891TIP3    H145088   1.816   3.234   3.904  2.2883 -1.3630  1.2260
 7891TIP3    H245089   1.842   3.277   3.761 -1.6914  0.3019  0.8648
 7892TIP3   OH245090   5.267   5.522  12.320  0.0303 -0.1233 -0.0349
 7892TIP3    H145091   5.236   5.471  12.395 -0.8411  1.0424  0.4297
 7892TIP3    H245092   5.301   5.603  12.358  0.4053  0.1107 -0.8346
 7893TIP3   OH245093   3.772   2.465   5.433  0.3382  0.0427  0.3674
 7893TIP3    H145094   3.827   2.494   5.360  0.3145 -0.7271  0.0332
 7893TIP3    H245095   3.753   2.545   5.482  1.6685  0.3290  0.4377
 7894TIP3   OH245096   1.860   6.481   5.265 -0.2871  0.5167 -0.2167
 7894TIP3    H145097   1.866   6.393   5.229 -1.9641  0.7630 -1.2248
 7894TIP3    H245098   1.898   6.537   5.198  1.2687  0.5417  0.6515
 7895TIP3   OH245099   5.274   0.399  12.927  0.4183 -0.3396  0.5834
 7895TIP3    H145100   5.310   0.482  12.893 -0.1880 -1.2266 -2.4989
 7895TIP3    H245101   5.182   0.417  12.941 -0.0397 -0.7957 -1.5061
 7896TIP3   OH245102   0.783   4.912   5.944 -0.2805 -0.4739  0.9347
 7896TIP3    H145103   0.795   4.842   6.008 -2.4100 -1.4299  0.3701
 7896TIP3    H245104   0.699   4.952   5.967  0.6941  1.6594  0.9827
 7897TIP3   OH245105   1.779   3.390  15.588  0.2013 -0.6760  0.2553
 7897TIP3    H145106   1.725   3.429  15.520  0.3654  0.5252  0.7808
 7897TIP3    H245107   1.817   3.465  15.634  0.8944 -1.4747  1.0237
 7898TIP3   OH245108   2.782   6.129   0.777 -0.1266  0.2038 -0.0281
 7898TIP3    H145109   2.786   6.174   0.692 -1.3024 -0.6134 -0.5400
 7898TIP3    H245110   2.707   6.169   0.821  0.5743  0.7349  0.7140
 7899TIP3   OH245111   5.812   5.770   2.846  0.4298  0.0891  0.3606
 7899TIP3    H145112   5.879   5.706   2.821  0.3458 -0.0531  0.4928
 7899TIP3    H245113   5.823   5.780   2.941  0.7290  0.5992  0.2733
 7900TIP3   OH245114   1.657   2.419   4.716  0.5882 -0.1489 -0.1961
 7900TIP3    H145115   1.657   2.479   4.641  2.1581 -0.3762 -0.4126
 7900TIP3    H245116   1.740   2.438   4.761 -0.2653 -0.1081  1.4145
 7901TIP3   OH245117   4.504   1.989   5.775 -0.9645  0.2765 -0.7931
 7901TIP3    H145118   4.469   2.050   5.840 -1.0256  0.7736 -1.2800
 7901TIP3    H245119   4.594   1.973   5.804 -2.1122 -2.6574  1.6405
 7902TIP3   OH245120   4.221   6.466  16.070 -0.0435 -1.0590 -0.2938
 7902TIP3    H145121   4.164   6.419  16.131  0.8330  0.4670  1.8515
 7902TIP3    H245122   4.309   6.431  16.087  0.3609  0.1022  0.0990
 7903TIP3   OH245123   3.424   5.405  13.174 -0.0078  0.2290  0.4006
 7903TIP3    H145124   3.364   5.474  13.201  0.3993  0.9642 -0.5105
 7903TIP3    H245125   3.441   5.423  13.082  0.1081 -1.1021  0.1513
 7904TIP3   OH245126   6.349   2.167   3.495 -0.3920  0.0846 -0.0624
 7904TIP3    H145127   6.283   2.219   3.448  1.1577  0.5669 -1.8391
 7904TIP3    H245128   6.431   2.216   3.482  0.5468 -1.1500  1.0014
 7905TIP3   OH245129   3.997   5.635  17.049  0.1548  0.0564 -0.1102
 7905TIP3    H145130   3.984   5.684  17.131  1.7706  0.4971 -0.0801
 7905TIP3    H245131   4.020   5.702  16.985 -0.6455 -0.3460 -0.8451
 7906TIP3   OH245132   5.139   4.491  11.577  0.2214  0.0503 -0.6156
 7906TIP3    H145133   5.111   4.400  11.567 -0.8742  0.3361 -0.2294
 7906TIP3    H245134   5.151   4.522  11.487  1.5512 -0.7431 -0.7402
 7907TIP3   OH245135   1.977   5.052   1.958  0.0576  0.8998 -0.0288
 7907TIP3    H145136   1.972   5.147   1.969 -1.3514  0.8417  0.0231
 7907TIP3    H245137   1.885   5.024   1.954  0.4529 -0.4860  0.2287
 7908TIP3   OH245138   0.087   0.865  16.880 -0.3942  0.2443 -0.5532
 7908TIP3    H145139   0.098   0.925  16.954 -0.0927 -2.1140  1.4333
 7908TIP3    H245140  -0.008   0.856  16.871 -0.4327  0.3052 -0.2365
 7909TIP3   OH245141   4.996   6.322  12.972  0.2972 -0.3913 -0.3914
 7909TIP3    H145142   4.953   6.407  12.967  0.5818 -0.2828 -1.0046
 7909TIP3    H245143   4.929   6.259  12.944 -0.0572 -0.4300  0.4900
 7910TIP3   OH245144   3.456   3.668   5.080  0.4327 -0.4540 -0.2769
 7910TIP3    H145145   3.527   3.624   5.034  2.0679 -0.9216  2.4247
 7910TIP3    H245146   3.416   3.599   5.133  0.2696  0.4689  0.8442
 7911TIP3   OH245147   4.989   2.711  13.784 -0.2154  0.0348 -0.2161
 7911TIP3    H145148   5.036   2.660  13.850  0.9469 -0.8711 -1.6810
 7911TIP3    H245149   5.006   2.802  13.807 -0.3612 -0.2455  1.0792
 7912TIP3   OH245150   2.632   1.829   4.438  0.0744  0.7491 -0.5246
 7912TIP3    H145151   2.545   1.856   4.407  0.0414  1.1975 -0.0585
 7912TIP3    H245152   2.634   1.734   4.426  0.1668  0.9377 -2.1560
 7913TIP3   OH245153   3.446   0.639   1.104 -0.4410 -0.6688 -0.3010
 7913TIP3    H145154   3.463   0.656   1.197 -1.1364  1.6156 -0.5460
 7913TIP3    H245155   3.497   0.705   1.058 -1.8524 -0.3311 -1.4462
 7914TIP3   OH245156   5.263   3.293   6.191  0.2427  0.3784 -0.5806
 7914TIP3    H145157   5.323   3.366   6.179 -0.6622  1.7862  2.4683
 7914TIP3    H245158   5.181   3.333   6.218 -0.9235 -1.6908 -0.8080
 7915TIP3   OH245159   0.122   6.475  14.038  0.8635  0.8386  0.0085
 7915TIP3    H145160   0.061   6.437  14.101  1.1824  1.3033  0.6111
 7915TIP3    H245161   0.187   6.520  14.092  0.1205  2.8457 -0.6802
 7916TIP3   OH245162   0.367   5.122  16.422  0.3631  0.2390  0.2136
 7916TIP3    H145163   0.395   5.158  16.338  1.5297  0.8609  0.8466
 7916TIP3    H245164   0.375   5.027  16.411 -0.1151  0.2810 -0.5740
 7917TIP3   OH245165   2.365   0.853  13.933  0.4154 -0.2988 -0.0624
 7917TIP3    H145166   2.437   0.889  13.984 -1.2936  0.2198  2.1476
 7917TIP3    H245167   2.288   0.901  13.963 -0.7642 -0.0769 -3.0799
 7918TIP3   OH245168   5.267   3.210  15.237  0.2424 -0.0992  0.2212
 7918TIP3    H145169   5.315   3.247  15.312  0.0675 -1.4832  1.0475
 7918TIP3    H245170   5.280   3.274  15.167 -0.1672  1.6107  1.6174
 7919TIP3   OH245171   4.157   2.408  13.287  0.2325 -0.5742 -0.1929
 7919TIP3    H145172   4.210   2.482  13.316 -0.4794 -0.2977  0.4348
 7919TIP3    H245173   4.069   2.444  13.276 -0.6589 -1.7550  2.2985
 7920TIP3   OH245174   2.566   0.445   1.925 -0.3023  0.1796  0.5127
 7920TIP3    H145175   2.518   0.406   1.998 -0.4288 -0.7971 -0.0651
 7920TIP3    H245176   2.600   0.369   1.876  0.8504  0.8303  0.2654
 7921TIP3   OH245177   1.514   5.023  11.348  0.4822  0.1066 -0.1753
 7921TIP3    H145178   1.585   4.963  11.326  0.4546  0.5902 -1.6694
 7921TIP3    H245179   1.436   4.968  11.351  0.7847 -0.2982  0.7473
 7922TIP3   OH245180   6.085   6.625   3.744  0.3370 -0.0236  0.3348
 7922TIP3    H145181   6.139   6.702   3.760  0.8431 -0.2764 -0.1257
 7922TIP3    H245182   6.147   6.552   3.739 -0.1974 -0.6060  1.6212
 7923TIP3   OH245183   4.202   4.914   4.725 -0.3599  0.6890 -0.5291
 7923TIP3    H145184   4.280   4.969   4.716  0.0019  0.0617 -1.2770
 7923TIP3    H245185   4.215   4.842   4.664 -1.5117  0.5446 -0.6366
 7924TIP3   OH245186   1.555   5.104  10.588  0.2581 -0.0373 -0.3628
 7924TIP3    H145187   1.620   5.090  10.519  2.4860 -0.7678  1.7458
 7924TIP3    H245188   1.571   5.193  10.619  0.3595 -0.2723  0.2718
 7925TIP3   OH245189   6.137   6.018  13.076  0.8508 -0.1800 -0.2052
 7925TIP3    H145190   6.211   6.064  13.036  1.1131 -0.0516  0.4224
 7925TIP3    H245191   6.168   5.928  13.086  1.1981  0.0265  0.7134
 7926TIP3   OH245192   5.409   5.384   2.031 -0.5672 -0.1627 -0.4982
 7926TIP3    H145193   5.426   5.410   1.940  0.5046 -0.5284 -0.4201
 7926TIP3    H245194   5.453   5.299   2.039 -0.5724 -0.0820  0.4009
 7927TIP3   OH245195   4.360   2.246  15.211 -0.6563 -0.3634  0.1827
 7927TIP3    H145196   4.437   2.285  15.254  1.2515 -3.4776 -0.0709
 7927TIP3    H245197   4.288   2.259  15.273  0.5797  0.7094  1.4681
 7928TIP3   OH245198   5.569   4.050  14.511 -0.1579 -0.1029  0.4349
 7928TIP3    H145199   5.547   4.137  14.479 -0.6913 -0.0239  1.0008
 7928TIP3    H245200   5.533   3.991  14.445  0.8630  0.1147 -0.3375
 7929TIP3   OH245201   6.484   4.048   2.760 -0.0672 -0.1255  0.3685
 7929TIP3    H145202   6.448   4.089   2.838  0.0750 -0.1300  0.4369
 7929TIP3    H245203   6.488   3.955   2.781 -1.2773 -0.3103 -0.1302
 7930TIP3   OH245204   2.843   4.455  13.693  0.0564  0.0682  0.1361
 7930TIP3    H145205   2.865   4.383  13.752 -1.6505 -0.8969 -0.3163
 7930TIP3    H245206   2.813   4.526  13.751 -0.4884 -0.4510  0.5005
 7931TIP3   OH245207   3.675   4.664  14.627 -0.4631  0.0947 -0.0413
 7931TIP3    H145208   3.753   4.634  14.580 -1.2653 -1.7553 -0.2828
 7931TIP3    H245209   3.668   4.757  14.605  0.5844 -0.1545 -1.6082
 7932TIP3   OH245210   6.320   4.196   3.653 -0.3834 -0.6068 -0.3610
 7932TIP3    H145211   6.375   4.228   3.581  1.1591  0.5943  1.2656
 7932TIP3    H245212   6.352   4.108   3.671  2.3892  0.6869  1.7233
 7933TIP3   OH245213   4.415   6.377  11.942  0.1889 -0.1117 -0.4498
 7933TIP3    H145214   4.374   6.351  11.859 -2.9335 -0.0644  0.9240
 7933TIP3    H245215   4.437   6.470  11.929 -2.4450  0.5802 -0.5660
 7934TIP3   OH245216   4.679   5.778   2.619  0.1419 -0.3268  0.2131
 7934TIP3    H145217   4.767   5.768   2.582  0.4462  0.3584  0.7231
 7934TIP3    H245218   4.668   5.872   2.629 -0.6914 -0.4028  0.0832
 7935TIP3   OH245219   0.524   5.671   0.424 -0.0781  0.0468 -0.9351
 7935TIP3    H145220   0.543   5.584   0.388  0.5854  0.1899 -0.9455
 7935TIP3    H245221   0.470   5.713   0.358 -0.1363 -0.2437 -1.0758
 7936TIP3   OH245222   5.541   6.428  14.355  0.2566 -0.1624 -0.5184
 7936TIP3    H145223   5.495   6.410  14.437 -0.8250 -2.0007 -1.4615
 7936TIP3    H245224   5.507   6.513  14.326  1.1387  0.8241  1.2169
 7937TIP3   OH245225   6.151   0.080   3.172  0.4714  0.8000  1.0574
 7937TIP3    H145226   6.172   0.118   3.087 -0.0637 -0.6716  0.2260
 7937TIP3    H245227   6.159  -0.014   3.159  0.1323  0.5284  2.5808
 7938TIP3   OH245228   2.980   5.871  16.096 -0.1039 -0.3813  0.1009
 7938TIP3    H145229   3.046   5.860  16.027  0.6848  0.0615  0.7661
 7938TIP3    H245230   2.979   5.965  16.113  1.1066 -0.6663  2.0098
 7939TIP3   OH245231   4.337   1.317   4.172 -0.1468 -0.1968 -0.4131
 7939TIP3    H145232   4.272   1.382   4.199  0.0731 -0.0218 -0.3043
 7939TIP3    H245233   4.289   1.234   4.172 -0.1857 -0.1793  0.3852
 7940TIP3   OH245234   3.114   5.384   5.685 -0.5536  0.2879 -0.9703
 7940TIP3    H145235   3.100   5.342   5.600  2.1998 -1.5845 -0.6151
 7940TIP3    H245236   3.094   5.316   5.749 -0.2024  0.8968 -0.1968
 7941TIP3   OH245237   0.870   2.492   2.440 -0.2944  0.4474 -0.1267
 7941TIP3    H145238   0.818   2.565   2.407 -0.0865  1.7781  2.3351
 7941TIP3    H245239   0.938   2.532   2.493  2.9628 -1.2681 -2.6073
 7942TIP3   OH245240   0.606   2.299   3.509  0.1405 -0.0082  0.4665
 7942TIP3    H145241   0.668   2.266   3.443  0.4145 -0.3107  0.8675
 7942TIP3    H245242   0.597   2.226   3.571 -0.8734 -0.0949  0.2407
 7943TIP3   OH245243   2.415   4.108   0.822 -0.2053 -0.3305 -0.4291
 7943TIP3    H145244   2.495   4.090   0.773  0.3829  1.4722 -0.2090
 7943TIP3    H245245   2.442   4.168   0.892 -1.5047 -0.7577  0.4884
 7944TIP3   OH245246   4.635   2.714  12.346  0.4008  0.2709 -0.1647
 7944TIP3    H145247   4.557   2.704  12.400  1.0088 -0.4830  0.6253
 7944TIP3    H245248   4.705   2.674  12.399  0.8249 -1.5553 -1.9788
 7945TIP3   OH245249   6.543   2.841   5.562 -0.1132 -0.3476  0.3061
 7945TIP3    H145250   6.514   2.805   5.645 -0.7752  1.2047  0.7829
 7945TIP3    H245251   6.559   2.934   5.580  2.0691 -0.4427 -0.7240
 7946TIP3   OH245252   4.953   0.497  10.490 -0.0704 -0.4953  0.3058
 7946TIP3    H145253   4.861   0.484  10.512 -0.6028  0.4387 -1.2215
 7946TIP3    H245254   4.975   0.425  10.431  0.1507 -0.6640  0.5928
 7947TIP3   OH245255   1.397   0.014   6.263 -0.4942 -1.3527 -0.1453
 7947TIP3    H145256   1.350   0.011   6.346 -0.4853  0.1978 -0.0544
 7947TIP3    H245257   1.354   0.084   6.214  0.3028 -1.4021 -0.9413
 7948TIP3   OH245258   5.380   3.067   6.096 -0.2527  0.0914 -0.1103
 7948TIP3    H145259   5.307   3.005   6.093 -0.9249  0.8858 -0.2900
 7948TIP3    H245260   5.344   3.145   6.137  0.2210  0.8501 -1.1016
 7949TIP3   OH245261   3.259   5.921   5.980 -0.1718  0.1057  0.3724
 7949TIP3    H145262   3.208   5.844   5.957 -2.0646  0.9152  1.5630
 7949TIP3    H245263   3.221   5.991   5.926  0.3229  0.5533  0.5964
 7950TIP3   OH245264   2.078   3.715  11.944  0.7729  0.0819 -0.4627
 7950TIP3    H145265   2.098   3.723  11.851  0.6551 -0.9870 -0.5938
 7950TIP3    H245266   1.994   3.759  11.954 -0.0079 -1.1747 -1.1917
 7951TIP3   OH245267   3.410   6.484   5.791  0.1345 -0.6014 -0.4706
 7951TIP3    H145268   3.429   6.578   5.782  1.3182 -0.7735 -0.0076
 7951TIP3    H245269   3.349   6.479   5.864  2.4136 -0.3707  1.5973
 7952TIP3   OH245270   4.122   3.144  11.899  0.5270  0.0327 -0.4343
 7952TIP3    H145271   4.152   3.076  11.838  2.6236  0.1962  0.3352
 7952TIP3    H245272   4.182   3.217  11.885 -0.7302  1.1636 -0.1363
 7953TIP3   OH245273   5.509   6.472   2.779  0.5062 -0.6645  0.2459
 7953TIP3    H145274   5.421   6.478   2.817 -0.0733  1.3905 -1.1736
 7953TIP3    H245275   5.536   6.382   2.794 -2.8892 -2.1594 -1.3864
 7954TIP3   OH245276   3.473   2.810  12.546 -0.1301  0.1816  0.6860
 7954TIP3    H145277   3.493   2.802  12.639  0.7318  0.2642  0.5095
 7954TIP3    H245278   3.501   2.898  12.522 -0.5709  0.2474  0.3946
 7955TIP3   OH245279   6.447   4.250  15.856 -0.1879 -0.4839 -0.3255
 7955TIP3    H145280   6.488   4.291  15.933 -2.3342 -0.1871  0.7418
 7955TIP3    H245281   6.521   4.225  15.800  1.3554  2.1157  0.3593
 7956TIP3   OH245282   4.952   4.920  12.042  0.1254  0.3986  0.5568
 7956TIP3    H145283   4.866   4.881  12.058  0.8604 -1.8430 -0.5210
 7956TIP3    H245284   4.965   4.911  11.947  1.8671 -0.1029  0.8035
 7957TIP3   OH245285   3.522   5.762  11.680  0.0802  0.0804 -0.1902
 7957TIP3    H145286   3.453   5.764  11.746  0.6332 -0.0371  0.4086
 7957TIP3    H245287   3.547   5.670  11.673  0.5855  0.1914  0.0509
 7958TIP3   OH245288   4.373   3.432   4.719  0.2035  0.1154 -0.5697
 7958TIP3    H145289   4.350   3.509   4.771  1.0607 -0.0684  0.1017
 7958TIP3    H245290   4.328   3.360   4.762 -0.3997  0.1922 -1.0541
 7959TIP3   OH245291   5.503   1.170   5.408  0.0987 -0.3322  0.2476
 7959TIP3    H145292   5.560   1.160   5.484  0.2494  1.4574  0.4244
 7959TIP3    H245293   5.415   1.178   5.444  0.2515  1.3153  0.3514
 7960TIP3   OH245294   0.876   5.091  11.565 -0.5324 -0.1624 -0.3705
 7960TIP3    H145295   0.971   5.081  11.565 -0.4105  0.0691  3.0131
 7960TIP3    H245296   0.846   5.027  11.500  1.8921 -0.2001 -1.5722
 7961TIP3   OH245297   5.441   0.676  15.778 -0.1386 -0.4072 -0.3740
 7961TIP3    H145298   5.423   0.587  15.747 -2.7693 -0.4884  1.0763
 7961TIP3    H245299   5.503   0.664  15.850  0.7512 -0.8825 -1.2040
 7962TIP3   OH245300   6.773   6.692  14.717 -0.3667  0.1144  0.4156
 7962TIP3    H145301   6.782   6.778  14.676  1.4300 -0.4737 -0.5288
 7962TIP3    H245302   6.702   6.650  14.669 -1.8568  1.3237  1.4437
 7963TIP3   OH245303   0.974   0.403  14.604 -0.4216  0.4296 -0.4774
 7963TIP3    H145304   1.033   0.461  14.556  0.9871  1.1587  1.9471
 7963TIP3    H245305   1.029   0.329  14.631 -0.7219  0.7542  1.1833
 7964TIP3   OH245306   3.360   1.097  16.942  0.2222 -0.0573  0.0870
 7964TIP3    H145307   3.450   1.110  16.911 -0.2480  0.7753 -0.9867
 7964TIP3    H245308   3.315   1.178  16.921 -1.4005 -1.3253 -1.6561
 7965TIP3   OH245309   0.329   4.751  15.683  0.4510  0.2353  0.3295
 7965TIP3    H145310   0.335   4.707  15.768 -0.3310 -1.4642 -0.4600
 7965TIP3    H245311   0.236   4.773  15.674  0.7337  1.5364  0.4400
 7966TIP3   OH245312   2.973   3.244   1.766  0.1401 -0.2738  0.1600
 7966TIP3    H145313   3.001   3.335   1.758  0.2484 -0.3859 -0.8233
 7966TIP3    H245314   2.974   3.210   1.677 -1.8064 -0.6867  0.2481
 7967TIP3   OH245315   4.308   6.361  13.658  0.2245 -0.0310  0.3767
 7967TIP3    H145316   4.366   6.391  13.728 -0.1463 -1.7601  1.4947
 7967TIP3    H245317   4.358   6.295  13.611  0.4807  1.1424 -1.0707
 7968TIP3   OH245318   0.281   6.686  13.888  0.1104 -0.2486  0.5807
 7968TIP3    H145319   0.284   6.705  13.982 -0.6904  1.4757  0.2906
 7968TIP3    H245320   0.190   6.662  13.871  0.1932 -0.3047  0.1994
 7969TIP3   OH245321   0.678   0.712   0.691 -0.0346  0.2651 -0.2461
 7969TIP3    H145322   0.621   0.776   0.734 -2.0209 -1.4395 -0.1974
 7969TIP3    H245323   0.691   0.643   0.755 -1.4852 -1.4064 -1.6472
 7970TIP3   OH245324   6.130   1.954   2.578 -0.2701 -0.1034 -0.7872
 7970TIP3    H145325   6.161   1.956   2.488  1.5275 -0.0530 -0.2094
 7970TIP3    H245326   6.035   1.955   2.571 -0.1756 -0.7633 -2.6938
 7971TIP3   OH245327   4.615   6.328  15.750 -0.6660  0.3194  0.2083
 7971TIP3    H145328   4.637   6.236  15.769  0.1223  0.4817  0.0930
 7971TIP3    H245329   4.606   6.331  15.655 -1.1691  0.2635  0.2499
 7972TIP3   OH245330   3.143   2.880   2.657 -0.1699  0.1331  0.2070
 7972TIP3    H145331   3.176   2.920   2.576 -0.2710 -0.2031 -0.0038
 7972TIP3    H245332   3.144   2.786   2.639 -4.2421  0.1611 -1.0301
 7973TIP3   OH245333   3.292   1.753   3.570 -0.0478  0.5891  0.1916
 7973TIP3    H145334   3.347   1.781   3.496  0.3882  0.9397  0.6485
 7973TIP3    H245335   3.334   1.673   3.601 -1.4898 -0.8636 -1.3415
 7974TIP3   OH245336   0.539   3.470   0.394 -0.1562 -0.1241  0.3489
 7974TIP3    H145337   0.539   3.379   0.367  2.8461  0.0801 -0.6745
 7974TIP3    H245338   0.524   3.467   0.489  2.7048 -1.9806  0.8531
 7975TIP3   OH245339   3.702   3.920   3.915 -0.2590 -0.2924  0.4655
 7975TIP3    H145340   3.648   3.952   3.987 -0.4962  1.4793 -0.4362
 7975TIP3    H245341   3.642   3.914   3.841  0.6258  1.2377 -0.4338
 7976TIP3   OH245342   5.324   0.916  16.349 -0.3199 -0.3270  0.5778
 7976TIP3    H145343   5.260   0.982  16.320  0.5834  0.7300  0.9408
 7976TIP3    H245344   5.394   0.920  16.284 -0.2608 -0.9565  0.5943
 7977TIP3   OH245345   2.509   5.948  16.399  0.0420 -0.3280 -0.7702
 7977TIP3    H145346   2.542   5.988  16.479  0.9418  1.9299 -2.1898
 7977TIP3    H245347   2.416   5.971  16.396 -0.2553 -1.3058  0.0759
 7978TIP3   OH245348   5.213   6.372  12.802 -0.5056 -0.3804 -0.4125
 7978TIP3    H145349   5.250   6.445  12.851 -2.3800  0.0053  0.4976
 7978TIP3    H245350   5.122   6.365  12.832 -0.9573 -1.8222 -1.9210
 7979TIP3   OH245351   2.083   0.614   0.161  0.1718  0.2779 -0.0797
 7979TIP3    H145352   2.105   0.569   0.243  0.7278 -0.3008 -0.5432
 7979TIP3    H245353   2.046   0.698   0.190 -0.2472 -0.1899  0.7760
 7980TIP3   OH245354   1.640   2.854  13.596 -0.0443 -0.0079 -0.2591
 7980TIP3    H145355   1.631   2.808  13.512  0.5430 -0.9513  0.1697
 7980TIP3    H245356   1.621   2.787  13.662  1.1827  0.2448  0.3963
 7981TIP3   OH245357   6.430   0.419  14.385  0.1640  0.8808  0.2016
 7981TIP3    H145358   6.417   0.378  14.470 -2.3366  1.3332  0.1071
 7981TIP3    H245359   6.523   0.442  14.383  1.0812 -2.1807  1.3866
 7982TIP3   OH245360   6.351   1.829   3.389 -0.1997 -0.3897 -0.4991
 7982TIP3    H145361   6.393   1.868   3.311 -0.8134  0.9277 -0.2002
 7982TIP3    H245362   6.258   1.834   3.370 -0.3314 -0.5197  0.1211
 7983TIP3   OH245363   3.049   4.763   4.792 -0.3292 -0.1103  0.1944
 7983TIP3    H145364   2.979   4.699   4.809  0.0832 -0.5312  0.3454
 7983TIP3    H245365   3.130   4.711   4.795 -0.1585 -0.2242 -2.8204
 7984TIP3   OH245366   5.501   1.521  16.372 -0.8414  0.2922 -0.4707
 7984TIP3    H145367   5.424   1.540  16.426 -0.4692  0.4306  0.0227
 7984TIP3    H245368   5.564   1.589  16.396  0.2241 -1.0522  0.7329
 7985TIP3   OH245369   6.733   5.582   4.681  0.7802  0.5848 -0.0084
 7985TIP3    H145370   6.661   5.633   4.645  1.5071  1.7004  0.0767
 7985TIP3    H245371   6.743   5.509   4.620 -0.9890 -0.1160  0.4583
 7986TIP3   OH245372   1.081   3.463  13.701  0.3704  1.2268  0.1903
 7986TIP3    H145373   1.174   3.440  13.700  0.4805  1.6779 -1.0387
 7986TIP3    H245374   1.043   3.414  13.629  0.1861  3.0671 -1.0448
 7987TIP3   OH245375   3.577   0.357  14.531  0.4765 -0.3805 -0.5309
 7987TIP3    H145376   3.595   0.288  14.594  1.0821 -0.6340 -0.9695
 7987TIP3    H245377   3.640   0.426  14.554 -0.6498  0.3802  0.4107
 7988TIP3   OH245378   0.178   2.094   1.825 -0.0641 -0.2707  0.6984
 7988TIP3    H145379   0.189   2.179   1.867 -1.0219  0.7049 -0.9108
 7988TIP3    H245380   0.254   2.043   1.854  1.5361  1.7341  0.2938
 7989TIP3   OH245381   4.009   5.868   2.402  0.2945  0.1146 -0.0674
 7989TIP3    H145382   4.077   5.801   2.390 -0.0959 -0.6155  1.5477
 7989TIP3    H245383   4.055   5.941   2.443  0.2696 -0.0525  0.2580
 7990TIP3   OH245384   5.109   2.984  11.190 -0.2906 -0.1675 -0.4962
 7990TIP3    H145385   5.043   2.914  11.192  0.0891 -0.5091  1.4356
 7990TIP3    H245386   5.096   3.031  11.272  1.4458  0.1484 -0.3842
 7991TIP3   OH245387   6.132   2.471  14.905  0.3473 -0.1501  0.1346
 7991TIP3    H145388   6.129   2.565  14.886 -0.0664  0.0664  1.1890
 7991TIP3    H245389   6.164   2.466  14.995  0.3912 -1.0248  0.0738
 7992TIP3   OH245390   2.850   5.059   5.654 -0.5566  0.2580 -0.0724
 7992TIP3    H145391   2.892   5.060   5.568  0.1701  1.1120  0.2881
 7992TIP3    H245392   2.891   4.986   5.700 -2.6820 -1.8503 -1.2597
 7993TIP3   OH245393   4.847   3.075   0.592  0.1201  0.2346 -0.2249
 7993TIP3    H145394   4.769   3.029   0.621  0.4833  0.0994  0.5643
 7993TIP3    H245395   4.816   3.131   0.520 -0.3780 -0.9860 -0.9806
 7994TIP3   OH245396   0.350   5.731  16.870  0.1648  0.5489  0.3898
 7994TIP3    H145397   0.259   5.720  16.841  0.8064  0.0352 -1.5869
 7994TIP3    H245398   0.360   5.825  16.883  0.0676  0.9486 -2.0723
 7995TIP3   OH245399   3.606   5.788   1.573 -0.0555  0.4405 -0.0380
 7995TIP3    H145400   3.614   5.710   1.518 -0.4351 -1.5903  2.5676
 7995TIP3    H245401   3.514   5.790   1.598 -0.1499  2.0477 -0.4405
 7996TIP3   OH245402   1.544   0.413   0.251 -0.6361 -0.0370  0.1656
 7996TIP3    H145403   1.538   0.462   0.169 -0.6104  0.6396  0.5533
 7996TIP3    H245404   1.605   0.343   0.233  0.4563  0.9302 -0.0121
 7997TIP3   OH245405   1.580   5.876   4.859  0.5171  0.2892 -0.4465
 7997TIP3    H145406   1.498   5.912   4.824 -0.1590 -1.5515 -0.9003
 7997TIP3    H245407   1.644   5.947   4.849 -0.8926  1.5881 -0.5742
 7998TIP3   OH245408   5.423   2.435  12.319 -0.1382 -0.0324  0.2629
 7998TIP3    H145409   5.339   2.392  12.331 -0.6414  1.1915  1.3387
 7998TIP3    H245410   5.484   2.385  12.372 -0.3410 -0.4765  0.0781
 7999TIP3   OH245411   5.572   5.547  16.375 -0.3340  0.3585  0.6947
 7999TIP3    H145412   5.593   5.588  16.291  3.7170 -1.1834  0.7049
 7999TIP3    H245413   5.565   5.621  16.436 -3.1763  1.4932 -0.8275
 8000TIP3   OH245414   6.313   0.935   1.218  0.8471  0.4777 -0.5728
 8000TIP3    H145415   6.246   0.871   1.243  1.2037 -0.1780 -1.2224
 8000TIP3    H245416   6.385   0.920   1.279  0.8531  0.3844 -0.6015
 8001TIP3   OH245417   5.440   5.519   4.567 -0.2667  0.0148  0.0070
 8001TIP3    H145418   5.527   5.503   4.532 -0.2958 -1.9824  0.7289
 8001TIP3    H245419   5.447   5.499   4.660 -1.5368 -0.4458  0.0233
 8002TIP3   OH245420   5.010   1.215  13.449 -0.3083  0.2753 -0.3273
 8002TIP3    H145421   5.031   1.121  13.450  0.8234  0.5238 -0.1417
 8002TIP3    H245422   4.955   1.228  13.526 -1.3633 -0.4167 -0.9238
 8003TIP3   OH245423   6.179   4.232   3.143 -0.3151  0.4474  0.3568
 8003TIP3    H145424   6.181   4.158   3.205 -2.2236  0.2980  0.3067
 8003TIP3    H245425   6.110   4.289   3.176 -0.3268  1.1380 -0.8052
 8004TIP3   OH245426   6.452   0.633   4.986  0.3490 -0.3571  0.3053
 8004TIP3    H145427   6.434   0.636   4.892 -1.1254  0.8628  0.5792
 8004TIP3    H245428   6.546   0.648   4.993  0.1723  1.7091 -0.9137
 8005TIP3   OH245429   5.202   2.426  11.936  0.6128 -0.0705  0.1467
 8005TIP3    H145430   5.287   2.413  11.979  0.7528  0.0972 -0.0742
 8005TIP3    H245431   5.160   2.496  11.986 -0.1582 -1.3588  1.3637
 8006TIP3   OH245432   6.283   1.351  13.532  0.0861 -0.0905  0.5846
 8006TIP3    H145433   6.329   1.424  13.572  2.2017  0.0219 -1.7878
 8006TIP3    H245434   6.327   1.338  13.448 -3.0847 -1.2050 -1.0797
 8007TIP3   OH245435   1.700   2.342  15.153  0.6163  0.1521 -0.2351
 8007TIP3    H145436   1.724   2.394  15.077  1.1456 -1.6158 -1.3415
 8007TIP3    H245437   1.781   2.297  15.178 -0.2936 -2.0350 -0.9155
 8008TIP3   OH245438   6.113   1.933  11.894  0.1743  0.0663  0.2047
 8008TIP3    H145439   6.135   2.021  11.928  0.1855 -0.9862  3.2591
 8008TIP3    H245440   6.190   1.880  11.914 -0.7050 -1.1284  0.5322
 8009TIP3   OH245441   6.262   5.021   4.876 -0.5981 -0.7762  0.4585
 8009TIP3    H145442   6.290   5.095   4.822 -0.1751 -0.2870  1.3340
 8009TIP3    H245443   6.256   5.056   4.965 -1.0545 -1.6260  0.7773
 8010TIP3   OH245444   2.201   1.937   5.517 -0.0844 -0.6131  0.5834
 8010TIP3    H145445   2.223   1.894   5.600  0.3997 -0.1140  0.7202
 8010TIP3    H245446   2.186   2.029   5.541  0.3881 -0.3969  0.0696
 8011TIP3   OH245447   0.354   2.551  15.763  0.2601 -0.3264 -0.3791
 8011TIP3    H145448   0.327   2.577  15.851  1.5557  2.4263 -0.6824
 8011TIP3    H245449   0.272   2.542  15.714 -0.3993  2.0629  0.1653
 8012TIP3   OH245450   5.208   4.644  15.058  0.0265 -0.6273  0.6905
 8012TIP3    H145451   5.270   4.711  15.088  0.7670 -0.8442 -0.3342
 8012TIP3    H245452   5.252   4.561  15.074  2.1896 -0.7791 -4.2951
 8013TIP3   OH245453   0.116   6.436   1.053  0.0169  0.1153 -0.0623
 8013TIP3    H145454   0.210   6.454   1.057  0.4275 -0.4347 -3.6855
 8013TIP3    H245455   0.075   6.522   1.045  0.2559  0.3134  0.7567
 8014TIP3   OH245456   1.778   5.178   0.488  0.0745 -0.1111  0.4214
 8014TIP3    H145457   1.698   5.214   0.450 -0.1982 -1.2238 -0.0956
 8014TIP3    H245458   1.829   5.148   0.413  1.6848  1.9333  0.6339
 8015TIP3   OH245459   4.936   1.925   6.502  0.3284  0.2774 -0.0825
 8015TIP3    H145460   4.995   1.877   6.560 -0.7758 -0.2172  0.6487
 8015TIP3    H245461   4.987   1.935   6.421  1.4905  0.0436  0.5858
 8016TIP3   OH245462   5.183   0.363  15.941 -0.1718  0.0005 -0.0027
 8016TIP3    H145463   5.272   0.377  15.973  0.3868  0.1706 -1.5665
 8016TIP3    H245464   5.142   0.309  16.008  1.1814 -0.2926  0.6250
 8017TIP3   OH245465   6.579   0.250  15.012 -0.1963 -0.3117 -0.2552
 8017TIP3    H145466   6.602   0.319  15.074 -0.1653  0.1514 -0.7693
 8017TIP3    H245467   6.659   0.199  15.002  0.2838  0.5573 -1.0980
 8018TIP3   OH245468   5.934   3.937  11.291 -0.0367 -0.4814  0.1705
 8018TIP3    H145469   5.890   3.858  11.262  0.5371 -0.3405 -1.1576
 8018TIP3    H245470   5.915   4.002  11.223  0.1841  0.2887  0.8223
 8019TIP3   OH245471   4.690   0.419   3.444  0.3698 -0.1353  0.3590
 8019TIP3    H145472   4.684   0.473   3.365  1.0356  1.2197  1.1928
 8019TIP3    H245473   4.713   0.481   3.513  0.5311 -1.4103  1.4838
 8020TIP3   OH245474   2.271   4.791   0.536  0.1366  0.1120 -0.5134
 8020TIP3    H145475   2.284   4.767   0.444 -0.7792 -0.0677 -0.6011
 8020TIP3    H245476   2.251   4.709   0.579  1.1372  0.1039 -0.0288
 8021TIP3   OH245477   5.313   2.587  14.861 -0.3396  0.2814  0.7822
 8021TIP3    H145478   5.294   2.664  14.914  0.1645  0.3904  0.8057
 8021TIP3    H245479   5.310   2.514  14.923 -2.7338  0.0001  0.4487
 8022TIP3   OH245480   3.104   0.010   3.938  0.1259  0.2829  0.4471
 8022TIP3    H145481   3.086   0.103   3.921 -1.4843 -0.1084 -0.1610
 8022TIP3    H245482   3.020  -0.025   3.969  0.2557 -1.3045 -0.8828
 8023TIP3   OH245483   1.258   2.864  13.569  0.2045  0.6620  0.5242
 8023TIP3    H145484   1.285   2.814  13.646  1.3636  0.9084  0.3050
 8023TIP3    H245485   1.237   2.796  13.504 -1.0712  0.4517  1.1289
 8024TIP3   OH245486   5.366   1.834  16.332  0.8558 -1.0745 -0.4053
 8024TIP3    H145487   5.338   1.925  16.346 -0.5107 -1.6355  0.7583
 8024TIP3    H245488   5.321   1.784  16.400  0.2282 -2.8820 -2.0369
 8025TIP3   OH245489   0.992   2.876   2.402  0.2126 -0.2419 -0.7408
 8025TIP3    H145490   0.945   2.958   2.416  0.5813 -0.1022 -0.2916
 8025TIP3    H245491   1.007   2.872   2.307 -1.6696 -0.8348 -1.0508
 8026TIP3   OH245492   1.687   2.166  12.660 -0.3738  0.0746  0.8681
 8026TIP3    H145493   1.624   2.218  12.711 -0.8933 -1.5373  1.9540
 8026TIP3    H245494   1.744   2.126  12.726 -1.7507 -2.9670  0.3970
 8027TIP3   OH245495   1.911   0.957   5.391 -0.6863  0.1147 -0.5699
 8027TIP3    H145496   1.957   0.883   5.431 -0.5531  0.3724 -0.2443
 8027TIP3    H245497   1.891   1.016   5.464  0.2260  0.9481 -0.9750
 8028TIP3   OH245498   1.590   0.651   4.934 -0.5545 -0.1638  0.1376
 8028TIP3    H145499   1.665   0.606   4.973 -0.1588 -0.1705 -0.6137
 8028TIP3    H245500   1.543   0.689   5.009 -1.3360 -2.4433  0.8916
 8029TIP3   OH245501   4.598   2.078   1.861 -0.8028  0.0525  0.1543
 8029TIP3    H145502   4.592   2.041   1.773 -0.2114  1.1093 -0.3548
 8029TIP3    H245503   4.692   2.080   1.879 -0.8311  1.1060  0.2344
 8030TIP3   OH245504   1.664   3.718   5.488 -0.5150 -0.1477  0.6417
 8030TIP3    H145505   1.689   3.681   5.403  0.2936  1.1440  0.2849
 8030TIP3    H245506   1.569   3.724   5.485 -0.4319  1.3089 -0.8379
 8031TIP3   OH245507   6.409   0.001  11.158  0.2298  0.1393  0.1386
 8031TIP3    H145508   6.383  -0.091  11.171  0.5863 -0.0949 -0.7170
 8031TIP3    H245509   6.504   0.001  11.173  0.3567  0.2067 -0.5983
 8032TIP3   OH245510   5.620   2.501  15.005 -0.5511  0.0525  0.0250
 8032TIP3    H145511   5.684   2.571  14.988 -1.4663  1.1894  1.0370
 8032TIP3    H245512   5.567   2.499  14.925 -0.0813  0.0258 -0.2923
 8033TIP3   OH245513   6.459   2.547  11.660  0.2888 -0.7021 -0.2073
 8033TIP3    H145514   6.369   2.557  11.631 -0.0610  1.8291  1.3975
 8033TIP3    H245515   6.508   2.615  11.612  0.9491 -0.8211  0.2795
 8034TIP3   OH245516   2.373   6.568  12.711  0.1905  0.0623 -0.3051
 8034TIP3    H145517   2.369   6.474  12.695 -0.7138 -0.1519  1.0634
 8034TIP3    H245518   2.466   6.587  12.720  0.2992 -1.0389  1.2067
 8035TIP3   OH245519   1.090   6.297   5.874  0.0704  0.2575  0.0368
 8035TIP3    H145520   1.174   6.306   5.920  0.5767  1.0161 -0.9930
 8035TIP3    H245521   1.104   6.225   5.813  0.4300  1.2002 -1.0364
 8036TIP3   OH245522   3.755   0.280   2.189  0.0059  0.4285  0.4237
 8036TIP3    H145523   3.782   0.268   2.280  0.7829  0.6149  0.2275
 8036TIP3    H245524   3.837   0.279   2.139 -0.5400 -1.8205 -0.5459
 8037TIP3   OH245525   5.270   0.361   3.691  0.4640 -0.4772  0.2925
 8037TIP3    H145526   5.300   0.450   3.674 -0.7912  0.0529  0.7460
 8037TIP3    H245527   5.290   0.347   3.784 -0.2704 -0.2764  0.4872
 8038TIP3   OH245528   4.267   6.348  16.915  0.2762  0.4678  0.0486
 8038TIP3    H145529   4.350   6.303  16.931  0.8149  1.0269 -1.0804
 8038TIP3    H245530   4.242   6.383  17.000  0.4225 -0.9767  0.7221
 8039TIP3   OH245531   6.277   3.039  11.992  0.2490  0.3010 -0.2958
 8039TIP3    H145532   6.223   2.962  11.976 -1.8436  1.7855 -0.7111
 8039TIP3    H245533   6.233   3.110  11.946 -1.3332  3.0444  4.6591
 8040TIP3   OH245534   3.813   0.091  12.899 -0.6183  0.0293 -0.1174
 8040TIP3    H145535   3.738   0.052  12.944  0.8300 -2.7142  0.1228
 8040TIP3    H245536   3.840   0.025  12.836  1.2742  1.1657 -0.5604
 8041TIP3   OH245537   3.672   0.197  13.806 -0.0584 -0.4823 -0.1226
 8041TIP3    H145538   3.705   0.147  13.881  0.8272  1.3691  0.7788
 8041TIP3    H245539   3.612   0.137  13.762  0.1604 -1.9680  1.4957
 8042TIP3   OH245540   2.491   5.998  16.964  0.4572  0.1464 -0.0935
 8042TIP3    H145541   2.447   5.913  16.971  1.1387 -0.1660  0.5446
 8042TIP3    H245542   2.548   6.001  17.041  0.0244  1.4246  0.1891
 8043TIP3   OH245543   3.809   3.729   5.234 -0.5077 -0.5298  0.4428
 8043TIP3    H145544   3.851   3.748   5.150  0.9118 -1.4304  0.9096
 8043TIP3    H245545   3.722   3.768   5.227  0.8966  2.8334  0.0169
 8044TIP3   OH245546   5.262   0.858  16.621 -0.1087  0.6528 -0.0935
 8044TIP3    H145547   5.349   0.874  16.657  0.6670 -2.9182  0.0057
 8044TIP3    H245548   5.274   0.862  16.526  0.1739  0.2252 -0.0794
 8045TIP3   OH245549   5.427   4.521  12.726 -0.0818  0.6894 -0.2142
 8045TIP3    H145550   5.400   4.529  12.634  0.2461  0.8204 -0.2996
 8045TIP3    H245551   5.486   4.595  12.740  0.2515  0.3948 -0.0335
 8046TIP3   OH245552   0.423   0.592  16.133  0.5612  0.4702  0.7457
 8046TIP3    H145553   0.373   0.544  16.066  0.6300 -0.2005  1.1689
 8046TIP3    H245554   0.368   0.667  16.154 -0.7713 -0.7640  1.9111
 8047TIP3   OH245555   1.432   5.413  14.286  0.5905  0.3560 -0.0220
 8047TIP3    H145556   1.419   5.361  14.207  1.0260 -1.6297  1.1421
 8047TIP3    H245557   1.401   5.356  14.357  3.5096  0.5767  1.5891
 8048TIP3   OH245558   1.068   3.603  13.939  0.0427 -0.1680  0.1872
 8048TIP3    H145559   1.001   3.671  13.936 -0.8731 -1.0761 -0.4812
 8048TIP3    H245560   1.090   3.586  13.847  0.2118 -0.8233  0.3427
 8049TIP3   OH245561   4.561   4.253   1.613  0.2043  0.2328 -0.0835
 8049TIP3    H145562   4.607   4.169   1.618  0.8450  0.5838  0.0882
 8049TIP3    H245563   4.479   4.233   1.568  0.4680 -0.4330 -0.2817
 8050TIP3   OH245564   0.853   0.290  13.734  0.4267 -0.1642  0.2288
 8050TIP3    H145565   0.810   0.235  13.670 -0.1683  0.0916  0.4020
 8050TIP3    H245566   0.784   0.317  13.794  0.8164  0.2853  0.4905
 8051TIP3   OH245567   0.502   2.034   1.844 -0.5837 -0.2507  0.7570
 8051TIP3    H145568   0.583   1.987   1.823 -1.4082 -1.9201  1.0721
 8051TIP3    H245569   0.527   2.097   1.911  0.7791  0.5102 -0.4150
 8052TIP3   OH245570   5.518   5.338  12.841 -0.0183  0.4965 -0.1574
 8052TIP3    H145571   5.580   5.354  12.769  0.7185  0.4894  0.4682
 8052TIP3    H245572   5.572   5.337  12.920 -0.5117 -1.5169  0.2182
 8053TIP3   OH245573   6.746   1.690   4.411 -0.8710  0.5036 -0.2718
 8053TIP3    H145574   6.671   1.661   4.358 -0.0171 -0.8295 -0.8189
 8053TIP3    H245575   6.775   1.771   4.369 -1.3706  0.4709 -0.6937
 8054TIP3   OH245576   0.342   3.047  16.262 -0.1773 -0.4961  0.7766
 8054TIP3    H145577   0.279   3.107  16.221 -0.0787 -0.2526  0.9789
 8054TIP3    H245578   0.371   3.093  16.341  0.3769 -0.5418  0.6018
 8055TIP3   OH245579   3.346   3.323   2.494  0.2379  0.4000  0.0512
 8055TIP3    H145580   3.264   3.349   2.537  0.7073  1.3956  0.3676
 8055TIP3    H245581   3.320   3.308   2.403 -0.4657 -0.1997  0.3399
 8056TIP3   OH245582   4.498   5.170  15.667  0.4285 -0.1735 -0.2094
 8056TIP3    H145583   4.460   5.138  15.749  1.4496 -1.7674 -0.3236
 8056TIP3    H245584   4.514   5.263  15.683 -1.2865  0.0096  0.6588
 8057TIP3   OH245585   2.430   5.017  13.471  0.1759  0.4348 -0.4459
 8057TIP3    H145586   2.367   4.960  13.427 -0.6212 -0.2779  1.4675
 8057TIP3    H245587   2.390   5.104  13.467  0.1326  0.3868 -1.1377
 8058TIP3   OH245588   4.203   4.747  15.041 -0.3527 -0.3126 -0.2386
 8058TIP3    H145589   4.183   4.837  15.068 -0.0201  0.1214 -1.3586
 8058TIP3    H245590   4.117   4.705  15.032 -0.5554  0.1397 -0.4781
 8059TIP3   OH245591   4.497   4.557   6.107 -0.2774  0.4166 -0.0809
 8059TIP3    H145592   4.459   4.473   6.131 -0.7198 -0.0713 -2.2679
 8059TIP3    H245593   4.421   4.612   6.085  0.0896  0.4950 -1.2370
 8060TIP3   OH245594   5.171   4.160   1.393 -0.1213  0.1297  0.4212
 8060TIP3    H145595   5.112   4.089   1.417  0.9247 -0.9777 -0.1891
 8060TIP3    H245596   5.113   4.234   1.376 -1.1793 -0.2813  1.9795
 8061TIP3   OH245597   2.990   4.156  13.696 -0.1349 -0.2903 -0.3382
 8061TIP3    H145598   2.965   4.107  13.617 -0.8244 -0.3970 -0.0665
 8061TIP3    H245599   2.970   4.096  13.768 -1.5421  0.5688  0.0399
 8062TIP3   OH245600   4.834   6.093   1.354 -0.1509 -0.0642  0.0896
 8062TIP3    H145601   4.915   6.069   1.308 -0.0248 -3.0183  1.6320
 8062TIP3    H245602   4.826   6.028   1.423 -3.9449  0.0614 -0.0677
 8063TIP3   OH245603   1.238   5.292   0.379 -0.1815  0.2182 -0.3001
 8063TIP3    H145604   1.238   5.301   0.474  0.4003  1.4676 -0.3949
 8063TIP3    H245605   1.154   5.330   0.351 -0.9909 -1.4156 -0.2180
 8064TIP3   OH245606   1.127   6.221  12.930 -0.0809  0.3152  0.1035
 8064TIP3    H145607   1.109   6.195  13.020 -0.2856 -0.5468 -0.1863
 8064TIP3    H245608   1.050   6.271  12.904 -0.6071 -0.5474 -0.0241
 8065TIP3   OH245609   4.735   5.928   6.297  0.2067  0.5678  0.1504
 8065TIP3    H145610   4.826   5.930   6.326  0.4022  0.5946 -0.4448
 8065TIP3    H245611   4.717   6.016   6.265  0.2267  0.3469 -0.4831
 8066TIP3   OH245612   6.254   0.976  16.600  0.7132 -0.0641  0.2797
 8066TIP3    H145613   6.330   1.027  16.628  0.1732  0.7766  0.2476
 8066TIP3    H245614   6.179   1.032  16.620  0.2025 -0.1913 -1.1847
 8067TIP3   OH245615   6.709   3.503  12.658  0.3233 -0.3234  0.1955
 8067TIP3    H145616   6.710   3.598  12.671  1.5281 -0.2684 -0.2206
 8067TIP3    H245617   6.752   3.468  12.735 -0.0377 -0.5367  0.3031
 8068TIP3   OH245618   3.767   2.089   4.139  0.0701 -0.0070 -0.3159
 8068TIP3    H145619   3.711   2.136   4.077  0.0775 -0.8605 -0.9914
 8068TIP3    H245620   3.806   2.158   4.193 -1.3036  0.6365 -0.0958
 8069TIP3   OH245621   3.611   0.310  13.186  0.4274  0.3031 -0.4198
 8069TIP3    H145622   3.522   0.309  13.222  1.4697 -0.2951  2.4272
 8069TIP3    H245623   3.637   0.402  13.190  0.4628  0.2681  0.1626
 8070TIP3   OH245624   4.435   0.839   0.434  0.2921 -0.3096 -0.3691
 8070TIP3    H145625   4.428   0.908   0.500  1.2870  0.4874 -1.0527
 8070TIP3    H245626   4.424   0.757   0.482 -0.4117  0.3064  0.5383
 8071TIP3   OH245627   5.602   0.966  15.336  0.6503 -0.2768 -0.2313
 8071TIP3    H145628   5.565   0.893  15.287  0.0520 -0.4807  0.5085
 8071TIP3    H245629   5.683   0.931  15.374 -0.7328 -1.2914  1.9647
 8072TIP3   OH245630   6.102   4.732   2.165 -0.3040 -0.4733 -0.0655
 8072TIP3    H145631   6.146   4.672   2.105  0.5977  1.2435 -1.2151
 8072TIP3    H245632   6.158   4.733   2.243 -0.4562 -1.2837  0.0613
 8073TIP3   OH245633   5.671   1.684  16.022  0.6704  0.2408 -0.4457
 8073TIP3    H145634   5.753   1.709  15.981  2.1098  2.3041  3.1911
 8073TIP3    H245635   5.625   1.768  16.034  1.3116  0.1811  3.7076
 8074TIP3   OH245636   1.693   5.657  12.541  0.1417  0.5050 -0.0478
 8074TIP3    H145637   1.698   5.732  12.482  0.5030  1.3472  1.0095
 8074TIP3    H245638   1.636   5.687  12.612 -0.8701 -0.7305 -0.2972
 8075TIP3   OH245639   3.716   1.785   2.361 -0.1357 -0.1944  0.2976
 8075TIP3    H145640   3.664   1.711   2.329 -0.0382  0.1923 -0.7784
 8075TIP3    H245641   3.721   1.771   2.456 -0.5306 -1.3002  0.1706
 8076TIP3   OH245642   6.257   5.591  11.836 -0.5027  0.1580 -0.2486
 8076TIP3    H145643   6.206   5.555  11.764 -1.2607  1.5733 -0.4665
 8076TIP3    H245644   6.294   5.672  11.800 -0.0593  0.3611  0.6394
 8077TIP3   OH245645   5.520   0.155   2.192 -1.5049  0.2293 -0.0589
 8077TIP3    H145646   5.451   0.155   2.126 -0.5832 -0.2229 -1.0482
 8077TIP3    H245647   5.589   0.211   2.154 -1.2886  0.6190  0.8771
 8078TIP3   OH245648   5.186   3.757   3.434  0.7961  0.0759 -0.4151
 8078TIP3    H145649   5.118   3.728   3.494  0.4547  1.7587  0.0529
 8078TIP3    H245650   5.244   3.681   3.425 -0.3115 -0.8894  0.3457
 8079TIP3   OH245651   3.788   5.461   0.997 -0.2959 -0.1335  0.2069
 8079TIP3    H145652   3.796   5.471   1.092  1.5191  0.4353  0.0405
 8079TIP3    H245653   3.873   5.427   0.969 -0.5157  0.4614 -1.3032
 8080TIP3   OH245654   3.679   6.701  13.330  0.9220 -0.4408  0.1828
 8080TIP3    H145655   3.677   6.608  13.354 -0.1628 -0.8841 -1.4455
 8080TIP3    H245656   3.622   6.744  13.394  0.3987 -1.1067  0.1721
 8081TIP3   OH245657   3.605   2.683  16.784  0.3210  0.8714 -0.2841
 8081TIP3    H145658   3.643   2.756  16.833  0.5430  2.6592 -2.9042
 8081TIP3    H245659   3.511   2.703  16.780  0.3802  1.0374 -0.9989
 8082TIP3   OH245660   1.193   5.015   3.185  0.2490 -0.6415 -0.5901
 8082TIP3    H145661   1.127   5.018   3.255  0.5540  4.0386 -0.1632
 8082TIP3    H245662   1.143   5.002   3.105 -0.9594  0.4178 -0.0452
 8083TIP3   OH245663   5.389   1.843  16.634 -0.5363 -0.2650  0.2283
 8083TIP3    H145664   5.425   1.923  16.673  1.8110 -1.7550  1.3399
 8083TIP3    H245665   5.302   1.869  16.603  0.2433  2.7846  0.2176
 8084TIP3   OH245666   2.824   5.792  14.546 -0.3657  0.6724 -0.1307
 8084TIP3    H145667   2.845   5.884  14.565  1.4482  0.5093 -1.1934
 8084TIP3    H245668   2.891   5.764  14.485  0.9537 -2.2678  2.4082
 8085TIP3   OH245669   6.651   3.011   0.647 -0.1906  0.5871 -0.5149
 8085TIP3    H145670   6.569   3.048   0.678  0.2277  1.1654 -0.0627
 8085TIP3    H245671   6.627   2.959   0.570 -1.0804  0.0742  0.0949
 8086TIP3   OH245672   4.060   2.573   1.102 -0.1659  0.1410 -0.0499
 8086TIP3    H145673   4.096   2.533   1.023  0.3368 -0.3594  0.4320
 8086TIP3    H245674   4.118   2.647   1.121 -0.2783  0.2525 -0.1358
 8087TIP3   OH245675   5.427   2.031   1.605 -0.4497 -0.3139  0.2861
 8087TIP3    H145676   5.466   2.000   1.524 -3.4431  2.8518 -2.6884
 8087TIP3    H245677   5.333   2.017   1.594 -1.1570  2.1283  2.2027
 8088TIP3   OH245678   0.514   5.555   2.281 -0.5432  0.0160 -0.4363
 8088TIP3    H145679   0.442   5.560   2.218 -1.3482 -0.9038  0.3702
 8088TIP3    H245680   0.566   5.480   2.252 -1.0895 -0.6066  0.1210
 8089TIP3   OH245681   4.865   3.844  11.781 -0.5469  0.1723 -0.0820
 8089TIP3    H145682   4.845   3.794  11.860 -0.8711  1.4846  0.6826
 8089TIP3    H245683   4.835   3.788  11.710 -0.3496 -0.9847  0.7145
 8090TIP3   OH245684   5.455   0.988  13.304 -0.7810  0.2698 -0.4103
 8090TIP3    H145685   5.517   1.053  13.336 -1.2123  0.2598  0.4772
 8090TIP3    H245686   5.510   0.921  13.262 -0.2092  0.4087  0.0999
 8091TIP3   OH245687   0.470   2.333   1.950 -0.2230 -0.1983 -0.0027
 8091TIP3    H145688   0.375   2.322   1.949 -0.0635 -1.9214  0.2425
 8091TIP3    H245689   0.492   2.355   1.860 -0.7842 -0.4937 -0.2194
 8092TIP3   OH245690   0.842   3.016  15.330  0.1675 -0.0471  0.4761
 8092TIP3    H145691   0.882   2.940  15.289 -0.7574 -0.0100 -0.5478
 8092TIP3    H245692   0.882   3.021  15.417  2.2296 -0.1078 -0.4027
 8093TIP3   OH245693   5.552   0.113   3.664 -0.5139  0.0010  0.3423
 8093TIP3    H145694   5.541   0.192   3.611 -0.0874  0.3595  0.7797
 8093TIP3    H245695   5.645   0.112   3.687 -0.7089 -0.0999  1.1541
 8094TIP3   OH245696   4.827   4.019  10.902  0.5166  0.1161  0.6675
 8094TIP3    H145697   4.756   4.082  10.917  0.4777  0.0429  0.7871
 8094TIP3    H245698   4.870   4.009  10.987  0.4753 -0.0756  0.6665
 8095TIP3   OH245699   1.434   1.285  11.223  0.0854 -0.3623 -0.1323
 8095TIP3    H145700   1.398   1.198  11.206  0.1482 -0.3303 -0.4331
 8095TIP3    H245701   1.472   1.312  11.139  0.8435 -0.4130  0.1858
 8096TIP3   OH245702   5.512   0.025   4.277  0.6537  0.1323  0.3262
 8096TIP3    H145703   5.426   0.065   4.294  0.0426 -0.7904 -0.4389
 8096TIP3    H245704   5.528  -0.030   4.353  0.0870 -0.4456  0.0433
 8097TIP3   OH245705   1.467   1.883   5.512  0.1475  0.2729 -0.0806
 8097TIP3    H145706   1.538   1.820   5.524 -0.9184 -0.6868  1.4854
 8097TIP3    H245707   1.507   1.968   5.524  1.2012 -0.2047 -0.1420
 8098TIP3   OH245708   6.736   2.751   3.460  0.1495  0.7611 -0.5126
 8098TIP3    H145709   6.816   2.719   3.419 -0.1243 -0.1250 -0.3700
 8098TIP3    H245710   6.684   2.786   3.388  1.0424  2.2174 -0.5010
 8099TIP3   OH245711   3.054   0.371   3.191  0.0572  0.2364  0.4406
 8099TIP3    H145712   3.035   0.278   3.175  1.0608  0.0203  0.4560
 8099TIP3    H245713   3.146   0.373   3.215 -0.3498  1.0542  2.0659
 8100TIP3   OH245714   0.169   6.591  17.173  0.0059 -0.3263  0.2832
 8100TIP3    H145715   0.115   6.545  17.236 -1.6850  1.1906  0.0202
 8100TIP3    H245716   0.156   6.684  17.193  1.5098  0.1182 -0.6280
 8101TIP3   OH245717   0.106   0.559  12.613 -0.3949  0.0048 -0.2761
 8101TIP3    H145718   0.147   0.508  12.543  1.3008  1.6785 -0.6126
 8101TIP3    H245719   0.169   0.554  12.685 -0.2278  1.4807 -0.2944
 8102TIP3   OH245720   1.780   5.215  16.605  0.2088 -0.3433 -0.7416
 8102TIP3    H145721   1.703   5.268  16.623  1.1099  0.5740  0.5487
 8102TIP3    H245722   1.817   5.253  16.525 -0.1759 -0.2279 -0.8678
 8103TIP3   OH245723   3.402   2.573   4.209  0.2691 -0.0250 -0.1476
 8103TIP3    H145724   3.374   2.660   4.182  1.2591  1.0512  2.0750
 8103TIP3    H245725   3.480   2.588   4.261  0.9362 -2.3449 -0.3648
 8104TIP3   OH245726   5.707   5.758   1.149 -0.3537  0.5547 -0.0909
 8104TIP3    H145727   5.739   5.765   1.239 -1.9894 -1.2661  0.7104
 8104TIP3    H245728   5.715   5.847   1.113  2.6194  0.8123  0.9845
 8105TIP3   OH245729   3.474   0.517  16.538  0.0694  0.9762 -0.2818
 8105TIP3    H145730   3.432   0.593  16.499  0.9212  1.2686 -0.6608
 8105TIP3    H245731   3.410   0.483  16.600 -0.8502  1.2014 -1.0782
 8106TIP3   OH245732   4.174   0.362  11.249 -0.2019  0.4787 -0.3891
 8106TIP3    H145733   4.107   0.309  11.207 -0.1664 -0.9364  1.2225
 8106TIP3    H245734   4.225   0.399  11.176 -1.2406 -0.3703 -1.5895
 8107TIP3   OH245735   2.102   0.002   4.415  0.1146  0.3547 -0.0249
 8107TIP3    H145736   2.100   0.080   4.359 -1.1485  0.1286 -0.3329
 8107TIP3    H245737   2.186  -0.039   4.395  1.3946  2.2509  1.0613
 8108TIP3   OH245738   1.861   0.991  15.459  0.1512 -0.0714 -0.4290
 8108TIP3    H145739   1.927   1.056  15.436 -1.4997  1.8022 -0.1993
 8108TIP3    H245740   1.803   0.989  15.383  0.2384 -1.4069 -0.4823
 8109TIP3   OH245741   4.938   1.249   6.024 -0.1785  0.2268 -0.3689
 8109TIP3    H145742   5.014   1.304   6.039  0.0308  0.6882 -2.6563
 8109TIP3    H245743   4.873   1.278   6.088  1.0569  0.8512  0.6216
 8110TIP3   OH245744   5.998   6.444  16.143  0.3029  0.2792 -0.3643
 8110TIP3    H145745   6.048   6.437  16.062  0.3260  1.1335 -0.4362
 8110TIP3    H245746   5.939   6.368  16.142  0.7848 -0.0934 -0.8356
 8111TIP3   OH245747   2.564   3.827  14.301 -0.2991  0.3842 -0.6828
 8111TIP3    H145748   2.635   3.764  14.309 -1.5454 -1.0252 -0.2517
 8111TIP3    H245749   2.541   3.825  14.208 -0.8873 -0.4689 -0.5342
 8112TIP3   OH245750   4.419   1.962  13.691 -0.6022  0.4664  0.6532
 8112TIP3    H145751   4.476   1.947  13.615 -0.4042  1.6331  0.5500
 8112TIP3    H245752   4.334   1.986  13.653 -0.8533 -0.1609  0.8076
 8113TIP3   OH245753   6.238   5.601   4.934  0.2360 -0.5116  0.4408
 8113TIP3    H145754   6.152   5.590   4.975  0.1758 -0.6809  0.2674
 8113TIP3    H245755   6.252   5.520   4.885 -0.4242  0.3375 -1.2385
 8114TIP3   OH245756   4.000   5.673   5.624  0.2409  0.0285  0.5611
 8114TIP3    H145757   3.948   5.752   5.610 -1.9435 -1.7354 -2.1823
 8114TIP3    H245758   3.939   5.610   5.664  1.7944 -0.5307  2.2360
 8115TIP3   OH245759   2.248   2.293   5.242 -0.0208  0.0930  0.0175
 8115TIP3    H145760   2.188   2.357   5.203  0.2724  0.6416  0.4421
 8115TIP3    H245761   2.226   2.210   5.200 -1.2480  0.2353  0.3446
 8116TIP3   OH245762   2.031   2.677   2.008  0.4237  0.2690 -0.1858
 8116TIP3    H145763   2.077   2.752   1.970  0.2885  0.3322 -0.2223
 8116TIP3    H245764   2.101   2.616   2.031  0.5322  0.3917 -0.1870
 8117TIP3   OH245765   3.643   3.825   4.801 -0.3312 -0.3372 -0.5129
 8117TIP3    H145766   3.699   3.750   4.820  0.8235  0.5232 -0.4029
 8117TIP3    H245767   3.597   3.842   4.883 -0.3770 -0.7358 -0.4520
 8118TIP3   OH245768   4.694   4.313   2.543  0.1055  0.1904  0.2246
 8118TIP3    H145769   4.616   4.304   2.488  0.5196  0.0777 -0.3509
 8118TIP3    H245770   4.692   4.404   2.572 -0.5827  0.0214  0.7413
 8119TIP3   OH245771   2.308   6.169   1.587  0.0434  0.2717 -0.2107
 8119TIP3    H145772   2.372   6.097   1.583 -0.7856 -0.4085 -2.1099
 8119TIP3    H245773   2.229   6.128   1.623 -0.2238  0.3738 -0.6729
 8120TIP3   OH245774   4.093   2.177   2.817 -0.0581  0.6507  0.4603
 8120TIP3    H145775   4.036   2.119   2.766  1.5276  0.7071 -1.4999
 8120TIP3    H245776   4.128   2.121   2.886  1.0483 -0.6446 -1.0874
 8121TIP3   OH245777   6.260   6.297   5.463 -0.3432 -0.0857  0.0327
 8121TIP3    H145778   6.338   6.282   5.517 -0.3992 -1.9639 -0.3538
 8121TIP3    H245779   6.285   6.270   5.375 -0.8029  1.3052 -0.5625
 8122TIP3   OH245780   2.334   0.192   0.995  0.2275 -0.2755  0.0080
 8122TIP3    H145781   2.249   0.220   0.960 -0.2701  0.5967  1.8023
 8122TIP3    H245782   2.397   0.248   0.949 -0.4432  1.1707  0.7694
 8123TIP3   OH245783   3.717   1.397   4.123  0.5378  0.2653 -0.1489
 8123TIP3    H145784   3.746   1.436   4.206  0.0007  0.8367 -0.2240
 8123TIP3    H245785   3.648   1.336   4.148  0.1387  0.6912 -0.2077
 8124TIP3   OH245786   1.202   5.666  14.480 -0.0847 -0.1787 -0.2647
 8124TIP3    H145787   1.156   5.746  14.504 -2.5552 -0.9350 -2.1067
 8124TIP3    H245788   1.194   5.661  14.384 -0.1254 -2.6780 -0.2034
 8125TIP3   OH245789   2.413   4.637   5.953  0.6937  0.4065 -0.3521
 8125TIP3    H145790   2.443   4.567   5.895  2.9537  1.7541 -0.9420
 8125TIP3    H245791   2.487   4.653   6.011 -0.0192  1.8772  0.1896
 8126TIP3   OH245792   3.028   4.287  12.687  0.2937  0.0271  0.0644
 8126TIP3    H145793   3.112   4.327  12.666  0.5886  0.0773  1.2624
 8126TIP3    H245794   2.979   4.355  12.731  0.1884 -0.4435  0.6825
 8127TIP3   OH245795   5.960   3.672   5.853 -0.3888  0.4503  0.1244
 8127TIP3    H145796   5.911   3.622   5.918 -0.8878  1.5157  0.6008
 8127TIP3    H245797   6.052   3.648   5.868 -0.7265 -1.6519 -0.8520
 8128TIP3   OH245798   3.389   1.628  12.700 -0.5925  0.0576  0.2359
 8128TIP3    H145799   3.312   1.641  12.645  0.6574  0.9400 -1.3830
 8128TIP3    H245800   3.394   1.708  12.753 -2.1579 -1.0524  2.2335
 8129TIP3   OH245801   6.168   2.006   1.706 -0.3543 -0.2689  0.1485
 8129TIP3    H145802   6.254   2.032   1.739 -0.2984 -0.0983 -0.1205
 8129TIP3    H245803   6.117   1.985   1.784 -0.9417  2.2551  0.5425
 8130TIP3   OH245804   2.958   3.379   0.931  0.2426 -0.6317  0.5844
 8130TIP3    H145805   2.864   3.363   0.918 -0.2123  0.8766  1.7477
 8130TIP3    H245806   2.989   3.412   0.846 -0.7804  0.9256  0.7771
 8131TIP3   OH245807   3.847   1.703  14.208  0.0798  0.7425 -0.1233
 8131TIP3    H145808   3.763   1.668  14.238  0.7921 -1.7908 -0.8310
 8131TIP3    H245809   3.905   1.697  14.285 -0.4351  2.9976  0.5273
 8132TIP3   OH245810   4.822   4.805  13.350  0.3411  0.4674 -0.0195
 8132TIP3    H145811   4.759   4.844  13.411 -0.7458  0.6398 -1.2317
 8132TIP3    H245812   4.779   4.726  13.318  1.0526  0.1897 -0.3225
 8133TIP3   OH245813   0.709   2.292   4.770  0.3346 -0.0081  0.0029
 8133TIP3    H145814   0.666   2.227   4.825  1.5714 -1.4869 -0.7147
 8133TIP3    H245815   0.801   2.266   4.769  0.7017  1.2211 -1.0490
 8134TIP3   OH245816   0.690   6.559   5.424 -0.3264  0.4059  0.1651
 8134TIP3    H145817   0.657   6.568   5.513  0.7224 -0.0110  0.6196
 8134TIP3    H245818   0.664   6.471   5.397 -1.7975  1.0026 -0.4643
 8135TIP3   OH245819   0.469   6.500  11.164 -0.5262  0.1607 -0.1706
 8135TIP3    H145820   0.529   6.425  11.160 -0.6222  0.1226 -1.2160
 8135TIP3    H245821   0.514   6.570  11.118 -0.8150  0.4831  0.0259
 8136TIP3   OH245822   4.575   0.819  10.939  0.3685  0.3946  0.9820
 8136TIP3    H145823   4.492   0.788  10.975  0.2185 -1.3045 -0.6404
 8136TIP3    H245824   4.639   0.754  10.965  1.3089  1.8153  2.4167
 8137TIP3   OH245825   6.366   5.961  15.251 -0.4470  0.3940 -0.0957
 8137TIP3    H145826   6.274   5.959  15.275 -0.8767 -0.5232 -1.6496
 8137TIP3    H245827   6.386   6.053  15.238 -0.9338  0.6579  0.9271
 8138TIP3   OH245828   0.913   5.149   1.055  0.4190  0.0798  0.2492
 8138TIP3    H145829   0.833   5.199   1.072 -0.2778 -1.7986  3.3306
 8138TIP3    H245830   0.980   5.195   1.107  0.7848  0.2605 -0.3786
 8139TIP3   OH245831   4.483   0.627  12.920  0.0454 -0.0892  0.2624
 8139TIP3    H145832   4.555   0.570  12.892  0.2745  0.6713 -0.7937
 8139TIP3    H245833   4.409   0.599  12.867 -0.4035 -0.7501  1.2209
 8140TIP3   OH245834   3.972   5.775  16.152  0.4584 -0.0698 -0.0500
 8140TIP3    H145835   3.966   5.756  16.246  2.7645 -1.3650 -0.0959
 8140TIP3    H245836   3.969   5.689  16.110  0.3553  0.4297 -1.1065
 8141TIP3   OH245837   6.006   2.565   2.403  0.5551  0.1712  0.3066
 8141TIP3    H145838   6.008   2.604   2.316 -0.2550  0.6629  0.4984
 8141TIP3    H245839   6.053   2.482   2.393 -3.0896 -1.9264 -1.6837
 8142TIP3   OH245840   3.648   4.221   4.577  0.3463 -0.1220 -0.0952
 8142TIP3    H145841   3.562   4.253   4.550  0.4636 -0.6949 -1.1825
 8142TIP3    H245842   3.645   4.223   4.673 -0.9443 -0.3143 -0.1161
 8143TIP3   OH245843   3.345   4.845   0.885 -0.4911  0.2799 -0.3797
 8143TIP3    H145844   3.337   4.859   0.979  0.4206 -2.8045  0.2739
 8143TIP3    H245845   3.256   4.857   0.852 -1.8196 -2.7322  1.6487
 8144TIP3   OH245846   6.762   2.704  10.811 -0.2032 -0.5985 -0.2449
 8144TIP3    H145847   6.717   2.650  10.747  1.5604  0.7417 -2.8262
 8144TIP3    H245848   6.696   2.767  10.841 -1.3875 -2.0554  0.2867
 8145TIP3   OH245849   6.428   5.897   1.364  0.0893  0.0453  0.0970
 8145TIP3    H145850   6.512   5.857   1.388  0.0678 -0.7837 -1.1324
 8145TIP3    H245851   6.383   5.829   1.313 -0.1362  1.4616 -1.6855
 8146TIP3   OH245852   0.553   4.057   3.649 -0.2744 -0.1904  0.4694
 8146TIP3    H145853   0.517   3.981   3.695 -0.6262 -0.1722  0.2271
 8146TIP3    H245854   0.480   4.120   3.648  0.0889  0.2494  0.8908
 8147TIP3   OH245855   1.076   1.469  13.593  0.4839  0.8808  0.2099
 8147TIP3    H145856   0.987   1.442  13.616  0.2178  1.0916 -0.5323
 8147TIP3    H245857   1.131   1.395  13.619  0.0317  0.5297  0.1889
 8148TIP3   OH245858   3.240   2.711   1.405  0.0231 -0.7248 -0.0763
 8148TIP3    H145859   3.317   2.661   1.434  1.0861  0.5007 -0.7069
 8148TIP3    H245860   3.226   2.683   1.315  0.8236  0.3057 -0.5420
 8149TIP3   OH245861   5.229   3.503   1.879  0.6718 -0.0180 -0.1799
 8149TIP3    H145862   5.183   3.447   1.941  1.9260 -0.6376  0.2215
 8149TIP3    H245863   5.265   3.443   1.814  0.2888  0.5318 -0.9207
 8150TIP3   OH245864   3.834   1.349   0.737  0.2285 -0.2754  0.7298
 8150TIP3    H145865   3.744   1.373   0.714  1.6377  3.5433 -1.8415
 8150TIP3    H245866   3.849   1.264   0.696 -1.9886 -0.6853  0.6835
 8151TIP3   OH245867   0.273   2.410  16.733 -0.4647  0.8696 -0.5983
 8151TIP3    H145868   0.207   2.381  16.671 -1.0133  0.5820  0.1097
 8151TIP3    H245869   0.277   2.505  16.722 -0.3670  0.7975 -1.2463
 8152TIP3   OH245870   2.393   2.952  13.557  0.7392 -0.2075  0.1976
 8152TIP3    H145871   2.405   2.863  13.524  1.0805  0.2431 -0.9572
 8152TIP3    H245872   2.418   2.947  13.649  0.4750 -1.3655  0.2192
 8153TIP3   OH245873   2.037   3.345   4.708  0.3422 -0.0260 -0.2980
 8153TIP3    H145874   2.020   3.333   4.614 -1.1930  0.3906 -0.1059
 8153TIP3    H245875   1.976   3.413   4.734  1.8507  0.9997  0.7035
 8154TIP3   OH245876   0.380   5.924  15.162 -0.3188 -0.2601 -0.0604
 8154TIP3    H145877   0.354   5.917  15.254 -1.4240 -0.4285 -0.3680
 8154TIP3    H245878   0.448   5.992  15.162  2.2365 -2.6342  1.3371
 8155TIP3   OH245879   0.283   1.361  13.023  0.1309  0.1584  0.0728
 8155TIP3    H145880   0.355   1.367  13.086 -0.5667 -0.0092  0.9041
 8155TIP3    H245881   0.237   1.444  13.032  0.8449  0.7317 -1.2634
 8156TIP3   OH245882   0.379   2.340   4.527 -0.0050  0.1185  0.4457
 8156TIP3    H145883   0.387   2.256   4.573  1.2357  0.1612  0.3480
 8156TIP3    H245884   0.355   2.403   4.596  2.1264  0.2405  1.1480
 8157TIP3   OH245885   1.338   6.279   3.687  0.3749 -0.1908 -0.0875
 8157TIP3    H145886   1.369   6.349   3.745  0.8326  0.9643 -1.6726
 8157TIP3    H245887   1.418   6.237   3.656  0.1034 -1.3758  0.7750
 8158TIP3   OH245888   0.805   4.975  17.214 -0.2866  0.2423 -0.5005
 8158TIP3    H145889   0.790   5.003  17.305 -0.5815 -2.7713  0.4858
 8158TIP3    H245890   0.893   5.005  17.194 -0.2153  0.9629  0.7543
 8159TIP3   OH245891   6.348   2.539   1.609  0.0853 -0.6312 -0.4703
 8159TIP3    H145892   6.414   2.589   1.561  0.1850 -0.2095  0.0960
 8159TIP3    H245893   6.305   2.603   1.665 -0.6235 -0.9551 -0.6299
 8160TIP3   OH245894   6.035   0.544  11.707 -0.3561  0.0632  0.4584
 8160TIP3    H145895   6.027   0.495  11.625  1.0150  1.6944 -0.7020
 8160TIP3    H245896   6.073   0.481  11.769 -0.9634 -1.0473 -0.2515
 8161TIP3   OH245897   0.748   2.232  14.866 -0.1215 -0.2997  0.2309
 8161TIP3    H145898   0.828   2.185  14.842 -0.5992 -0.0770 -2.0492
 8161TIP3    H245899   0.677   2.173  14.842 -0.7356  1.3944 -2.6716
 8162TIP3   OH245900   6.037   4.583   2.444  0.3567  0.3147  0.2591
 8162TIP3    H145901   6.010   4.642   2.514  1.1477  2.5592 -1.1964
 8162TIP3    H245902   5.958   4.533   2.422 -0.6460  1.5927  0.8422
 8163TIP3   OH245903   4.163   2.742  10.781  0.3645  0.2701  0.2023
 8163TIP3    H145904   4.149   2.834  10.758 -0.0443  0.1377 -0.0945
 8163TIP3    H245905   4.188   2.744  10.873  0.3104  0.6775  0.2106
 8164TIP3   OH245906   1.326   3.076  15.900 -1.0662 -0.8820  0.3034
 8164TIP3    H145907   1.346   3.161  15.861 -0.4394 -1.2384 -0.1752
 8164TIP3    H245908   1.356   3.083  15.990 -1.5369 -0.4082  0.4256
 8165TIP3   OH245909   2.535   0.059   2.828 -0.0934 -0.2677 -0.0358
 8165TIP3    H145910   2.452   0.053   2.876  0.6730  1.4227  1.6490
 8165TIP3    H245911   2.511   0.092   2.742 -1.2094 -0.1709  0.3020
 8166TIP3   OH245912   2.954   2.530   2.404  0.0346 -0.0450  0.2626
 8166TIP3    H145913   3.019   2.567   2.463  0.2121 -1.0656  0.7427
 8166TIP3    H245914   2.872   2.573   2.427  0.7855  2.5891 -1.5516
 8167TIP3   OH245915   0.479   0.305  14.558  0.3706  0.0035 -0.2669
 8167TIP3    H145916   0.515   0.254  14.486 -1.2320 -0.3396 -0.8711
 8167TIP3    H245917   0.509   0.260  14.637  2.2204  0.4334 -0.6806
 8168TIP3   OH245918   5.895   3.860   5.067 -0.6477  0.4751 -0.3351
 8168TIP3    H145919   5.919   3.821   4.983 -2.1413 -0.6600 -0.2609
 8168TIP3    H245920   5.834   3.930   5.044  0.0367  1.1005 -0.2797
 8169TIP3   OH245921   1.676   6.055   6.224  0.4818 -0.0125 -0.0166
 8169TIP3    H145922   1.706   6.036   6.136  0.1292  0.8960 -0.3442
 8169TIP3    H245923   1.594   6.102   6.212  0.5853  0.3872  0.7859
 8170TIP3   OH245924   4.754   6.340   2.689  0.3454 -0.0013 -0.5551
 8170TIP3    H145925   4.775   6.358   2.780  0.9355 -0.9868 -0.4808
 8170TIP3    H245926   4.837   6.349   2.642 -0.0910  1.2299 -1.1336
 8171TIP3   OH245927   5.882   0.848  12.339 -0.5058  0.1793  0.0053
 8171TIP3    H145928   5.823   0.851  12.263 -1.3414  1.0503  0.6584
 8171TIP3    H245929   5.969   0.841  12.301 -0.9637 -0.2572 -1.0175
 8172TIP3   OH245930   2.575   4.995  12.770 -0.1343 -0.0176  0.3276
 8172TIP3    H145931   2.520   5.061  12.812 -0.9238 -2.5120  3.5078
 8172TIP3    H245932   2.513   4.934  12.730  0.5246 -0.1150 -0.5781
 8173TIP3   OH245933   3.397   6.074   1.640 -0.3244 -0.0323 -0.1915
 8173TIP3    H145934   3.457   6.037   1.706  0.5084  2.6765  0.6931
 8173TIP3    H245935   3.403   6.013   1.566  2.4525 -0.6427  0.4123
 8174TIP3   OH245936   6.269   6.047  14.499 -0.3949 -0.1495  0.0903
 8174TIP3    H145937   6.255   5.996  14.580  0.9648  0.7042  0.9022
 8174TIP3    H245938   6.301   5.983  14.436 -1.8141 -0.9022  0.0913
 8175TIP3   OH245939   1.389   5.413   1.915 -0.5462  0.1046  0.2068
 8175TIP3    H145940   1.382   5.456   1.830  0.2612 -0.1549  0.0024
 8175TIP3    H245941   1.483   5.410   1.933 -0.4190 -2.7931 -0.4634
 8176TIP3   OH245942   1.584   0.618  12.040  0.2019 -0.6211 -0.6366
 8176TIP3    H145943   1.573   0.698  12.090 -2.0680 -0.3879 -1.3988
 8176TIP3    H245944   1.672   0.624  12.003  1.3351 -0.0993  1.9941
 8177TIP3   OH245945   0.234   2.855   0.696 -0.0887  0.6905 -0.1646
 8177TIP3    H145946   0.147   2.837   0.731  0.0918  0.5785  0.2353
 8177TIP3    H245947   0.221   2.930   0.638 -0.7652 -0.4171 -1.4855
 8178TIP3   OH245948   0.636   1.196  14.409 -0.2725  0.3590 -0.8988
 8178TIP3    H145949   0.581   1.157  14.341 -0.4516  2.2093 -1.8818
 8178TIP3    H245950   0.726   1.177  14.380 -0.3044 -2.1086  0.3761
 8179TIP3   OH245951   6.019   5.152  16.535  0.2270  0.5039  0.0497
 8179TIP3    H145952   5.951   5.159  16.469  0.0945  0.5435  0.1881
 8179TIP3    H245953   6.086   5.215  16.508 -1.2126  2.8434  1.5856
 8180TIP3   OH245954   1.805   6.311  12.425 -0.0794  0.1946 -0.5462
 8180TIP3    H145955   1.859   6.304  12.504  0.3670 -2.0880 -0.9815
 8180TIP3    H245956   1.818   6.401  12.395 -0.7105  1.3222  2.2446
 8181TIP3   OH245957   6.395   3.985  17.063  0.1761 -0.8777 -0.0356
 8181TIP3    H145958   6.326   4.022  17.118  0.0441 -1.5836  0.2867
 8181TIP3    H245959   6.379   3.890  17.065  1.0707 -1.0389 -0.0696
 8182TIP3   OH245960   2.160   3.986   5.005  0.0344 -0.4088  0.7131
 8182TIP3    H145961   2.119   3.912   5.049  0.6051 -1.7629 -0.8958
 8182TIP3    H245962   2.112   3.995   4.923 -0.2682  1.2849  1.0404
 8183TIP3   OH245963   2.545   3.081   3.178  0.4534  0.5933 -0.0550
 8183TIP3    H145964   2.502   3.038   3.104  2.3185  1.5283 -1.7932
 8183TIP3    H245965   2.627   3.033   3.190  0.2870  0.6057  1.2888
 8184TIP3   OH245966   5.498   0.247   4.608  0.3198 -0.0592  0.2761
 8184TIP3    H145967   5.437   0.317   4.630 -0.8262 -0.8484 -0.2701
 8184TIP3    H245968   5.568   0.290   4.559 -1.3538  0.4683 -1.8061
 8185TIP3   OH245969   4.099   2.092   3.531  0.2417 -0.1420 -0.0239
 8185TIP3    H145970   4.018   2.135   3.559  0.7011  0.1206  0.9678
 8185TIP3    H245971   4.140   2.064   3.613  0.8802 -0.7758 -0.5457
 8186TIP3   OH245972   2.405   5.231   4.582  0.3695 -0.5068  0.1180
 8186TIP3    H145973   2.326   5.215   4.531  0.0556  2.1080 -0.3518
 8186TIP3    H245974   2.374   5.261   4.667  0.6756  2.6465 -0.7474
 8187TIP3   OH245975   1.653   6.212  16.695 -0.8043 -0.0902  0.1429
 8187TIP3    H145976   1.684   6.298  16.668 -2.0609  0.5784  0.7436
 8187TIP3    H245977   1.732   6.166  16.723  0.0610  0.3748 -1.4239
 8188TIP3   OH245978   3.613   4.894  12.172  0.6096  0.6737 -0.5564
 8188TIP3    H145979   3.560   4.921  12.246 -3.0213  0.8971 -2.9615
 8188TIP3    H245980   3.672   4.968  12.156  1.8580  0.3990  2.2439
 8189TIP3   OH245981   0.851   1.314   5.074  0.0718  0.0226 -0.5688
 8189TIP3    H145982   0.832   1.262   4.996  1.9262  1.8728 -2.3804
 8189TIP3    H245983   0.791   1.280   5.140 -0.5998 -2.5994 -2.3529
 8190TIP3   OH245984   1.350   4.069  13.891  0.6164 -0.0296  0.2604
 8190TIP3    H145985   1.399   4.105  13.965  0.8640 -0.5937  0.3842
 8190TIP3    H245986   1.283   4.134  13.872  0.6026  0.1640  0.9309
 8191TIP3   OH245987   4.094   2.179  16.900  0.6872 -0.7196 -0.0696
 8191TIP3    H145988   4.046   2.221  16.971  0.2253 -1.8033  0.2763
 8191TIP3    H245989   4.152   2.248  16.866  0.7260 -0.1106  1.1696
 8192TIP3   OH245990   3.236   0.826   2.676  0.2550  0.2474  0.5837
 8192TIP3    H145991   3.255   0.746   2.724  2.7721 -0.1376 -0.8934
 8192TIP3    H245992   3.155   0.807   2.628  0.8261 -1.4341  0.2311
 8193TIP3   OH245993   2.082   3.031   2.247  0.0223  0.1167 -0.7363
 8193TIP3    H145994   2.044   2.948   2.277  0.8901  0.4536  1.5324
 8193TIP3    H245995   2.025   3.059   2.175 -1.3774 -1.5351 -0.3448
 8194TIP3   OH245996   2.237   6.683  12.966 -0.3727  0.1178  0.0207
 8194TIP3    H145997   2.292   6.645  13.034 -1.3947 -0.7326  0.4086
 8194TIP3    H245998   2.251   6.627  12.890  0.8884  1.1609 -0.5413
 8195TIP3   OH245999   0.589   1.145  15.136  0.1431  0.0333  0.4259
 8195TIP3    H146000   0.654   1.149  15.066 -0.7483  0.6393 -0.3883
 8195TIP3    H246001   0.638   1.115  15.212  0.9917 -1.3389 -0.6149
 8196TIP3   OH246002   4.792   6.222   1.612 -0.5302  0.1438  0.4715
 8196TIP3    H146003   4.823   6.280   1.682 -0.3883 -0.5028  0.9516
 8196TIP3    H246004   4.841   6.141   1.625  0.5493  0.4816 -1.2484
 8197TIP3   OH246005   0.128   4.915   5.102  0.1616  0.2806  1.2743
 8197TIP3    H146006   0.087   4.829   5.098  0.2213  0.3101 -0.8381
 8197TIP3    H246007   0.096   4.952   5.185 -1.3854 -1.0114  1.3111
 8198TIP3   OH246008   4.874   2.499  14.331 -0.1342  0.1311  0.0397
 8198TIP3    H146009   4.944   2.453  14.285  1.5789  0.8887  1.7093
 8198TIP3    H246010   4.863   2.581  14.283 -0.7164 -0.4806 -0.8946
 8199TIP3   OH246011   6.665   1.849  11.552  0.3284 -0.1543 -0.2822
 8199TIP3    H146012   6.606   1.810  11.488  1.3628 -1.3002 -0.5776
 8199TIP3    H246013   6.640   1.810  11.635 -1.8159  2.2253  0.3207
 8200TIP3   OH246014   3.359   4.911  11.993  0.1425  0.4248 -0.4156
 8200TIP3    H146015   3.435   4.855  11.976 -0.2764 -0.4717  0.5849
 8200TIP3    H246016   3.296   4.887  11.925 -0.4332 -1.1019  0.6071
 8201TIP3   OH246017   4.953   5.721   3.733  0.3863  0.1221  0.2830
 8201TIP3    H146018   4.934   5.812   3.753 -1.6881 -0.2432  0.1796
 8201TIP3    H246019   5.019   5.724   3.664 -2.7582  1.7097 -2.9201
 8202TIP3   OH246020   1.877   6.427   2.617 -0.5694 -0.2762 -0.1809
 8202TIP3    H146021   1.869   6.476   2.699 -4.4684  1.2443 -1.2544
 8202TIP3    H246022   1.917   6.489   2.556  1.8510 -1.2389  0.3189
 8203TIP3   OH246023   4.416   5.240   4.418 -0.0935  0.0210 -0.2593
 8203TIP3    H146024   4.450   5.157   4.451  2.2663  0.6131 -1.0247
 8203TIP3    H246025   4.450   5.306   4.479  0.7671  0.6971 -1.4214
 8204TIP3   OH246026   5.511   1.348  16.794  0.0528 -0.2764 -0.6548
 8204TIP3    H146027   5.495   1.443  16.796 -1.2820 -0.4557  2.0137
 8204TIP3    H246028   5.600   1.339  16.761  1.0672  2.0930  1.1491
 8205TIP3   OH246029   5.361   6.475  14.571 -0.7318 -0.0151 -0.3878
 8205TIP3    H146030   5.346   6.402  14.630  0.0670  0.5830  0.5962
 8205TIP3    H246031   5.402   6.542  14.626 -0.2678  0.6843 -1.5490
 8206TIP3   OH246032   4.535   0.894  12.911  0.6349  0.2479  0.0369
 8206TIP3    H146033   4.495   0.809  12.929 -0.8858  0.6742 -1.1372
 8206TIP3    H246034   4.596   0.907  12.984  2.3469 -2.6540 -0.6779
 8207TIP3   OH246035   0.167   3.711  11.963 -0.2227 -0.1106  0.3058
 8207TIP3    H146036   0.073   3.697  11.975  0.0634 -1.9440  0.7237
 8207TIP3    H246037   0.183   3.798  12.000 -1.5868 -0.1792  1.1501
 8208TIP3   OH246038   1.040   2.739   3.721 -0.1356 -0.4218 -0.0968
 8208TIP3    H146039   1.096   2.705   3.791  0.8873 -2.2767 -1.7011
 8208TIP3    H246040   0.951   2.733   3.755  0.4815  1.2915  2.0147
 8209TIP3   OH246041   2.250   2.216  11.904  0.5979 -0.0002 -0.1240
 8209TIP3    H146042   2.299   2.134  11.900 -0.2210 -0.4810 -0.5297
 8209TIP3    H246043   2.317   2.284  11.904  1.2504 -0.5744 -2.4697
 8210TIP3   OH246044   6.024   1.673   4.544  0.0361 -0.4659  0.1259
 8210TIP3    H146045   5.939   1.693   4.584 -0.6200 -0.9057 -1.0128
 8210TIP3    H246046   6.087   1.720   4.599 -1.0727  1.1657  0.1014
 8211TIP3   OH246047   4.612   1.788   0.784  0.2224  0.1279 -0.4539
 8211TIP3    H146048   4.528   1.807   0.824  0.3600 -1.4587  0.6840
 8211TIP3    H246049   4.592   1.730   0.710  0.2003  0.9712 -1.1226
 8212TIP3   OH246050   0.277   3.076   4.413 -0.4534  0.3837 -0.1265
 8212TIP3    H146051   0.344   3.068   4.481  0.3333  0.9179 -0.8078
 8212TIP3    H246052   0.238   3.163   4.427 -0.5072  0.3647 -0.1575
 8213TIP3   OH246053   3.309   1.263  12.794  0.2038  0.1903  0.9801
 8213TIP3    H146054   3.350   1.270  12.707 -0.0605 -0.4739  0.7948
 8213TIP3    H246055   3.376   1.223  12.849  0.3349  0.5168  1.0630
 8214TIP3   OH246056   1.437   5.209  13.298  0.1293  0.2420 -0.2654
 8214TIP3    H146057   1.517   5.226  13.348 -0.2111 -2.0393  1.1554
 8214TIP3    H246058   1.370   5.264  13.339  0.0288 -1.0353  1.3806
 8215TIP3   OH246059   6.038   1.411   2.238  0.2004  0.2913 -0.3376
 8215TIP3    H146060   6.013   1.441   2.325 -1.1711 -1.5760 -0.0512
 8215TIP3    H246061   5.962   1.430   2.183 -0.2058 -1.4349 -0.4126
 8216TIP3   OH246062   5.268   4.032  10.824 -0.1447  0.5320 -0.2888
 8216TIP3    H146063   5.335   4.037  10.756  1.4822  0.6793  1.2594
 8216TIP3    H246064   5.196   3.984  10.783  1.1082 -0.1094 -1.8511
 8217TIP3   OH246065   1.521   1.302  14.643 -0.1028 -0.3489 -0.6778
 8217TIP3    H146066   1.452   1.238  14.627 -1.3358  0.9739 -0.8546
 8217TIP3    H246067   1.535   1.344  14.558 -1.1176  1.3340 -0.0522
 8218TIP3   OH246068   1.233   2.321   5.425  0.1412  0.0698  0.3796
 8218TIP3    H146069   1.150   2.369   5.426 -0.1771 -0.4659  0.1713
 8218TIP3    H246070   1.227   2.265   5.348  0.6584 -0.0475  0.4213
 8219TIP3   OH246071   2.200   0.275  13.093  0.5352 -0.3459 -0.3062
 8219TIP3    H146072   2.272   0.300  13.035  1.9848  1.6690  2.1229
 8219TIP3    H246073   2.221   0.319  13.176 -2.4542 -1.4028  1.1290
 8220TIP3   OH246074   5.678   6.078   1.934  0.6771 -0.3816 -0.1920
 8220TIP3    H146075   5.668   6.170   1.959  2.2718 -0.6260  1.5230
 8220TIP3    H246076   5.596   6.056   1.891  0.2794  1.8517 -0.7188
 8221TIP3   OH246077   1.713   5.030  15.615 -0.2081 -0.3282 -0.1833
 8221TIP3    H146078   1.782   5.044  15.551  0.8862  1.6539  1.3217
 8221TIP3    H246079   1.635   5.069  15.575  0.3448  0.4646 -0.5219
 8222TIP3   OH246080   3.519   2.964   6.460  0.3016 -0.2368  0.7676
 8222TIP3    H146081   3.487   2.879   6.431 -0.5975  0.9969 -2.2740
 8222TIP3    H246082   3.573   2.945   6.536 -1.0400 -3.3342  1.0798
 8223TIP3   OH246083   6.053   4.032   3.540 -0.3920  0.1337 -0.0538
 8223TIP3    H146084   6.096   4.114   3.565 -0.6447 -0.0098  0.9087
 8223TIP3    H246085   6.069   3.974   3.615 -0.8725 -0.4401 -0.3925
 8224TIP3   OH246086   3.131   0.543   3.838  0.2454 -0.0095  0.0064
 8224TIP3    H146087   3.176   0.592   3.769 -1.7662  0.9037 -0.7584
 8224TIP3    H246088   3.128   0.604   3.912  0.0964  0.0103 -0.0155
 8225TIP3   OH246089   0.577   0.124  12.796  0.1360 -0.0848 -0.7153
 8225TIP3    H146090   0.522   0.163  12.863  2.0045 -0.3333  1.0432
 8225TIP3    H246091   0.605   0.198  12.742  0.4520  0.4660  0.1809
 8226TIP3   OH246092   3.553   5.258  15.594 -0.3081 -0.1992 -0.3513
 8226TIP3    H146093   3.555   5.297  15.507  0.4597  2.8568  0.8729
 8226TIP3    H246094   3.645   5.255  15.621 -0.4505 -2.0227  0.0111
 8227TIP3   OH246095   2.073   6.654   4.121  0.6318  0.3609 -0.3169
 8227TIP3    H146096   2.018   6.583   4.154  0.3372  0.4754 -0.5557
 8227TIP3    H246097   2.136   6.611   4.064  1.4392  0.1024  0.7441
 8228TIP3   OH246098   1.016   6.152  16.182  0.1425 -0.0662 -0.6541
 8228TIP3    H146099   1.028   6.241  16.149  0.0397  0.4124  0.5526
 8228TIP3    H246100   0.951   6.113  16.124 -1.5891  1.4332  0.1742
 8229TIP3   OH246101   2.419   2.605  13.004  0.2075 -0.1647  0.4423
 8229TIP3    H146102   2.354   2.634  13.068 -2.9546 -2.0353 -1.6892
 8229TIP3    H246103   2.441   2.685  12.955 -0.8267  0.4168  0.8930
 8230TIP3   OH246104   5.699   6.444  12.506 -0.1379 -0.4998 -0.7882
 8230TIP3    H146105   5.651   6.378  12.456  1.0569 -0.9516 -1.3706
 8230TIP3    H246106   5.630   6.496  12.549 -1.2594  0.2171 -3.2540
 8231TIP3   OH246107   3.954   3.791   5.007 -0.3220 -0.0438 -0.2338
 8231TIP3    H146108   4.001   3.874   4.999 -1.8399  0.8257 -0.5268
 8231TIP3    H246109   4.015   3.725   4.974  0.7195  1.0202 -0.4825
 8232TIP3   OH246110   2.246   1.276  13.515  0.2579 -0.8180  0.0128
 8232TIP3    H146111   2.324   1.246  13.469  0.2904 -0.7964  0.0536
 8232TIP3    H246112   2.173   1.231  13.472  0.4208 -2.1254  1.0354
 8233TIP3   OH246113   1.637   2.021   2.389  0.4985  0.1638  0.3301
 8233TIP3    H146114   1.552   1.981   2.408 -0.0669  0.8069 -0.7571
 8233TIP3    H246115   1.699   1.948   2.394 -0.2815 -0.5354  0.0050
 8234TIP3   OH246116   2.012   5.868  14.618 -0.6342 -0.1044  0.2179
 8234TIP3    H146117   1.993   5.935  14.552 -0.8060 -1.8492 -1.6009
 8234TIP3    H246118   1.927   5.825  14.632 -0.4992 -0.0463  1.2701
 8235TIP3   OH246119   5.160   3.480   3.150 -0.5596  0.5354 -0.4727
 8235TIP3    H146120   5.236   3.512   3.199 -1.4148  0.7773  0.7454
 8235TIP3    H246121   5.197   3.436   3.074  0.8595 -0.5792  0.8047
 8236TIP3   OH246122   1.737   4.563  17.018 -0.0369  0.7072 -0.4525
 8236TIP3    H146123   1.689   4.480  17.013  0.4205  0.3446  0.7683
 8236TIP3    H246124   1.674   4.629  16.990 -0.3388 -0.0681 -1.6678
 8237TIP3   OH246125   1.506   0.411  17.005 -0.4035  0.3274  0.2043
 8237TIP3    H146126   1.491   0.392  16.913  1.4337  1.4396 -0.3843
 8237TIP3    H246127   1.532   0.327  17.043  1.4177  0.3097 -0.9315
 8238TIP3   OH246128   3.695   3.313   2.482  0.1050  0.0259  0.1668
 8238TIP3    H146129   3.617   3.273   2.520  0.6926 -2.8535 -1.3148
 8238TIP3    H246130   3.668   3.337   2.393  0.4070  0.7434  0.2692
 8239TIP3   OH246131   5.117   6.279   6.170  0.2843  0.0864 -0.4970
 8239TIP3    H146132   5.197   6.288   6.222  0.1569 -0.8956 -0.1083
 8239TIP3    H246133   5.118   6.354   6.111  1.0841  0.5231  0.0530
 8240TIP3   OH246134   0.752   5.646  12.212 -0.3757 -0.0655  0.2502
 8240TIP3    H146135   0.715   5.731  12.233 -2.2372 -0.9044  0.5567
 8240TIP3    H246136   0.683   5.583  12.234  0.2787 -1.5345 -1.5615
 8241TIP3   OH246137   3.014   3.354   0.657  0.2634  0.0725  0.2947
 8241TIP3    H146138   2.995   3.438   0.616 -0.2386 -0.0447  0.2884
 8241TIP3    H246139   3.107   3.339   0.638  0.0139 -0.0428 -0.9109
 8242TIP3   OH246140   5.740   2.448   0.478  0.1597  0.2964 -0.6645
 8242TIP3    H146141   5.732   2.353   0.481 -0.2068  0.3105 -1.0803
 8242TIP3    H246142   5.747   2.474   0.569  0.7844 -0.1699 -0.5696
 8243TIP3   OH246143   1.325   3.100   5.599 -0.1600  0.2037  0.1835
 8243TIP3    H146144   1.291   3.050   5.525 -0.1917 -1.4923  1.2794
 8243TIP3    H246145   1.420   3.101   5.585 -0.2208  0.4359 -0.2098
 8244TIP3   OH246146   2.467   4.120  13.710 -0.7009  0.0210  0.0891
 8244TIP3    H146147   2.388   4.091  13.664 -0.1702 -1.7749  0.2192
 8244TIP3    H246148   2.438   4.138  13.799 -0.7774 -1.8726  0.4820
 8245TIP3   OH246149   0.350   1.517   2.460  0.4871 -0.4123 -0.0428
 8245TIP3    H146150   0.347   1.606   2.495 -0.2446 -1.0596  1.6567
 8245TIP3    H246151   0.379   1.528   2.369  1.1097  1.4811  0.3385
 8246TIP3   OH246152   1.375   1.315  15.134  0.3279 -0.4745  0.4058
 8246TIP3    H146153   1.320   1.342  15.061  0.8425  0.9192  0.5033
 8246TIP3    H246154   1.354   1.376  15.205 -0.4338 -2.0235  1.5820
 8247TIP3   OH246155   3.478   4.969  12.847 -0.4517  0.1526  0.5162
 8247TIP3    H146156   3.487   5.057  12.810  1.2444 -0.0835  0.2814
 8247TIP3    H246157   3.386   4.963  12.873 -0.6212  1.9467  0.4478
 8248TIP3   OH246158   1.979   0.082   4.846  0.1794  0.4932 -0.5867
 8248TIP3    H146159   2.073   0.061   4.846  0.1375 -0.1699  3.0158
 8248TIP3    H246160   1.973   0.164   4.895 -1.1195  0.7491 -1.1369
 8249TIP3   OH246161   2.109   4.757  12.584 -0.0309  0.5419  0.1188
 8249TIP3    H146162   2.109   4.706  12.666 -2.0913 -0.8951 -0.7083
 8249TIP3    H246163   2.050   4.831  12.602 -1.4404 -0.4217 -0.3920
 8250TIP3   OH246164   2.445   0.472   4.017 -0.0898  0.3406  0.5317
 8250TIP3    H146165   2.434   0.497   3.925 -0.7252 -1.3305  0.1188
 8250TIP3    H246166   2.455   0.556   4.063  0.5573  1.2047 -1.0783
 8251TIP3   OH246167   0.686   0.741  16.995  0.1114  0.0739 -0.3207
 8251TIP3    H146168   0.699   0.702  17.081  0.3804 -1.0277 -0.8383
 8251TIP3    H246169   0.756   0.806  16.987  2.0672 -1.9517 -0.8802
 8252TIP3   OH246170   1.561   3.829   0.930 -0.1597  0.0455 -0.5376
 8252TIP3    H146171   1.479   3.792   0.898  0.8114 -0.9096 -2.0459
 8252TIP3    H246172   1.535   3.904   0.983 -1.9918 -0.2304 -0.9860
 8253TIP3   OH246173   4.779   0.188   4.896 -0.6840 -0.1976  0.4211
 8253TIP3    H146174   4.722   0.261   4.873 -0.8434 -0.4985 -0.1865
 8253TIP3    H246175   4.832   0.174   4.817  1.4018  1.1179  1.5058
 8254TIP3   OH246176   0.913   1.884   0.036  0.3928 -0.0544 -0.1997
 8254TIP3    H146177   0.951   1.954   0.088 -0.9278  0.9860 -0.5619
 8254TIP3    H246178   0.931   1.804   0.086  1.9748  0.5111  0.1907
 8255TIP3   OH246179   5.599   1.086   0.136  0.3706 -0.0140 -0.1229
 8255TIP3    H146180   5.511   1.114   0.114  0.7068 -0.4227 -2.2466
 8255TIP3    H246181   5.654   1.164   0.123  0.4028  0.1233  0.7592
 8256TIP3   OH246182   0.870   2.549  16.689 -0.3742  0.3932 -0.2297
 8256TIP3    H146183   0.827   2.484  16.633  0.7353  0.8386 -1.6518
 8256TIP3    H246184   0.800   2.581  16.746 -0.9914 -1.9085  0.4268
 8257TIP3   OH246185   5.194   6.588   4.505 -0.1421 -0.4971  0.2932
 8257TIP3    H146186   5.179   6.562   4.596  0.0261  1.2073  0.8435
 8257TIP3    H246187   5.252   6.664   4.512  0.7954 -1.0342 -1.3050
 8258TIP3   OH246188   6.773   6.111  17.148 -1.2376  0.1556  0.3591
 8258TIP3    H146189   6.767   6.149  17.061  0.1110 -0.6785 -0.1291
 8258TIP3    H246190   6.760   6.018  17.135 -0.0236 -0.1098  0.8872
 8259TIP3   OH246191   5.340   4.987   3.823  0.0921 -0.0561  0.5095
 8259TIP3    H146192   5.400   4.929   3.870 -0.2327  0.7723  2.0131
 8259TIP3    H246193   5.254   4.968   3.861  0.1409  2.1837  1.8936
 8260TIP3   OH246194   3.656   5.314  14.955 -0.3263 -0.3267  0.2143
 8260TIP3    H146195   3.734   5.296  15.007  0.4390 -1.9243 -1.3430
 8260TIP3    H246196   3.612   5.229  14.948 -1.3041  0.2048 -0.3179
 8261TIP3   OH246197   4.582   4.861   0.799  0.1494 -0.3254  0.1304
 8261TIP3    H146198   4.660   4.823   0.759  0.0105 -2.5312  1.7888
 8261TIP3    H246199   4.612   4.897   0.883 -0.4126 -0.1878  0.2807
 8262TIP3   OH246200   0.429   2.290  16.474  0.1170  0.1628  0.2229
 8262TIP3    H146201   0.429   2.278  16.379 -1.7370 -1.3624  0.3679
 8262TIP3    H246202   0.437   2.385  16.486 -2.1734  0.6509 -1.5594
 8263TIP3   OH246203   3.947   6.433   0.242  0.0762 -0.0499  0.5392
 8263TIP3    H146204   3.905   6.494   0.182 -0.0839 -0.2024  0.4933
 8263TIP3    H246205   4.037   6.464   0.250  0.5897 -1.0001 -1.1096
 8264TIP3   OH246206   6.643   0.542   0.104  0.1461 -0.0001  0.2059
 8264TIP3    H146207   6.630   0.452   0.134 -0.8282 -0.0633 -0.3390
 8264TIP3    H246208   6.626   0.596   0.181  0.3326 -0.2710  0.4364
 8265TIP3   OH246209   5.994   4.638   2.901  0.7435  0.0385  0.1948
 8265TIP3    H146210   6.016   4.545   2.911  0.6492  0.0534  0.5619
 8265TIP3    H246211   6.004   4.674   2.989 -2.2037 -0.2526  0.7649
 8266TIP3   OH246212   2.911   6.149  16.899 -0.6905  0.1861 -0.8134
 8266TIP3    H146213   2.845   6.218  16.903 -0.1769  0.7104 -1.2754
 8266TIP3    H246214   2.890   6.099  16.820 -1.0415 -0.1760 -0.4984
 8267TIP3   OH246215   3.722   4.392  14.815 -0.5003 -0.0338  0.5300
 8267TIP3    H146216   3.640   4.342  14.810 -1.0243  0.8277  0.1936
 8267TIP3    H246217   3.769   4.369  14.735 -1.4475  1.1715 -0.4169
 8268TIP3   OH246218   4.089   3.992  13.254  0.1218 -0.1187  0.0663
 8268TIP3    H146219   4.097   3.898  13.245  1.7929  0.1813 -2.4080
 8268TIP3    H246220   4.122   4.028  13.172 -0.8812  2.6310  0.7308
 8269TIP3   OH246221   3.690   5.698   5.541  0.5694  0.1206 -0.5752
 8269TIP3    H146222   3.693   5.603   5.528  0.0530  0.2391 -1.6598
 8269TIP3    H246223   3.597   5.717   5.552  0.7692  0.3574  0.9924
 8270TIP3   OH246224   1.038   6.729   4.559 -0.1717  0.3552  0.2056
 8270TIP3    H146225   0.990   6.778   4.626  1.0862 -0.5137  1.8304
 8270TIP3    H246226   1.130   6.754   4.573  0.5164 -2.3214  1.0678
 8271TIP3   OH246227   6.323   4.867   0.066 -0.2129  0.1379 -0.1309
 8271TIP3    H146228   6.294   4.794   0.121  2.3705 -0.6568  0.2939
 8271TIP3    H246229   6.295   4.945   0.114 -3.2353 -0.4602 -0.7074
 8272TIP3   OH246230   3.154   2.466   0.664 -0.5388 -0.2847  0.4231
 8272TIP3    H146231   3.233   2.503   0.624 -0.8824  0.1400  0.1330
 8272TIP3    H246232   3.155   2.374   0.636  0.6200 -0.6662  1.6244
 8273TIP3   OH246233   3.879   2.449  10.999  0.7684 -0.3338 -0.1838
 8273TIP3    H146234   3.814   2.476  11.064  1.5023  0.6476  0.1609
 8273TIP3    H246235   3.874   2.516  10.931  2.2260  0.4195  0.4109
 8274TIP3   OH246236   4.834   1.980   4.533  0.0602 -0.0617 -0.1326
 8274TIP3    H146237   4.871   2.052   4.584  2.2065 -0.4084 -1.0908
 8274TIP3    H246238   4.849   2.005   4.442  0.5209 -1.5536 -0.4918
 8275TIP3   OH246239   2.258   6.562  11.477 -0.2359 -0.0662  0.0091
 8275TIP3    H146240   2.220   6.650  11.488 -0.1304  0.2504 -1.7340
 8275TIP3    H246241   2.333   6.577  11.418  0.5365 -1.1639  0.6917
 8276TIP3   OH246242   2.532   1.134   5.313  0.2837  0.7642  0.2042
 8276TIP3    H146243   2.497   1.082   5.385  1.2826  0.9006  0.8022
 8276TIP3    H246244   2.460   1.139   5.250 -0.1311 -0.5631  0.5407
 8277TIP3   OH246245   3.094   4.345   4.260 -0.6785 -0.0033  1.0394
 8277TIP3    H146246   3.111   4.414   4.196 -3.6211 -0.4336 -0.3725
 8277TIP3    H246247   3.091   4.390   4.344 -0.3625  1.2069  0.4284
 8278TIP3   OH246248   1.608   0.933  12.787 -0.5860 -0.1262  0.0814
 8278TIP3    H146249   1.626   0.948  12.694  2.0788 -1.2685  0.3278
 8278TIP3    H246250   1.579   0.842  12.791  0.5987 -0.4870  0.5069
 8279TIP3   OH246251   1.468   2.061  16.953  0.1069 -0.1754 -0.2368
 8279TIP3    H146252   1.409   2.123  16.995 -0.2599 -1.1090  0.6631
 8279TIP3    H246253   1.549   2.065  17.004 -0.7975 -2.3146  1.5259
 8280TIP3   OH246254   5.093   2.294  16.630 -0.5117 -0.3387 -0.0338
 8280TIP3    H146255   5.136   2.376  16.608  0.8773 -1.5027 -1.9500
 8280TIP3    H246256   4.999   2.315  16.628 -0.2299  0.9492 -1.6050
 8281TIP3   OH246257   4.173   3.349   4.342 -0.3428 -0.2025  0.5437
 8281TIP3    H146258   4.089   3.392   4.327 -0.9593 -1.9074 -1.2792
 8281TIP3    H246259   4.153   3.274   4.396 -0.2425 -1.2746 -0.8448
 8282TIP3   OH246260   3.952   4.727  12.027  0.1391  0.4986 -0.2475
 8282TIP3    H146261   3.951   4.661  11.958 -1.4022 -0.4171  0.5952
 8282TIP3    H246262   3.931   4.809  11.982 -0.4559 -0.0163 -0.9339
 8283TIP3   OH246263   0.168   5.349  11.580  0.1595 -0.5211 -0.5782
 8283TIP3    H146264   0.080   5.319  11.601 -0.1915  0.6903 -0.2115
 8283TIP3    H246265   0.196   5.292  11.509 -2.0257  0.8063 -2.6674
 8284TIP3   OH246266   6.172   2.798  16.685 -0.0565  0.0628 -0.0402
 8284TIP3    H146267   6.172   2.894  16.688  1.0560  0.0386  1.7288
 8284TIP3    H246268   6.100   2.777  16.625  0.0576  1.9918 -0.9589
 8285TIP3   OH246269   3.352   5.365  14.710  0.1721  0.4653  0.2619
 8285TIP3    H146270   3.395   5.432  14.763 -0.1652  0.5328  0.4489
 8285TIP3    H246271   3.424   5.313  14.675  0.3856  0.2654  0.9834
 8286TIP3   OH246272   5.401   5.893  11.988 -0.0425  0.1681  0.2718
 8286TIP3    H146273   5.408   5.809  12.034  1.7291  0.5337  0.7606
 8286TIP3    H246274   5.389   5.870  11.896 -1.1208 -0.5950  0.5917
 8287TIP3   OH246275   4.406   1.803   5.155 -0.4490  0.3547 -0.1568
 8287TIP3    H146276   4.484   1.848   5.123 -1.2962 -1.2267 -5.3420
 8287TIP3    H246277   4.434   1.712   5.168 -0.8617  0.3404  0.7084
 8288TIP3   OH246278   3.261   5.330  15.266 -0.3257 -0.4686  0.3369
 8288TIP3    H146279   3.190   5.347  15.204  0.0319  1.7190  0.4446
 8288TIP3    H246280   3.340   5.335  15.213 -0.1054 -0.1571  0.6942
 8289TIP3   OH246281   5.081   5.289  16.230  0.4579  0.0611 -0.4564
 8289TIP3    H146282   5.170   5.300  16.262  0.1838  2.0125 -0.2390
 8289TIP3    H246283   5.026   5.300  16.307 -0.0366  0.9162 -0.9108
 8290TIP3   OH246284   4.856   6.360  11.023 -0.5416 -0.0131 -0.4480
 8290TIP3    H146285   4.817   6.282  10.984 -0.1832  0.4178 -1.7054
 8290TIP3    H246286   4.855   6.426  10.954 -0.0618  0.8458  0.3273
 8291TIP3   OH246287   6.670   4.218  12.929 -0.1135 -0.2286 -0.1759
 8291TIP3    H146288   6.672   4.133  12.974 -0.4150 -0.1865 -0.0795
 8291TIP3    H246289   6.733   4.272  12.977 -0.2528 -0.2602  0.0457
 8292TIP3   OH246290   0.362   2.233  13.491 -0.0085  0.2575 -0.4461
 8292TIP3    H146291   0.406   2.314  13.463 -1.6037  0.6187 -2.1042
 8292TIP3    H246292   0.343   2.246  13.583 -1.4996  2.4515 -0.9826
 8293TIP3   OH246293   6.241   4.928  16.860  0.1714 -0.1294 -0.4317
 8293TIP3    H146294   6.272   4.860  16.920  0.0377  1.3018  1.3673
 8293TIP3    H246295   6.167   4.969  16.906  0.7521  1.7453 -1.0688
 8294TIP3   OH246296   3.779   2.408  10.578  0.2417  0.3478 -0.4401
 8294TIP3    H146297   3.705   2.449  10.622 -0.5428 -1.1083 -0.3449
 8294TIP3    H246298   3.836   2.482  10.553 -0.3442  1.3525  1.0644
 8295TIP3   OH246299   6.225   6.671  16.514 -0.3888  0.4221 -0.3443
 8295TIP3    H146300   6.316   6.665  16.485 -0.4434  0.5278 -0.5447
 8295TIP3    H246301   6.183   6.594  16.477 -0.5555  0.7757 -0.9153
 8296TIP3   OH246302   0.572   2.495   4.924  0.1133  0.1592  0.2665
 8296TIP3    H146303   0.488   2.499   4.971 -0.3501  0.0551 -0.5363
 8296TIP3    H246304   0.559   2.425   4.859  0.7376  0.3143 -0.0265
 8297TIP3   OH246305   4.229   6.522   2.110 -0.0512  0.2691 -0.1375
 8297TIP3    H146306   4.221   6.609   2.150 -0.7751  1.1739 -2.0992
 8297TIP3    H246307   4.155   6.473   2.145  0.5804  0.2981  1.2842
 8298TIP3   OH246308   2.906   4.119   0.018  0.1377  0.0495 -0.2300
 8298TIP3    H146309   2.972   4.124   0.087  0.0761 -0.3891 -0.1369
 8298TIP3    H246310   2.847   4.192   0.035 -0.0114 -0.2007  0.3192
 8299TIP3   OH246311   3.209   0.539   2.726 -0.1713  0.4802 -0.4017
 8299TIP3    H146312   3.156   0.549   2.648 -1.1225  1.3417  0.3228
 8299TIP3    H246313   3.154   0.491   2.788  0.1754  0.6960  0.0867
 8300TIP3   OH246314   0.283   2.325   1.197  0.5516 -0.2373  0.1789
 8300TIP3    H146315   0.252   2.364   1.115  0.9451  1.1708  0.6847
 8300TIP3    H246316   0.272   2.393   1.263 -0.0686 -1.4548  1.4008
 8301TIP3   OH246317   0.659   1.983  11.580  0.2920  0.2187 -0.7080
 8301TIP3    H146318   0.714   1.962  11.504  0.3023 -0.8383 -0.4233
 8301TIP3    H246319   0.687   2.071  11.606  2.1104 -0.4071 -0.3759
 8302TIP3   OH246320   4.789   0.043  15.685  0.7589  0.4222 -0.1403
 8302TIP3    H146321   4.756   0.079  15.767  1.0153  1.9664 -0.6872
 8302TIP3    H246322   4.772  -0.051  15.692 -2.4164  0.9019  0.2258
 8303TIP3   OH246323   6.673   1.437  14.729  0.0373 -0.1357  0.1558
 8303TIP3    H146324   6.608   1.451  14.660 -1.0429  0.5891  1.2593
 8303TIP3    H246325   6.747   1.396  14.685 -1.6846 -2.2932 -0.9323
 8304TIP3   OH246326   4.579   6.317  13.595 -0.1996  0.5498 -0.2348
 8304TIP3    H146327   4.605   6.278  13.679 -2.3150 -0.4059  0.0275
 8304TIP3    H246328   4.564   6.409  13.615  0.5161  0.5959  0.1402
 8305TIP3   OH246329   0.634   2.180  17.233  0.2607  0.3638 -0.0729
 8305TIP3    H146330   0.676   2.232  17.302 -0.3968  0.8858 -0.0569
 8305TIP3    H246331   0.541   2.192  17.248  0.0958 -0.7446 -0.1426
 8306TIP3   OH246332   5.727   2.189   3.664  0.1586 -0.3479 -0.1678
 8306TIP3    H146333   5.797   2.175   3.727 -1.6845  1.4101  2.4606
 8306TIP3    H246334   5.737   2.281   3.637 -0.4674 -0.4162 -0.6603
 8307TIP3   OH246335   1.992   6.599   1.707  0.2375 -0.2770 -0.0735
 8307TIP3    H146336   2.055   6.626   1.774 -0.6989  0.8279  0.3886
 8307TIP3    H246337   1.908   6.595   1.753  0.1217 -3.0281 -0.3555
 8308TIP3   OH246338   4.470   0.848   3.784 -0.1778 -0.0716 -0.1996
 8308TIP3    H146339   4.478   0.860   3.689  0.8014  1.1793  0.0069
 8308TIP3    H246340   4.434   0.760   3.795 -0.6029 -0.1097 -1.7389
 8309TIP3   OH246341   0.996   2.403   3.868 -0.1927  0.1194 -0.2012
 8309TIP3    H146342   0.909   2.427   3.837 -0.0869 -0.2522 -0.7993
 8309TIP3    H246343   1.026   2.336   3.807  0.5042  0.2276  0.0093
 8310TIP3   OH246344   1.183   0.593  14.891 -0.0666  0.1028 -0.2401
 8310TIP3    H146345   1.247   0.613  14.959  0.8479 -0.9924 -0.7398
 8310TIP3    H246346   1.113   0.546  14.936  0.1365  0.1190  0.0937
 8311TIP3   OH246347   6.663   4.087   4.076  0.0955  0.1940 -0.2492
 8311TIP3    H146348   6.705   4.059   3.995 -1.5012  1.0716 -1.4466
 8311TIP3    H246349   6.711   4.042   4.145 -0.3035 -2.9226 -1.8401
 8312TIP3   OH246350   1.819   3.771  15.017  0.1959  0.1797  0.4310
 8312TIP3    H146351   1.862   3.734  14.940 -0.0008  0.0164  0.3996
 8312TIP3    H246352   1.805   3.695  15.075  0.7033  0.3576  0.7967
 8313TIP3   OH246353   3.692   3.560  16.903  0.7829 -0.1181 -0.2452
 8313TIP3    H146354   3.618   3.510  16.937  0.6945  0.3491  0.2642
 8313TIP3    H246355   3.757   3.558  16.972  1.5994 -1.2354 -1.0246
 8314TIP3   OH246356   3.954   6.770  13.440  1.0890  0.1862 -0.2273
 8314TIP3    H146357   3.978   6.729  13.357  1.0627 -1.2429  0.4432
 8314TIP3    H246358   3.864   6.740  13.456 -0.8393  4.2479 -1.9785
 8315TIP3   OH246359   4.875   2.059  16.192  0.2548 -0.6436 -0.1354
 8315TIP3    H146360   4.918   1.996  16.134 -0.4739 -0.3329 -1.0416
 8315TIP3    H246361   4.942   2.083  16.256 -0.2394 -4.7943  2.3554
 8316TIP3   OH246362   4.017   1.207  11.756 -0.0807 -0.3861 -0.4587
 8316TIP3    H146363   3.998   1.119  11.789 -2.0743  0.7380  1.6706
 8316TIP3    H246364   4.087   1.239  11.813 -1.0703  0.2541  0.4437
 8317TIP3   OH246365   3.165   3.935   4.361  0.3450 -0.0344  0.4708
 8317TIP3    H146366   3.129   3.931   4.273  0.8020  0.2868  0.2606
 8317TIP3    H246367   3.089   3.938   4.419  0.0403 -1.0022  0.1269
 8318TIP3   OH246368   4.611   1.438  17.189 -0.2306  0.1321  0.0057
 8318TIP3    H146369   4.610   1.532  17.173 -2.3158 -0.0201 -1.0719
 8318TIP3    H246370   4.525   1.408  17.161  1.6502 -2.7451 -3.4729
 8319TIP3   OH246371   2.663   6.689   5.293  0.0275  0.2334 -0.5245
 8319TIP3    H146372   2.590   6.705   5.353 -0.2323  0.7262 -0.9641
 8319TIP3    H246373   2.726   6.759   5.311 -0.2834  0.6898 -1.1767
 8320TIP3   OH246374   3.697   2.354  17.081 -0.0166  0.0672 -0.2641
 8320TIP3    H146375   3.756   2.391  17.016  1.1786  0.5386  1.0284
 8320TIP3    H246376   3.610   2.360  17.042  0.0803  4.1415 -0.2122
 8321TIP3   OH246377   5.532   6.647   1.894  0.2056  0.3635 -0.3677
 8321TIP3    H146378   5.610   6.697   1.870  0.1169  2.3517  2.9267
 8321TIP3    H246379   5.460   6.709   1.884 -0.3088 -0.0028  0.9003
 8322TIP3   OH246380   1.135   2.145  14.246  0.3381  0.4734 -0.1199
 8322TIP3    H146381   1.161   2.237  14.245 -0.7277  0.8046 -2.0390
 8322TIP3    H246382   1.047   2.144  14.209  1.4818 -1.5694 -3.1970
 8323TIP3   OH246383   0.089   1.078   4.973  0.1122  0.0430 -0.0718
 8323TIP3    H146384   0.026   1.019   5.014  0.0487  0.6036  0.6707
 8323TIP3    H246385   0.125   1.029   4.899  0.0316 -0.8938  0.5060
 8324TIP3   OH246386   6.650   0.638  16.232  0.1980 -0.1066  0.0028
 8324TIP3    H146387   6.589   0.709  16.253 -2.8950 -3.1028  2.2964
 8324TIP3    H246388   6.706   0.631  16.310 -1.1235 -1.5703  0.8811
 8325TIP3   OH246389   3.626   3.743   0.404 -0.0186 -0.2932 -0.3136
 8325TIP3    H146390   3.689   3.815   0.401  0.4984 -0.6223  1.5252
 8325TIP3    H246391   3.560   3.772   0.467  0.1250 -1.3432  0.3440
 8326TIP3   OH246392   3.280   4.766   5.724  0.3775 -0.3106 -0.3570
 8326TIP3    H146393   3.239   4.680   5.734  0.6827 -0.4519 -0.2858
 8326TIP3    H246394   3.305   4.791   5.813  1.9719 -1.0039 -0.5676
 8327TIP3   OH246395   3.830   4.534  15.867  0.5059 -0.2765  0.1097
 8327TIP3    H146396   3.907   4.491  15.829  0.4926 -1.1956  1.0536
 8327TIP3    H246397   3.805   4.477  15.940  0.9358  1.7152  1.9164
 8328TIP3   OH246398   5.996   1.258  14.917 -0.2150  0.5616  0.0425
 8328TIP3    H146399   5.943   1.323  14.871 -0.9045  1.5608  2.1382
 8328TIP3    H246400   5.945   1.177  14.909  0.1502  0.4509 -1.6964
 8329TIP3   OH246401   3.910   3.571   6.002  0.0675  0.7018  0.0780
 8329TIP3    H146402   3.880   3.562   5.912  2.5532  0.4389 -0.8193
 8329TIP3    H246403   4.004   3.552   5.997 -0.0723 -1.3895  3.0656
 8330TIP3   OH246404   6.600   0.694  13.597 -0.5518 -0.0688  0.4783
 8330TIP3    H146405   6.585   0.614  13.647  1.9924 -0.8992  0.0544
 8330TIP3    H246406   6.589   0.669  13.506 -0.3844  0.2074  0.3787
 8331TIP3   OH246407   5.349   1.162   0.041  0.3360  0.0629  0.2627
 8331TIP3    H146408   5.319   1.250   0.063  0.0262  0.3356 -1.1662
 8331TIP3    H246409   5.269   1.113   0.021  0.5730 -0.2883  0.1592
 8332TIP3   OH246410   3.318   0.255  14.340  0.9753 -0.3732  0.0569
 8332TIP3    H146411   3.330   0.334  14.393 -0.0009  0.0945 -0.3815
 8332TIP3    H246412   3.397   0.250  14.286  0.9089  0.4978 -0.1458
 8333TIP3   OH246413   0.658   6.112   1.830  0.2243 -0.2071  0.4687
 8333TIP3    H146414   0.584   6.126   1.889 -0.5006  1.0336 -0.6505
 8333TIP3    H246415   0.716   6.187   1.846 -0.2663  0.4674 -0.7483
 8334TIP3   OH246416   1.355   5.725  13.826  0.6228 -0.1513  0.7084
 8334TIP3    H146417   1.393   5.652  13.874 -0.3842 -0.1250  1.5869
 8334TIP3    H246418   1.415   5.798  13.841  2.5932 -1.1910 -1.6444
 8335TIP3   OH246419   6.015   5.573  16.419  0.6681 -0.3626  0.0555
 8335TIP3    H146420   5.922   5.567  16.443 -0.4296  0.2999 -3.4125
 8335TIP3    H246421   6.044   5.482  16.416  0.9141 -0.5201  3.3470
 8336TIP3   OH246422   3.775   6.688  11.191 -0.9122  0.2115 -0.4010
 8336TIP3    H146423   3.707   6.691  11.258 -0.0325  0.1545  0.5094
 8336TIP3    H246424   3.856   6.669  11.239 -0.4657 -1.1829 -1.6317
 8337TIP3   OH246425   6.445   2.265  16.807 -0.2223 -0.4148 -0.3849
 8337TIP3    H146426   6.466   2.244  16.898  0.7839  2.5736  0.1905
 8337TIP3    H246427   6.530   2.263  16.762 -0.4040  0.1349 -0.7616
 8338TIP3   OH246428   0.943   4.743  11.068 -0.3761 -0.6831  0.2031
 8338TIP3    H146429   0.856   4.775  11.047 -0.3545 -1.0089 -0.4013
 8338TIP3    H246430   1.003   4.801  11.022 -0.3525 -1.8542 -1.3075
 8339TIP3   OH246431   4.602   3.743  13.481  0.3667 -0.4573 -0.3120
 8339TIP3    H146432   4.569   3.681  13.545 -1.2864 -1.3130 -1.8937
 8339TIP3    H246433   4.669   3.695  13.433  0.0447 -0.5848 -0.6438
 8340TIP3   OH246434   1.889   2.797  14.805 -0.1595  0.3709 -0.3730
 8340TIP3    H146435   1.983   2.794  14.788  0.2652  2.0587  1.3785
 8340TIP3    H246436   1.866   2.889  14.799 -1.3047  0.2141  1.1506
 8341TIP3   OH246437   0.045   0.763   1.388 -0.6120 -0.5775  0.2645
 8341TIP3    H146438   0.065   0.849   1.352  2.6123 -0.1526  2.6594
 8341TIP3    H246439   0.084   0.701   1.326  1.3315 -0.0352  0.8716
 8342TIP3   OH246440   5.754   0.655   3.656  0.2623  0.5692  0.8380
 8342TIP3    H146441   5.847   0.635   3.661 -0.2611 -2.0224  1.4880
 8342TIP3    H246442   5.740   0.683   3.565  1.3541 -0.8664  0.2022
 8343TIP3   OH246443   2.626   5.253  16.437  0.9223  0.2024  0.2447
 8343TIP3    H146444   2.559   5.215  16.381  1.4399 -1.1155  0.4936
 8343TIP3    H246445   2.696   5.280  16.378  1.4663 -1.1821  0.2048
 8344TIP3   OH246446   1.591   3.007   1.167  0.5345 -0.4352  0.2998
 8344TIP3    H146447   1.665   3.067   1.161  0.1663  0.6240  4.0549
 8344TIP3    H246448   1.515   3.064   1.176 -0.4993 -1.5343 -0.9867
 8345TIP3   OH246449   2.760   5.569   5.250 -0.5158 -0.4365  0.0284
 8345TIP3    H146450   2.752   5.555   5.344 -0.6556  4.2962  0.9644
 8345TIP3    H246451   2.837   5.519   5.224  0.5676 -0.5313  3.0439
 8346TIP3   OH246452   4.117   3.732  14.010 -0.4742  0.1720  0.2554
 8346TIP3    H146453   4.083   3.644  14.026  0.0038  0.1339  1.1414
 8346TIP3    H246454   4.207   3.730  14.045 -0.2598  0.8409 -0.2334
 8347TIP3   OH246455   4.186   2.529  12.472 -0.6971  0.1900  0.3760
 8347TIP3    H146456   4.167   2.446  12.428  0.5047 -1.0044  1.9601
 8347TIP3    H246457   4.236   2.579  12.408 -1.7697 -0.1292 -0.7451
 8348TIP3   OH246458   3.530   4.435   6.099 -0.2621  0.7269  0.5511
 8348TIP3    H146459   3.501   4.516   6.141 -1.4639  0.1776  0.8343
 8348TIP3    H246460   3.450   4.398   6.061  0.3945  0.0325 -0.2039
 8349TIP3   OH246461   2.941   0.665  15.930 -0.5357 -0.1717 -0.3080
 8349TIP3    H146462   3.016   0.720  15.954 -1.3571  1.2448 -0.9202
 8349TIP3    H246463   2.864   0.716  15.955 -1.3250 -1.5591  0.2114
 8350TIP3   OH246464   6.427   6.416  16.782  0.2209 -0.8195  0.3071
 8350TIP3    H146465   6.331   6.420  16.786 -0.0209 -3.6538 -0.0149
 8350TIP3    H246466   6.444   6.346  16.719  2.5274 -0.3523  0.3451
 8351TIP3   OH246467   5.062   4.935  16.498 -0.0991  0.4909 -0.1115
 8351TIP3    H146468   5.054   4.950  16.592 -0.5684  1.3828 -0.2809
 8351TIP3    H246469   5.137   4.876  16.489 -0.8984 -0.7396  0.9133
 8352TIP3   OH246470   4.176   5.324  13.300 -0.1018  0.2317  0.0911
 8352TIP3    H146471   4.179   5.229  13.285  3.1278  0.1573  0.5978
 8352TIP3    H246472   4.227   5.337  13.380  0.4949  2.4971 -0.5935
 8353TIP3   OH246473   2.059   3.619  13.498 -0.9940 -0.3826  0.2998
 8353TIP3    H146474   2.152   3.625  13.522 -0.7090 -0.2142 -0.8036
 8353TIP3    H246475   2.016   3.587  13.578  0.1893 -1.6201  0.4804
 8354TIP3   OH246476   6.770   6.754   4.639 -0.1079 -0.8061 -0.2771
 8354TIP3    H146477   6.837   6.731   4.703  0.1234 -1.5109 -0.7577
 8354TIP3    H246478   6.704   6.685   4.647 -0.7769 -0.1298  0.1758
 8355TIP3   OH246479   3.048   1.180   5.536 -0.7229  0.7494 -0.6174
 8355TIP3    H146480   3.000   1.263   5.532 -0.7567  0.7203 -0.8571
 8355TIP3    H246481   2.992   1.117   5.491 -1.4779  0.1909  1.0190
 8356TIP3   OH246482   5.463   4.713  12.139 -0.4548 -0.3250  0.6264
 8356TIP3    H146483   5.411   4.645  12.097 -1.7264  0.5623  0.7191
 8356TIP3    H246484   5.553   4.683  12.129 -0.5916  0.0309 -3.1787
 8357TIP3   OH246485   0.594   0.472   5.733  0.0177 -0.3948 -0.3996
 8357TIP3    H146486   0.640   0.387   5.736 -0.6647 -0.7617 -0.1173
 8357TIP3    H246487   0.600   0.498   5.641 -0.4503 -1.1425 -0.6557
 8358TIP3   OH246488   5.422   1.785   0.478  0.4013 -0.2315 -0.6030
 8358TIP3    H146489   5.418   1.835   0.396 -1.2712 -0.1397 -0.5045
 8358TIP3    H246490   5.427   1.694   0.450  0.5843 -0.1628 -0.8000
 8359TIP3   OH246491   3.338   1.463   0.473  0.0302 -0.0861  0.1332
 8359TIP3    H146492   3.404   1.488   0.537  0.2926 -1.0174  0.2437
 8359TIP3    H246493   3.255   1.466   0.521 -0.1705  2.0553 -0.2631
 8360TIP3   OH246494   3.127   4.027  11.235  0.4554 -0.1210 -0.8772
 8360TIP3    H146495   3.110   3.945  11.282  0.1393 -0.6689 -1.9139
 8360TIP3    H246496   3.119   4.003  11.142  0.0401  1.1539 -1.1873
 8361TIP3   OH246497   3.068   0.251   4.249  0.1990  0.1779 -0.5745
 8361TIP3    H146498   3.021   0.331   4.225  2.3823  1.7595  0.1208
 8361TIP3    H246499   3.010   0.208   4.312 -0.5803  1.7916 -0.1079
 8362TIP3   OH246500   5.184   6.073   4.687 -0.0200  0.7574 -0.3074
 8362TIP3    H146501   5.096   6.048   4.661 -0.3574 -0.4338  1.7247
 8362TIP3    H246502   5.171   6.128   4.765  0.9799  2.4046 -1.2476
 8363TIP3   OH246503   6.648   4.599   1.997  0.3220  0.0488  0.5995
 8363TIP3    H146504   6.603   4.642   2.069 -0.5926 -2.8011  1.8660
 8363TIP3    H246505   6.589   4.608   1.922 -0.1159  0.4741  0.9945
 8364TIP3   OH246506   1.346   4.698   1.422  0.1654 -0.5143  0.3547
 8364TIP3    H146507   1.356   4.793   1.427 -0.7570 -0.1649 -2.6397
 8364TIP3    H246508   1.408   4.664   1.487  0.1825  2.0997  1.8397
 8365TIP3   OH246509   1.942   2.385  16.789 -0.2461  0.1413 -0.5045
 8365TIP3    H146510   1.859   2.430  16.805 -0.1554  0.4078 -0.7668
 8365TIP3    H246511   1.937   2.359  16.697 -1.5432 -2.9706  0.3241
 8366TIP3   OH246512   1.746   6.380   1.616 -0.3208  0.0383  0.0961
 8366TIP3    H146513   1.747   6.474   1.602  0.4385  0.1602  0.8951
 8366TIP3    H246514   1.700   6.368   1.699 -2.8885 -0.5171 -1.3203
 8367TIP3   OH246515   2.921   5.276  11.666 -0.5351  0.3720  0.0110
 8367TIP3    H146516   2.902   5.213  11.736  0.9032  0.4688  0.5059
 8367TIP3    H246517   2.867   5.352  11.687 -2.6018 -0.7787 -0.8038
 8368TIP3   OH246518   6.075   4.353  16.035  0.1815  0.2066  0.2137
 8368TIP3    H146519   6.150   4.408  16.013  1.4016 -1.0105  1.1603
 8368TIP3    H246520   6.043   4.321  15.951  2.4951 -1.4609 -0.1498
 8369TIP3   OH246521   2.390   4.143  14.864 -0.0310 -1.1125  0.3558
 8369TIP3    H146522   2.412   4.098  14.945 -3.3929 -0.3771  1.8327
 8369TIP3    H246523   2.308   4.187  14.882  0.2856  1.1001 -2.7511
 8370TIP3   OH246524   5.380   1.825  12.638  0.2459  0.1976 -0.5942
 8370TIP3    H146525   5.295   1.784  12.626 -0.2140  0.6870  0.7339
 8370TIP3    H246526   5.441   1.772  12.587 -0.4117 -1.7833  0.5701
 8371TIP3   OH246527   2.305   3.882  16.711  0.1694  0.2453  0.3800
 8371TIP3    H146528   2.333   3.791  16.701 -1.7153 -0.4720  1.0047
 8371TIP3    H246529   2.294   3.893  16.806 -0.7578  0.7281  0.2299
 8372TIP3   OH246530   1.858   0.307  15.841  0.4704  0.1764 -0.0802
 8372TIP3    H146531   1.912   0.238  15.801 -2.1657 -1.1147 -1.6869
 8372TIP3    H246532   1.814   0.263  15.914  1.4487  1.2018  1.1802
 8373TIP3   OH246533   5.264   2.489  15.821 -0.1598 -0.2650 -0.1991
 8373TIP3    H146534   5.299   2.486  15.910  0.2229 -0.2143 -0.3461
 8373TIP3    H246535   5.312   2.421  15.774  0.2123  0.2539 -0.5722
 8374TIP3   OH246536   6.752   5.810   4.405  0.3216  0.2668 -0.2475
 8374TIP3    H146537   6.803   5.734   4.434  1.1127  0.9382  0.1594
 8374TIP3    H246538   6.662   5.789   4.429  0.8931  0.6678  2.5208
 8375TIP3   OH246539   3.622   4.828  15.982  0.2164 -0.1055 -0.1563
 8375TIP3    H146540   3.548   4.876  15.945 -0.2403 -0.2468  0.5624
 8375TIP3    H246541   3.630   4.861  16.072  1.0546 -0.0579 -0.2396
 8376TIP3   OH246542   4.669   4.581   5.282 -0.6242  0.3198 -0.0478
 8376TIP3    H146543   4.738   4.591   5.217  0.2717 -0.9960  0.6586
 8376TIP3    H246544   4.590   4.562   5.230  0.7384 -4.6830 -0.8729
 8377TIP3   OH246545   3.316   3.951   4.850  0.4044  0.1740 -0.7262
 8377TIP3    H146546   3.336   3.935   4.758 -2.8239  2.3402 -1.9921
 8377TIP3    H246547   3.263   4.031   4.849  2.7030  2.0599  3.3595
 8378TIP3   OH246548   3.055   1.975  15.725  0.5182  0.8003  0.3587
 8378TIP3    H146549   2.999   1.916  15.675 -2.0236  2.6125  0.8618
 8378TIP3    H246550   3.132   1.922  15.746  0.1382 -1.0837 -2.4302
 8379TIP3   OH246551   5.993   5.162   6.265  0.1783  0.4282  0.1098
 8379TIP3    H146552   5.933   5.199   6.199  0.0532 -0.5949 -0.3648
 8379TIP3    H246553   5.945   5.168   6.347  0.3371  1.7304  0.1272
 8380TIP3   OH246554   0.528   3.610  16.531 -0.6554  0.2003 -1.0713
 8380TIP3    H146555   0.476   3.534  16.556 -0.4319  0.0635 -1.0189
 8380TIP3    H246556   0.616   3.591  16.565 -0.5965  0.4746 -1.0687
 8381TIP3   OH246557   1.313   1.998   5.840 -0.7607  0.4631 -0.2873
 8381TIP3    H146558   1.289   2.075   5.891  4.0889  2.1367  0.0492
 8381TIP3    H246559   1.367   1.946   5.899 -1.9826 -2.0500 -1.2549
 8382TIP3   OH246560   1.566   5.311  13.513  0.2339  0.2005  0.0279
 8382TIP3    H146561   1.623   5.288  13.587  1.8511 -0.1941 -1.2707
 8382TIP3    H246562   1.607   5.389  13.475 -1.2305  1.0963  0.1785
 8383TIP3   OH246563   4.957   4.616   0.015  0.1168 -0.0734  0.5207
 8383TIP3    H146564   4.862   4.612   0.007  0.1617 -0.8674  0.2800
 8383TIP3    H246565   4.981   4.700  -0.023 -0.3916 -0.3573 -0.4550
 8384TIP3   OH246566   3.516   3.897   1.682  0.6178 -0.0132 -0.2798
 8384TIP3    H146567   3.548   3.887   1.592  1.9270 -1.9822  0.3342
 8384TIP3    H246568   3.579   3.957   1.722  0.5185  0.2061 -0.4475
 8385TIP3   OH246569   2.812   0.056  12.666 -0.1235 -0.6495 -0.0353
 8385TIP3    H146570   2.901   0.030  12.686 -0.0275  0.2175  0.7784
 8385TIP3    H246571   2.816   0.092  12.578  0.7231  0.9875  0.6145
 8386TIP3   OH246572   3.959   4.972   1.133 -0.2309  0.3085  0.0607
 8386TIP3    H146573   3.980   5.064   1.151  0.6251  0.2991 -0.7968
 8386TIP3    H246574   3.898   4.975   1.059 -1.4288  0.2374  1.0305
 8387TIP3   OH246575   0.715   3.829   2.453  0.1163 -0.4008 -0.4269
 8387TIP3    H146576   0.746   3.838   2.542  0.5742 -2.4524 -0.3275
 8387TIP3    H246577   0.794   3.834   2.399 -0.0285 -0.3028 -0.6325
 8388TIP3   OH246578   1.389   2.307  13.348  0.6042  0.1112  0.6369
 8388TIP3    H146579   1.375   2.320  13.254  2.6973 -0.1041  0.2500
 8388TIP3    H246580   1.475   2.266  13.354  0.5319  0.1605  2.6669
 8389TIP3   OH246581   6.257   6.208   4.605  0.3155  0.3668 -0.4342
 8389TIP3    H146582   6.281   6.151   4.532  0.9493 -2.0661  1.5540
 8389TIP3    H246583   6.235   6.292   4.563  1.3279 -0.6783 -3.3168
 8390TIP3   OH246584   6.063   4.672   5.708 -0.0178 -0.3064  0.5994
 8390TIP3    H146585   6.061   4.714   5.794 -2.1107 -0.1662  0.5349
 8390TIP3    H246586   6.008   4.728   5.653  0.7518 -0.7586 -0.6890
 8391TIP3   OH246587   4.310   0.849  14.652  0.0832 -0.5764 -0.3335
 8391TIP3    H146588   4.223   0.865  14.616 -0.1686 -1.5087 -0.1390
 8391TIP3    H246589   4.296   0.797  14.731  0.7660 -0.0774  0.1331
 8392TIP3   OH246590   6.227   5.336  16.477  0.1143  0.2568  0.4229
 8392TIP3    H146591   6.299   5.306  16.532 -0.6355  0.1948  1.3900
 8392TIP3    H246592   6.263   5.337  16.388  1.3575  0.4174  0.9145
 8393TIP3   OH246593   0.165   3.869   0.153  0.2317  0.2173  0.4738
 8393TIP3    H146594   0.163   3.961   0.126 -0.8571  0.2935  0.7724
 8393TIP3    H246595   0.213   3.825   0.083  0.4524  0.9570  0.1468
 8394TIP3   OH246596   6.291   3.800   3.187  0.2344  0.7352 -0.0551
 8394TIP3    H146597   6.350   3.725   3.182  0.2451  0.6927  0.6127
 8394TIP3    H246598   6.203   3.762   3.193  0.3098  0.7416  1.3328
 8395TIP3   OH246599   4.300   5.922  15.170 -0.7794  0.2318 -0.3648
 8395TIP3    H146600   4.207   5.930  15.150 -0.8172 -1.8245 -1.3037
 8395TIP3    H246601   4.334   5.863  15.102  0.7742 -0.6641  1.1052
 8396TIP3   OH246602   5.230   5.678  16.398 -0.1743  0.0880 -0.1101
 8396TIP3    H146603   5.233   5.599  16.452  1.2968  0.7961  0.8898
 8396TIP3    H246604   5.252   5.749  16.458  3.6278  0.6863 -1.9686
 8397TIP3   OH246605   6.277   3.375  16.870 -0.2075  0.3549 -0.0232
 8397TIP3    H146606   6.302   3.407  16.784  0.0834  0.8301  0.2308
 8397TIP3    H246607   6.223   3.298  16.853  1.2384 -0.5704 -0.5879
 8398TIP3   OH246608   3.613   1.395   4.937 -0.4291 -0.0634 -0.2961
 8398TIP3    H146609   3.645   1.485   4.928 -0.8514  0.1354  0.1337
 8398TIP3    H246610   3.619   1.377   5.030 -0.2142 -0.5382 -0.3983
 8399TIP3   OH246611   0.682   5.445  14.002  0.9623 -0.0629  0.1843
 8399TIP3    H146612   0.632   5.375  13.960  1.3740  0.0179 -0.4533
 8399TIP3    H246613   0.746   5.401  14.057  1.4361 -0.2016 -0.4671
 8400TIP3   OH246614   2.128   2.029  11.196  0.0922  0.2314  0.3648
 8400TIP3    H146615   2.164   1.962  11.139 -1.9987 -2.4317  1.9679
 8400TIP3    H246616   2.052   2.063  11.148 -1.4891 -1.7950  1.3075
 8401TIP3   OH246617   2.227   5.335   6.280 -0.0508  0.4269 -0.0055
 8401TIP3    H146618   2.252   5.243   6.279  0.8821  0.6670 -0.3199
 8401TIP3    H246619   2.230   5.362   6.188 -1.0595  0.5858 -0.0011
 8402TIP3   OH246620   6.318   4.194  11.838 -0.0679  0.3990 -0.1108
 8402TIP3    H146621   6.406   4.231  11.842  0.5572 -1.0693  0.6669
 8402TIP3    H246622   6.315   4.146  11.755 -0.8111  1.9455 -1.0265
 8403TIP3   OH246623   4.868   4.202   2.726  0.7017  0.6794 -0.3389
 8403TIP3    H146624   4.867   4.246   2.811  0.1057 -1.1155  0.6611
 8403TIP3    H246625   4.800   4.245   2.675 -0.1930  0.6221  0.7710
 8404TIP3   OH246626   2.163   2.507   3.043  0.2641 -0.2149  0.1038
 8404TIP3    H146627   2.077   2.468   3.062 -0.7610  2.2740  0.8712
 8404TIP3    H246628   2.226   2.441   3.075 -1.2294 -2.7775 -1.8109
 8405TIP3   OH246629   0.689   3.802   1.031 -0.2959  0.0748 -0.4110
 8405TIP3    H146630   0.768   3.771   0.986  2.0452  0.8853  2.7726
 8405TIP3    H246631   0.647   3.722   1.061  0.3062 -0.3295 -0.6046
 8406TIP3   OH246632   3.769   5.747  11.319 -0.0251  0.4572 -0.1237
 8406TIP3    H146633   3.741   5.765  11.409  2.0984 -1.3417  1.0044
 8406TIP3    H246634   3.740   5.658  11.301  2.4954 -0.5114  0.1614
 8407TIP3   OH246635   3.865   4.210   0.130  0.3910  0.2874 -0.1359
 8407TIP3    H146636   3.831   4.220   0.218 -0.2153  0.0491 -0.3392
 8407TIP3    H246637   3.873   4.116   0.117  0.5715  0.3231 -0.2995
 8408TIP3   OH246638   0.513   2.191  12.362  0.0961  0.8410  0.0433
 8408TIP3    H146639   0.598   2.158  12.392 -0.0905 -0.5288 -0.8680
 8408TIP3    H246640   0.452   2.170  12.432  0.2972  0.8176  0.2111
 8409TIP3   OH246641   4.790   1.001  10.797 -0.4468 -0.1874 -0.8253
 8409TIP3    H146642   4.812   0.990  10.705  0.8800  0.3969 -0.5969
 8409TIP3    H246643   4.854   0.946  10.844 -0.7918 -0.0962 -0.2296
 8410TIP3   OH246644   0.830   0.746   5.951 -0.0242 -0.1969  0.3849
 8410TIP3    H146645   0.899   0.681   5.933 -0.6481 -1.0509  0.9905
 8410TIP3    H246646   0.818   0.791   5.868 -0.9819 -2.2473 -0.6544
 8411TIP3   OH246647   6.242   3.114   1.389  0.0789 -0.0313  0.8729
 8411TIP3    H146648   6.161   3.127   1.340  0.5328  0.3201  0.1975
 8411TIP3    H246649   6.239   3.023   1.418  0.3753 -0.6421 -0.8871
 8412TIP3   OH246650   6.095   5.330  11.794 -0.1816 -0.2231 -0.3603
 8412TIP3    H146651   6.125   5.243  11.820  1.8246  0.3759 -0.5627
 8412TIP3    H246652   6.152   5.355  11.722  0.9917  2.2652  1.2985
 8413TIP3   OH246653   0.442   3.398   3.192 -0.1280 -0.3249  0.2509
 8413TIP3    H146654   0.486   3.431   3.114 -1.0472  2.0164  0.6629
 8413TIP3    H246655   0.509   3.402   3.261  0.1572 -0.6513 -0.0047
 8414TIP3   OH246656   0.582   5.132   4.611  0.3182  0.0469 -0.1219
 8414TIP3    H146657   0.657   5.111   4.556 -0.6392  0.0599 -1.5107
 8414TIP3    H246658   0.606   5.213   4.655  1.1195  0.0441 -0.5390
 8415TIP3   OH246659   4.188   5.495  12.066 -0.2533 -0.1165 -0.2339
 8415TIP3    H146660   4.127   5.508  11.994  1.2250  1.1739 -1.3290
 8415TIP3    H246661   4.141   5.526  12.144 -1.4707 -0.4609 -0.8173
 8416TIP3   OH246662   5.162   0.378   5.279 -0.3663  0.2871 -0.1839
 8416TIP3    H146663   5.181   0.329   5.199 -1.6509 -0.4861 -0.0422
 8416TIP3    H246664   5.089   0.331   5.319 -2.0942  2.6655 -0.3602
 8417TIP3   OH246665   1.544   4.931  11.035 -0.2497 -0.2817  0.3070
 8417TIP3    H146666   1.592   5.013  11.047 -1.2115  0.2215  0.8107
 8417TIP3    H246667   1.542   4.918  10.940  2.0636 -1.0585  0.3000
 8418TIP3   OH246668   4.462   2.888  16.359  0.7798 -0.5905 -0.2312
 8418TIP3    H146669   4.406   2.942  16.416  1.9563 -0.2645  0.6645
 8418TIP3    H246670   4.488   2.947  16.288  1.1161 -0.3085  0.1188
 8419TIP3   OH246671   0.483   5.515   1.217  0.5105 -0.5294 -0.1630
 8419TIP3    H146672   0.456   5.607   1.218  2.4888  0.0856  0.5299
 8419TIP3    H246673   0.575   5.518   1.192  0.7559 -2.2918  0.4517
 8420TIP3   OH246674   4.467   0.435   3.083 -0.0477  0.0169 -0.2904
 8420TIP3    H146675   4.402   0.483   3.031 -1.2703 -0.5572  0.6588
 8420TIP3    H246676   4.464   0.346   3.048  0.0605 -0.0632 -0.0963
 8421TIP3   OH246677   1.759   0.689  15.521  0.0261 -0.3143 -0.3438
 8421TIP3    H146678   1.717   0.706  15.605 -1.1029 -2.1653 -0.4948
 8421TIP3    H246679   1.816   0.765  15.508  0.5837 -0.1757  2.2822
 8422TIP3   OH246680   5.323   6.151  12.025 -0.6931 -0.3957 -0.3056
 8422TIP3    H146681   5.301   6.185  11.938 -0.0301 -0.1832 -0.3966
 8422TIP3    H246682   5.355   6.062  12.008  0.4322  0.0109 -0.4072
 8423TIP3   OH246683   1.856   4.498  14.529 -0.3355 -0.7209 -0.2645
 8423TIP3    H146684   1.930   4.547  14.564 -0.9714 -0.2578  0.4611
 8423TIP3    H246685   1.878   4.486  14.436  0.5845 -0.4869 -0.0910
 8424TIP3   OH246686   3.030   3.062   6.433 -0.0535 -0.1971  0.2860
 8424TIP3    H146687   2.960   3.050   6.497  0.2135  1.4211  0.9276
 8424TIP3    H246688   3.000   3.135   6.378  1.2698  0.7952  0.8225
 8425TIP3   OH246689   0.830   3.396  13.849 -0.2657  0.2126  0.1926
 8425TIP3    H146690   0.922   3.412  13.828  1.1299 -1.3245  4.0738
 8425TIP3    H246691   0.808   3.463  13.913 -1.6530  0.1390 -0.1815
 8426TIP3   OH246692   4.876   3.101   4.256 -0.0272  0.1613 -0.0689
 8426TIP3    H146693   4.867   3.177   4.314 -0.2702 -0.7466  1.1320
 8426TIP3    H246694   4.971   3.095   4.240 -0.1465  1.6671 -1.5340
 8427TIP3   OH246695   1.431   4.942   0.338  0.3203  0.3660 -0.0512
 8427TIP3    H146696   1.345   4.903   0.353 -0.7616  2.6931  0.2558
 8427TIP3    H246697   1.485   4.870   0.305 -1.6195 -1.2522  0.1380
 8428TIP3   OH246698   4.749   3.342  12.801  0.8134  0.7813  0.3868
 8428TIP3    H146699   4.810   3.395  12.852  2.2767  2.0600 -2.4095
 8428TIP3    H246700   4.804   3.299  12.736 -0.9686 -0.3246 -0.4594
 8429TIP3   OH246701   0.412   1.161   1.423  0.1139 -0.2657 -0.2846
 8429TIP3    H146702   0.412   1.106   1.501 -0.0579 -0.9785 -0.7780
 8429TIP3    H246703   0.450   1.106   1.354  0.8449  0.5657 -0.5654
 8430TIP3   OH246704   6.283   3.222  13.333  0.0274  0.0657  0.0051
 8430TIP3    H146705   6.350   3.279  13.372  0.0646 -1.1597  1.8646
 8430TIP3    H246706   6.200   3.257  13.366 -0.2629  1.1310 -1.7066
 8431TIP3   OH246707   2.605   3.853   0.962  0.0869 -0.1238 -0.5815
 8431TIP3    H146708   2.514   3.846   0.935 -0.1850 -0.9662  0.4912
 8431TIP3    H246709   2.609   3.934   1.013 -0.2818 -0.5579  0.1522
 8432TIP3   OH246710   4.234   5.397   6.885 -0.2396 -0.5490 -0.2103
 8432TIP3    H146711   4.167   5.434   6.827 -0.3233  0.3125  0.4223
 8432TIP3    H246712   4.253   5.311   6.847  2.4913  1.4059 -3.8601
 8433TIP3   OH246713   3.493   5.821   2.823 -0.1496  0.0338  0.3932
 8433TIP3    H146714   3.480   5.749   2.762 -0.0917  1.9674 -2.0538
 8433TIP3    H246715   3.414   5.874   2.815  0.7697  1.4477  0.3482
 8434TIP3   OH246716   2.526   4.006   1.681 -0.7088 -0.5942  0.3918
 8434TIP3    H146717   2.462   4.043   1.620  0.8186 -1.3566 -1.7782
 8434TIP3    H246718   2.478   3.997   1.763 -1.9082  3.7822  0.4306
 8435TIP3   OH246719   2.470   3.264  17.000  0.5441  0.0905  0.0998
 8435TIP3    H146720   2.479   3.185  16.947 -2.1979  0.1122 -0.5423
 8435TIP3    H246721   2.411   3.239  17.071  0.7820  1.1989  0.7136
 8436TIP3   OH246722   6.045   1.129   2.288 -0.5900  0.1949 -0.0690
 8436TIP3    H146723   6.044   1.155   2.380 -1.0429 -0.7810  0.2135
 8436TIP3    H246724   6.064   1.210   2.240  1.2525  0.4334  0.9689
 8437TIP3   OH246725   5.924   1.708  15.280  0.2765 -0.6268  0.0624
 8437TIP3    H146726   5.879   1.664  15.207 -0.9611 -0.5350  0.7364
 8437TIP3    H246727   5.978   1.640  15.320  1.7915 -0.4339 -1.5428
 8438TIP3   OH246728   4.869   4.857  16.098 -0.2910 -0.0058 -0.7012
 8438TIP3    H146729   4.938   4.897  16.151  1.6233 -1.9342 -1.5982
 8438TIP3    H246730   4.792   4.912  16.114  0.7373  0.7654  2.3446
 8439TIP3   OH246731   3.932   2.266  13.078 -0.3997 -0.2374 -0.1987
 8439TIP3    H146732   3.910   2.347  13.032 -0.8610 -0.3135 -0.1122
 8439TIP3    H246733   3.954   2.294  13.167  1.2780  0.0030 -0.6628
 8440TIP3   OH246734   4.217   4.393   4.569  0.4552  0.2548  0.1297
 8440TIP3    H146735   4.272   4.364   4.642  0.3594 -0.2708 -0.0040
 8440TIP3    H246736   4.170   4.469   4.603  0.3450 -0.0398  0.6459
 8441TIP3   OH246737   4.621   5.145   5.751  1.0124  1.1172  0.0610
 8441TIP3    H146738   4.598   5.124   5.660 -0.3945 -2.2617  1.0377
 8441TIP3    H246739   4.542   5.187   5.787  0.7601  0.5186  0.2298
 8442TIP3   OH246740   5.127   0.349   4.495  0.3569  0.2630 -0.3967
 8442TIP3    H146741   5.190   0.421   4.487 -1.2115  1.5303 -2.1049
 8442TIP3    H246742   5.091   0.339   4.408 -1.2194 -1.0089  0.3523
 8443TIP3   OH246743   5.026   0.699   5.919 -0.8522 -0.3185 -0.0946
 8443TIP3    H146744   5.081   0.659   5.986 -1.5510  0.6852  1.1393
 8443TIP3    H246745   5.006   0.786   5.954 -0.0810  0.7963 -2.2703
 8444TIP3   OH246746   0.402   6.163  14.737  0.1742 -0.3144 -0.2310
 8444TIP3    H146747   0.435   6.133  14.652  0.6136  0.2228 -0.2596
 8444TIP3    H246748   0.433   6.098  14.799  1.1764  0.0919 -0.2829
 8445TIP3   OH246749   2.732   4.666   2.923  0.2304  0.1637 -0.0192
 8445TIP3    H146750   2.656   4.626   2.964 -0.5908  0.7608 -0.8979
 8445TIP3    H246751   2.807   4.627   2.967 -0.4446 -3.1929 -1.5576
 8446TIP3   OH246752   4.622   2.447   4.751  0.2425 -0.2637  0.4901
 8446TIP3    H146753   4.536   2.477   4.723 -0.4664 -0.5903  2.1953
 8446TIP3    H246754   4.663   2.524   4.791 -0.6705 -0.8685  2.7794
 8447TIP3   OH246755   3.020   3.528  11.792  0.2795  0.4436 -0.8421
 8447TIP3    H146756   3.061   3.565  11.870  0.6119 -0.1600 -0.7208
 8447TIP3    H246757   3.052   3.438  11.789 -0.1306  0.3112 -1.3954
 8448TIP3   OH246758   4.329   5.643  11.680 -0.2174  0.6056  0.1260
 8448TIP3    H146759   4.333   5.694  11.598  0.4468  0.0618 -0.1886
 8448TIP3    H246760   4.402   5.676  11.732 -0.7532  1.0809  0.5864
 8449TIP3   OH246761   6.423   2.698   1.210 -0.7512  0.2733 -0.0489
 8449TIP3    H146762   6.365   2.623   1.200  0.9525 -1.0706 -0.3510
 8449TIP3    H246763   6.439   2.702   1.305 -0.7203  0.1570 -0.0487
 8450TIP3   OH246764   6.107   2.553  16.173 -0.1542  0.0508  0.3944
 8450TIP3    H146765   6.175   2.558  16.106 -0.8506 -0.1685 -0.3354
 8450TIP3    H246766   6.135   2.617  16.239  0.8286 -0.1335  0.1761
 8451TIP3   OH246767   5.008   4.964  12.334 -0.1118 -0.1935 -0.5158
 8451TIP3    H146768   4.986   5.047  12.292  0.1247 -0.7259 -1.7251
 8451TIP3    H246769   4.952   4.961  12.411  0.3586  1.3993 -0.0632
 8452TIP3   OH246770   1.627   6.551   2.324  0.1662  0.5632 -0.0977
 8452TIP3    H146771   1.558   6.538   2.388 -0.7931 -0.3406 -1.2641
 8452TIP3    H246772   1.581   6.578   2.244  1.1159 -0.2907 -0.9744
 8453TIP3   OH246773   5.130   2.618  13.985  0.3820  0.5038 -0.3441
 8453TIP3    H146774   5.111   2.655  14.071  2.7695  2.1277 -0.4224
 8453TIP3    H246775   5.174   2.535  14.004 -0.2476  0.2301 -0.0513
 8454TIP3   OH246776   4.958   3.063   3.338  0.3929 -0.3538 -0.0399
 8454TIP3    H146777   4.872   3.105   3.327 -0.0069 -0.3795  2.4010
 8454TIP3    H246778   5.021   3.131   3.316 -0.2273 -0.1693 -1.3444
 8455TIP3   OH246779   5.052   3.926  14.463 -0.0645  0.7106  0.1330
 8455TIP3    H146780   5.016   3.883  14.540  0.1328  1.3090  0.5646
 8455TIP3    H246781   5.059   4.018  14.487  1.0167  0.7332 -0.2142
 8456TIP3   OH246782   0.089   1.408   4.507  0.2205  0.2909  0.3292
 8456TIP3    H146783   0.163   1.464   4.486 -0.0750  0.7023  0.3864
 8456TIP3    H246784   0.038   1.403   4.426  0.6640 -0.5389  0.0922
 8457TIP3   OH246785   4.216   1.534   5.021 -0.4803  0.4529 -0.0312
 8457TIP3    H146786   4.287   1.590   4.991  0.7087  0.4879  2.5777
 8457TIP3    H246787   4.153   1.534   4.949  0.7607  2.8578 -1.2291
 8458TIP3   OH246788   5.156   5.000  16.743  0.2891 -0.0128  0.0285
 8458TIP3    H146789   5.234   4.966  16.698 -0.1272 -0.9349 -0.0275
 8458TIP3    H246790   5.183   5.012  16.834  1.6449  3.4761 -0.6888
 8459TIP3   OH246791   4.313   4.250   5.499 -0.0050 -0.0794  0.6204
 8459TIP3    H146792   4.320   4.319   5.433  0.6408 -1.1308 -0.4452
 8459TIP3    H246793   4.371   4.181   5.468  0.2581 -0.6403  2.2678
 8460TIP3   OH246794   4.083   0.549  14.942  0.2172  0.1287  0.3109
 8460TIP3    H146795   4.040   0.605  14.877  0.5441  0.0787  0.0484
 8460TIP3    H246796   4.018   0.483  14.964  0.6583 -0.8808 -1.2348
 8461TIP3   OH246797   2.799   4.744  17.043 -0.1044 -0.5754 -0.2318
 8461TIP3    H146798   2.769   4.828  17.077  0.7203 -0.4777  0.2735
 8461TIP3    H246799   2.857   4.767  16.970  0.6446 -0.6758  0.3244
 8462TIP3   OH246800   3.598   2.707  13.523  0.4557 -0.2206 -0.1297
 8462TIP3    H146801   3.580   2.642  13.455 -1.5644  0.5950 -0.4566
 8462TIP3    H246802   3.558   2.670  13.602 -0.1712  0.3130 -0.1817
 8463TIP3   OH246803   0.060   0.446  15.041  0.3801 -0.0223 -0.1366
 8463TIP3    H146804   0.023   0.514  15.097  0.2999  0.4447 -0.7410
 8463TIP3    H246805   0.122   0.400  15.097 -0.4706 -0.2592  0.6363
 8464TIP3   OH246806   0.238   4.424   0.729 -0.4445 -0.5198 -0.5239
 8464TIP3    H146807   0.243   4.355   0.664 -0.4042 -1.8991  0.8811
 8464TIP3    H246808   0.329   4.438   0.756 -0.5673 -0.7597  0.0271
 8465TIP3   OH246809   3.719   6.625  14.219  0.6023  0.0550 -0.3062
 8465TIP3    H146810   3.666   6.654  14.293 -0.3091  0.0124 -0.9351
 8465TIP3    H246811   3.784   6.566  14.257 -0.7707 -1.1258  0.2560
 8466TIP3   OH246812   6.354   1.218  11.845  0.2545  0.0849 -0.3614
 8466TIP3    H146813   6.273   1.268  11.857 -1.3749 -2.6327  1.2292
 8466TIP3    H246814   6.334   1.159  11.772  0.7419 -0.6602  0.0975
 8467TIP3   OH246815   2.158   1.750  14.177  0.2229 -0.3771 -0.2886
 8467TIP3    H146816   2.115   1.682  14.228 -0.5772 -0.2360 -0.7466
 8467TIP3    H246817   2.240   1.711  14.148  0.6309 -0.4916  0.9931
 8468TIP3   OH246818   6.483   0.218   4.432 -0.1835  0.1218  0.0007
 8468TIP3    H146819   6.564   0.214   4.381 -1.2371 -0.8527 -1.7040
 8468TIP3    H246820   6.439   0.297   4.400 -0.9633 -0.6271 -0.8565
 8469TIP3   OH246821   6.692   1.580  12.883  0.0508  0.1983  0.0219
 8469TIP3    H146822   6.763   1.574  12.948  1.0389 -1.9587 -1.1354
 8469TIP3    H246823   6.734   1.557  12.800 -2.1603 -2.2806 -0.5503
 8470TIP3   OH246824   4.799   1.876   0.557  0.4587  0.5542 -0.2338
 8470TIP3    H146825   4.728   1.882   0.622 -0.2529 -1.1262 -0.8171
 8470TIP3    H246826   4.879   1.870   0.610 -0.0265  0.1705  0.4658
 8471TIP3   OH246827   2.331   4.557   1.928 -0.1371  0.0436  0.3223
 8471TIP3    H146828   2.258   4.571   1.988 -0.6029  1.8075 -0.5860
 8471TIP3    H246829   2.307   4.478   1.879 -1.9638  1.1113 -0.6249
 8472TIP3   OH246830   5.577   4.349  12.059  0.7034 -0.5439  0.2663
 8472TIP3    H146831   5.571   4.293  12.137 -1.2683  0.6662  1.0635
 8472TIP3    H246832   5.626   4.297  11.996  1.5352 -1.9545  1.9798
 8473TIP3   OH246833   4.152   4.233  15.979 -0.0939 -0.7323 -0.1615
 8473TIP3    H146834   4.078   4.173  15.982 -0.4323 -0.3748 -1.0585
 8473TIP3    H246835   4.169   4.255  16.071 -0.7578 -1.2213  0.0855
 8474TIP3   OH246836   2.849   6.670   3.168 -0.1655  0.7261 -0.1698
 8474TIP3    H146837   2.912   6.636   3.230  0.5347  0.2066 -1.1380
 8474TIP3    H246838   2.774   6.696   3.221  0.1306 -0.3523  0.8168
 8475TIP3   OH246839   2.814   4.047   2.779  0.0956 -0.3027 -0.3998
 8475TIP3    H146840   2.778   4.135   2.791  1.0566  0.2899 -1.6306
 8475TIP3    H246841   2.739   3.994   2.754 -0.7169 -0.1293  1.4911
 8476TIP3   OH246842   6.269   3.969   4.483 -0.0401 -0.0257  0.4127
 8476TIP3    H146843   6.204   4.033   4.511 -0.1610 -0.3146  0.8047
 8476TIP3    H246844   6.352   4.016   4.490 -0.0882 -0.0182  1.0660
 8477TIP3   OH246845   1.889   5.515   5.642 -0.0755  0.2278 -0.1882
 8477TIP3    H146846   1.895   5.591   5.700  1.3976 -0.8511  1.1688
 8477TIP3    H246847   1.892   5.440   5.701 -0.9824 -0.9095 -1.5209
 8478TIP3   OH246848   5.335   6.220   2.631  0.3623  0.1603 -0.3982
 8478TIP3    H146849   5.352   6.244   2.722  1.0148 -1.3026 -0.1071
 8478TIP3    H246850   5.288   6.295   2.595 -1.9899 -0.1330  1.7713
 8479TIP3   OH246851   0.221   1.145  11.381 -0.1101  0.2373  0.2079
 8479TIP3    H146852   0.227   1.056  11.415  2.8476  0.2293 -0.0618
 8479TIP3    H246853   0.239   1.201  11.457 -0.1396  0.5159  0.0104
 8480TIP3   OH246854   2.270   1.588   2.749 -0.3557 -0.4876  0.6613
 8480TIP3    H146855   2.283   1.499   2.716  0.6864 -0.3046  0.5342
 8480TIP3    H246856   2.322   1.643   2.691 -1.3550  0.2745  0.4639
 8481TIP3   OH246857   5.730   3.423   1.577 -0.2280  0.0981  0.4669
 8481TIP3    H146858   5.805   3.369   1.553  0.2126  0.7873  0.2641
 8481TIP3    H246859   5.654   3.365   1.567 -0.1446  0.3939 -2.9653
 8482TIP3   OH246860   1.195   1.565  16.086 -0.4035 -0.0240 -0.1662
 8482TIP3    H146861   1.171   1.472  16.084 -0.6383  0.0383 -0.3564
 8482TIP3    H246862   1.200   1.586  16.179 -1.8518  0.1455 -0.0972
 8483TIP3   OH246863   3.863   2.734  12.849 -0.0247  0.2151  0.3002
 8483TIP3    H146864   3.819   2.775  12.924  2.1765  2.1259  0.6697
 8483TIP3    H246865   3.883   2.808  12.791  1.4168 -0.7518 -0.4775
 8484TIP3   OH246866   6.374   0.444   0.823 -0.6610 -0.4611 -0.1577
 8484TIP3    H146867   6.317   0.521   0.814  1.0984  0.9400  0.0755
 8484TIP3    H246868   6.357   0.392   0.745 -3.7384 -1.1993  0.8675
 8485TIP3   OH246869   1.892   0.087  13.896  0.5432 -0.2127 -0.6213
 8485TIP3    H146870   1.963   0.072  13.959 -0.5236  1.1944  1.0043
 8485TIP3    H246871   1.829   0.017  13.914  0.6203 -0.3098 -0.7244
 8486TIP3   OH246872   5.289   0.242   0.330 -0.2301 -0.6146 -0.2455
 8486TIP3    H146873   5.270   0.261   0.422 -0.9201  0.4733 -0.5972
 8486TIP3    H246874   5.384   0.246   0.324 -0.2405  0.8800  0.1190
 8487TIP3   OH246875   1.841   3.090   1.536 -0.3202 -0.0211  0.1084
 8487TIP3    H146876   1.865   3.046   1.617 -1.4204 -0.4456  0.2184
 8487TIP3    H246877   1.763   3.141   1.558  0.6674  1.6622 -0.1325
 8488TIP3   OH246878   2.271   2.046  13.985 -0.2675  0.3397 -0.2559
 8488TIP3    H146879   2.254   2.069  14.076  0.1410  0.0326 -0.0987
 8488TIP3    H246880   2.203   2.092  13.935  0.2191  1.4933  0.0907
 8489TIP3   OH246881   2.650   6.099  14.727 -0.1921 -0.5040  0.0481
 8489TIP3    H146882   2.649   6.097  14.631 -0.2781 -0.0736  0.0388
 8489TIP3    H246883   2.718   6.037  14.752 -1.3573 -1.9635 -0.2477
 8490TIP3   OH246884   2.869   3.189   5.010 -0.0884 -0.2447 -0.7462
 8490TIP3    H146885   2.853   3.236   5.092 -0.7586 -1.0676 -0.3821
 8490TIP3    H246886   2.853   3.097   5.033 -1.3573 -0.3765 -2.0662
 8491TIP3   OH246887   0.210   4.112   0.080  0.0132 -0.4105  0.4259
 8491TIP3    H146888   0.302   4.094   0.101  0.8254  1.7647 -0.9153
 8491TIP3    H246889   0.211   4.200   0.042 -2.5653 -0.5588 -0.1643
 8492TIP3   OH246890   6.748   5.096  13.907  0.0615  0.0924  0.3990
 8492TIP3    H146891   6.793   5.014  13.888  1.3626  0.8713  0.0282
 8492TIP3    H246892   6.816   5.154  13.942 -0.9694  0.8012  1.3326
 8493TIP3   OH246893   4.857   5.630   0.883 -0.4881  0.3399  0.4124
 8493TIP3    H146894   4.910   5.659   0.809  0.5601 -2.8858 -0.2727
 8493TIP3    H246895   4.910   5.648   0.960  0.0110  0.4521  0.0477
 8494TIP3   OH246896   5.215   4.782   4.330  0.0672  0.3259 -0.1179
 8494TIP3    H146897   5.151   4.743   4.389 -0.6256  0.7577 -0.5638
 8494TIP3    H246898   5.294   4.729   4.340 -0.3532 -0.1884  0.4709
 8495TIP3   OH246899   6.056   0.700   4.013  0.9831 -0.4086  0.4687
 8495TIP3    H146900   6.010   0.762   4.070 -0.0622  1.0486 -1.8062
 8495TIP3    H246901   6.027   0.614   4.043 -2.0738  0.4004  0.2098
 8496TIP3   OH246902   3.049   0.295   3.951 -0.3061 -0.1104  0.0539
 8496TIP3    H146903   3.062   0.290   4.046  1.3578 -0.8345 -0.1729
 8496TIP3    H246904   3.055   0.389   3.932  0.2842 -0.0371  0.5574
 8497TIP3   OH246905   5.861   6.665  16.467 -0.6074  0.1398 -0.1133
 8497TIP3    H146906   5.936   6.614  16.435  0.5551  1.1763  0.8438
 8497TIP3    H246907   5.851   6.735  16.401  0.3954  1.0002  0.6105
 8498TIP3   OH246908   2.201   5.584  12.118 -0.2960  0.5675  0.1802
 8498TIP3    H146909   2.231   5.505  12.163  0.9035 -0.1737 -1.7796
 8498TIP3    H246910   2.281   5.627  12.089 -0.9569  2.2319  0.6924
 8499TIP3   OH246911   0.306   5.504   5.155 -0.5140 -0.4779  0.2437
 8499TIP3    H146912   0.335   5.438   5.218 -2.4803 -1.9328 -0.2787
 8499TIP3    H246913   0.286   5.455   5.076  2.2598  1.3456 -1.7711
 8500TIP3   OH246914   6.771   4.456   4.563  0.2067  0.0664 -0.5160
 8500TIP3    H146915   6.766   4.397   4.638 -0.7174  3.2048  2.1515
 8500TIP3    H246916   6.682   4.457   4.527 -0.6217  1.8315  1.3182
 8501TIP3   OH246917   5.155   3.493  10.980  0.1491 -0.5431  0.0435
 8501TIP3    H146918   5.084   3.528  10.926  0.0417 -0.6288  0.1280
 8501TIP3    H246919   5.125   3.405  11.004  0.7031 -0.9541 -0.7164
 8502TIP3   OH246920   0.782   1.486  11.365 -0.1894  0.3942 -0.5037
 8502TIP3    H146921   0.706   1.481  11.423  0.5223  1.1518  0.5472
 8502TIP3    H246922   0.853   1.516  11.422  0.9260 -0.3965 -1.4270
 8503TIP3   OH246923   3.359   3.829   6.478  0.0887 -0.2907 -0.1073
 8503TIP3    H146924   3.304   3.885   6.534  0.5593 -0.9404  1.0342
 8503TIP3    H246925   3.296   3.780   6.425 -0.3631  0.4697 -0.2972
 8504TIP3   OH246926   4.464   4.460  12.613  0.2099  0.1813  0.5805
 8504TIP3    H146927   4.373   4.462  12.584 -0.0102  2.9993  1.1829
 8504TIP3    H246928   4.478   4.545  12.655  2.8714 -0.5252  1.3366
 8505TIP3   OH246929   5.826   5.257  12.149 -0.3408  0.9238 -0.6423
 8505TIP3    H146930   5.895   5.307  12.106  0.2314 -1.7549 -3.1048
 8505TIP3    H246931   5.756   5.250  12.084  0.1760 -2.5114 -1.0199
 8506TIP3   OH246932   0.832   4.380   2.768  0.3037 -0.0632  0.4714
 8506TIP3    H146933   0.833   4.308   2.831  1.7480 -0.4076  0.0935
 8506TIP3    H246934   0.822   4.338   2.683  1.2493  0.1439  0.2420
 8507TIP3   OH246935   1.070   5.684  14.911 -0.2510  0.4346  0.3299
 8507TIP3    H146936   1.078   5.618  14.842 -0.1863  1.2805 -0.5038
 8507TIP3    H246937   0.978   5.679  14.938 -0.6621  1.0417 -0.8430
 8508TIP3   OH246938   5.368   4.123  12.835 -0.3469 -0.1629  0.0993
 8508TIP3    H146939   5.384   4.211  12.868  2.6811 -0.6115  0.1340
 8508TIP3    H246940   5.436   4.110  12.769 -3.0290 -1.1679 -2.7371
 8509TIP3   OH246941   0.009   0.718   2.483  0.4425  0.9535 -0.1182
 8509TIP3    H146942  -0.084   0.710   2.464  0.4295  0.5515  0.0875
 8509TIP3    H246943   0.033   0.633   2.521  1.3964  0.2213 -2.2184
 8510TIP3   OH246944   0.905   5.841   2.195  0.8258  0.4588  0.6484
 8510TIP3    H146945   0.885   5.749   2.214 -0.9986  0.8708  0.9238
 8510TIP3    H246946   0.997   5.840   2.169  0.2214 -1.8031 -1.8269
 8511TIP3   OH246947   5.444   6.299   6.051 -0.1670  0.3878 -0.4627
 8511TIP3    H146948   5.413   6.209   6.039 -0.3038  0.5717 -1.5212
 8511TIP3    H246949   5.365   6.352   6.052 -0.1200  0.4574  0.6646
 8512TIP3   OH246950   6.291   3.813  16.571  0.5310  0.1602  0.3146
 8512TIP3    H146951   6.386   3.813  16.579  0.5978  0.5882 -0.3882
 8512TIP3    H246952   6.263   3.736  16.620  1.4875 -1.7989 -1.9695
 8513TIP3   OH246953   4.977   3.825  12.406  0.0769 -0.7955 -0.0662
 8513TIP3    H146954   5.007   3.759  12.469  2.2113  0.8493  0.7888
 8513TIP3    H246955   4.981   3.907  12.455  0.1385  0.3166 -1.8725
 8514TIP3   OH246956   4.863   4.968  11.774 -0.6517 -0.4054  0.7947
 8514TIP3    H146957   4.847   5.053  11.815 -2.8356 -1.2889  1.9461
 8514TIP3    H246958   4.796   4.962  11.705 -0.8982 -1.4184  1.1121
 8515TIP3   OH246959   1.804   0.276  15.240  0.0692  0.1822 -0.0158
 8515TIP3    H146960   1.735   0.289  15.175  0.4738  0.3454 -0.4173
 8515TIP3    H246961   1.802   0.356  15.293 -1.1369 -0.4926  1.0247
 8516TIP3   OH246962   3.608   3.800  13.174 -0.3588  0.5243  0.0332
 8516TIP3    H146963   3.590   3.746  13.251 -0.9270  1.5265  0.6216
 8516TIP3    H246964   3.590   3.742  13.100 -1.5143  0.0596  0.6422
 8517TIP3   OH246965   5.538   4.041  12.644 -0.3111 -0.0528 -0.6561
 8517TIP3    H146966   5.518   4.040  12.550  1.4758 -0.9657 -1.0781
 8517TIP3    H246967   5.554   3.949  12.665  0.4430  0.2807  0.2674
 8518TIP3   OH246968   2.440   2.583  11.619  0.1723 -0.5186 -0.4773
 8518TIP3    H146969   2.508   2.516  11.617 -0.6919 -1.4218 -0.9058
 8518TIP3    H246970   2.424   2.598  11.712  1.4075  0.1925 -0.3708
 8519TIP3   OH246971   0.004   4.101  11.204  0.0541 -0.0208  0.0567
 8519TIP3    H146972  -0.059   4.109  11.133  0.9464  0.8896 -0.6574
 8519TIP3    H246973   0.058   4.026  11.180  0.1480  0.0822 -0.0508
 8520TIP3   OH246974   0.364   1.811  16.891 -0.3299  0.6793  0.0463
 8520TIP3    H146975   0.304   1.862  16.946 -0.9128 -0.9269  0.9661
 8520TIP3    H246976   0.435   1.786  16.950 -0.7538 -0.7132 -0.0036
 8521TIP3   OH246977   5.189   0.254  13.930 -0.1775 -0.2291 -0.2381
 8521TIP3    H146978   5.209   0.257  13.836 -1.4595 -0.5012 -0.5524
 8521TIP3    H246979   5.093   0.259  13.934 -0.0621  1.8375  1.1770
 8522TIP3   OH246980   1.802   2.744   2.884  0.3935 -0.6838  0.1215
 8522TIP3    H146981   1.834   2.692   2.958  0.4097  0.1037  0.6861
 8522TIP3    H246982   1.734   2.800   2.922  0.4810 -0.1907 -0.4313
 8523TIP3   OH246983   3.338   0.265  14.948  0.2723 -0.2983  0.2101
 8523TIP3    H146984   3.322   0.171  14.947 -0.4917 -0.1914  0.8829
 8523TIP3    H246985   3.258   0.302  14.986  1.2888  0.4749  1.6822
 8524TIP3   OH246986   0.969   0.291   2.834  0.7807  0.1033  0.0157
 8524TIP3    H146987   0.904   0.280   2.765 -0.5019  0.2110  1.1552
 8524TIP3    H246988   0.995   0.383   2.828  0.5154  0.1658 -0.1985
 8525TIP3   OH246989   4.616   6.243   2.169  0.1711 -0.3567  0.3020
 8525TIP3    H146990   4.583   6.329   2.141  1.4530  0.6476  1.6992
 8525TIP3    H246991   4.539   6.187   2.171 -0.4509  0.2489 -2.3348
 8526TIP3   OH246992   2.672   5.280  11.137 -0.2225 -0.3478 -0.7336
 8526TIP3    H146993   2.707   5.368  11.150  0.0526 -0.4588 -0.7129
 8526TIP3    H246994   2.577   5.290  11.144 -0.2074 -0.0078 -0.9966
 8527TIP3   OH246995   6.362   5.377  13.475 -0.2206  0.5940  0.7112
 8527TIP3    H146996   6.403   5.462  13.460 -0.4750  0.8740  1.5568
 8527TIP3    H246997   6.352   5.340  13.388 -0.1340  1.4404  0.3301
 8528TIP3   OH246998   2.896   3.762   4.024  0.4810  0.2766 -0.0247
 8528TIP3    H146999   2.944   3.717   3.955 -0.3006 -0.4049 -0.1379
 8528TIP3    H247000   2.964   3.808   4.074  1.3198 -0.9652  0.0492
 8529TIP3   OH247001   4.765   5.450   1.448  0.0149  0.6544  0.1015
 8529TIP3    H147002   4.834   5.514   1.465  1.0198 -0.4984  0.4023
 8529TIP3    H247003   4.760   5.398   1.528 -0.0788 -0.3100 -0.5173
 8530TIP3   OH247004   3.243   6.483   1.431  0.2586  0.1002 -0.6878
 8530TIP3    H147005   3.259   6.513   1.521  0.4131 -0.6517 -0.4541
 8530TIP3    H247006   3.188   6.551   1.393 -1.9478 -0.7338  0.7859
 8531TIP3   OH247007   2.064   3.957  14.374  0.4927 -0.0753 -0.0725
 8531TIP3    H147008   2.158   3.944  14.385  0.4278 -0.6022 -0.1299
 8531TIP3    H247009   2.028   3.869  14.362 -0.1248  0.0251  0.8661
 8532TIP3   OH247010   2.425   5.770  15.960 -0.8224 -0.0008 -0.6236
 8532TIP3    H147011   2.458   5.716  16.032  0.7678 -0.2826 -1.5304
 8532TIP3    H247012   2.331   5.752  15.958 -0.6007 -1.3767  0.2207
 8533TIP3   OH247013   6.618   3.117   0.988  0.5810  0.1302 -0.2957
 8533TIP3    H147014   6.529   3.148   0.971  0.8371  0.3540 -1.2897
 8533TIP3    H247015   6.612   3.071   1.073 -0.1579  1.4050  0.3667
 8534TIP3   OH247016   3.776   0.288  11.679  0.0785  0.0753  0.0601
 8534TIP3    H147017   3.784   0.374  11.721 -2.6117  0.3700  0.1141
 8534TIP3    H247018   3.708   0.243  11.728  0.0446 -1.3404 -1.2065
 8535TIP3   OH247019   4.650   2.253  15.338 -0.3222  0.2480 -0.0490
 8535TIP3    H147020   4.704   2.309  15.283 -0.4002  0.5347  0.1651
 8535TIP3    H247021   4.626   2.308  15.413 -1.2949  0.2772 -0.3719
 8536TIP3   OH247022   2.952   1.428  16.806  0.1886  0.4565  0.8924
 8536TIP3    H147023   2.948   1.513  16.851  0.2425  0.7102  0.4295
 8536TIP3    H247024   2.919   1.365  16.870 -1.3225  1.0356  0.7217
 8537TIP3   OH247025   4.734   0.207   5.863 -0.2004 -0.6472 -0.7977
 8537TIP3    H147026   4.740   0.292   5.822 -1.9084  0.4454  1.0043
 8537TIP3    H247027   4.820   0.167   5.851  0.7808  1.5089 -1.2776
 8538TIP3   OH247028   4.371   1.739  11.089 -0.4578 -0.2600 -0.6187
 8538TIP3    H147029   4.415   1.791  11.022  0.5283 -0.5414 -0.1992
 8538TIP3    H247030   4.384   1.648  11.061 -5.0086 -0.4151 -3.2127
 8539TIP3   OH247031   5.625   4.103   3.550 -0.2966  0.3888  0.2125
 8539TIP3    H147032   5.649   4.070   3.463 -0.6060 -0.3656  0.4006
 8539TIP3    H247033   5.532   4.125   3.542  0.0486  1.8155 -0.0776
 8540TIP3   OH247034   2.038   5.815   1.885 -0.4513  0.0558 -0.0932
 8540TIP3    H147035   2.119   5.825   1.835 -0.8047  0.6531 -0.5587
 8540TIP3    H247036   2.062   5.841   1.974 -0.4597  1.7002 -0.5272
 8541TIP3   OH247037   0.046   4.659  17.052 -0.4627 -0.3788 -0.3203
 8541TIP3    H147038  -0.019   4.726  17.031 -1.3972 -1.3244 -0.5824
 8541TIP3    H247039  -0.006   4.581  17.072  0.4326 -0.2209  3.2984
 8542TIP3   OH247040   4.555   2.857   5.911  0.6394 -0.1864 -0.2053
 8542TIP3    H147041   4.629   2.821   5.863  0.8333 -0.0787  0.0113
 8542TIP3    H247042   4.525   2.786   5.967 -0.7389 -0.9117 -1.7924
 8543TIP3   OH247043   5.524   3.288   0.204 -0.0859  0.0860 -0.3144
 8543TIP3    H147044   5.591   3.264   0.268  0.8055 -2.1054 -1.9285
 8543TIP3    H247045   5.551   3.374   0.172  1.0733 -0.0780  0.1867
 8544TIP3   OH247046   4.757   6.714  12.436 -0.5306 -0.3906  0.3304
 8544TIP3    H147047   4.763   6.619  12.441  1.3826 -0.3551 -0.5668
 8544TIP3    H247048   4.804   6.737  12.356 -1.8301  1.2549 -0.0277
 8545TIP3   OH247049   5.843   3.405  13.156 -0.1347  0.4207 -0.3971
 8545TIP3    H147050   5.871   3.315  13.171  0.1320  0.8173  1.8721
 8545TIP3    H247051   5.756   3.411  13.197 -0.6643  0.9169 -1.5412
 8546TIP3   OH247052   3.404   6.684   5.100  0.3961 -0.1887  0.1070
 8546TIP3    H147053   3.434   6.690   5.190  0.4098  1.8310  0.0040
 8546TIP3    H247054   3.341   6.756   5.090 -0.2315 -0.8742 -1.2664
 8547TIP3   OH247055   5.545   6.720   0.019 -0.1693 -1.1040  0.0086
 8547TIP3    H147056   5.601   6.649  -0.011  0.7722  0.0428 -1.0012
 8547TIP3    H247057   5.570   6.734   0.111  0.5238 -1.2366 -0.1599
 8548TIP3   OH247058   0.686   4.089  13.137  0.0488  0.3559  0.4420
 8548TIP3    H147059   0.677   4.012  13.192  2.4302  0.3766  0.9889
 8548TIP3    H247060   0.727   4.057  13.056 -0.0429  0.8584  0.1904
 8549TIP3   OH247061   2.797   5.040  13.392  0.5320 -0.1751  0.3393
 8549TIP3    H147062   2.802   5.131  13.423 -1.7213  0.3831 -0.7111
 8549TIP3    H247063   2.713   5.008  13.424  0.0767 -0.9839 -1.5003
 8550TIP3   OH247064   5.415   4.636  15.606  0.1615 -0.1404 -0.1011
 8550TIP3    H147065   5.407   4.568  15.673  1.0707  0.5913  0.7844
 8550TIP3    H247066   5.428   4.588  15.524  1.6849 -1.0470  0.6292
 8551TIP3   OH247067   6.359   5.012   3.819 -0.2438 -0.0752  0.4907
 8551TIP3    H147068   6.271   4.975   3.823 -0.8337  1.3227  1.6009
 8551TIP3    H247069   6.416   4.943   3.854 -1.1905 -0.2384  1.7749
 8552TIP3   OH247070   4.835   6.078   1.976  0.2335  0.8028  0.2204
 8552TIP3    H147071   4.930   6.085   1.976  0.4522 -1.4355  1.4024
 8552TIP3    H247072   4.807   6.132   2.050  0.5804  1.3149 -0.0139
 8553TIP3   OH247073   3.743   1.796  13.212 -0.1045 -0.2497  0.2474
 8553TIP3    H147074   3.821   1.775  13.264 -0.2731  0.6375  0.8879
 8553TIP3    H247075   3.756   1.750  13.129  1.9169  1.1870 -0.3072
 8554TIP3   OH247076   1.972   3.418   2.574  0.5141 -0.1227  0.1273
 8554TIP3    H147077   1.975   3.485   2.506 -0.5838  0.6147  0.7775
 8554TIP3    H247078   1.915   3.350   2.539  0.3049  0.0496  0.1342
 8555TIP3   OH247079   1.775   4.942   4.876 -1.0630 -0.2157  0.0596
 8555TIP3    H147080   1.683   4.954   4.853 -0.9525  0.4041 -0.0705
 8555TIP3    H247081   1.773   4.911   4.966 -1.3449  2.1073  0.9259
 8556TIP3   OH247082   2.435   0.734   4.413 -0.4471  0.1000  0.2270
 8556TIP3    H147083   2.446   0.761   4.504 -0.3314 -1.3768  0.6673
 8556TIP3    H247084   2.411   0.642   4.417  1.0927 -0.4265 -1.2847
 8557TIP3   OH247085   3.321   5.595   1.797  0.2027  0.0938 -0.4927
 8557TIP3    H147086   3.270   5.514   1.791  0.4220 -0.0688 -0.2331
 8557TIP3    H247087   3.306   5.640   1.714 -2.1347  1.1234  0.4138
 8558TIP3   OH247088   6.486   5.339   2.545  0.5392  0.0531 -0.0646
 8558TIP3    H147089   6.548   5.278   2.585 -0.6463 -0.9100  0.3337
 8558TIP3    H247090   6.538   5.386   2.479  1.8763 -0.1853  0.7750
 8559TIP3   OH247091   5.065   0.969  14.164  0.6972 -0.0911  0.3112
 8559TIP3    H147092   5.139   0.976  14.224  2.9703  1.0897 -2.4202
 8559TIP3    H247093   5.098   0.917  14.091 -1.3642  0.0172 -0.7670
 8560TIP3   OH247094   5.556   0.622   4.287  0.5096 -0.1513  0.0829
 8560TIP3    H147095   5.599   0.694   4.242  0.4442  0.7641  1.4280
 8560TIP3    H247096   5.548   0.553   4.221  0.6609  1.0283 -1.1942
 8561TIP3   OH247097   2.717   3.885   1.282 -0.5553 -0.0799  0.4827
 8561TIP3    H147098   2.686   3.950   1.219 -1.5679  0.2634  1.3076
 8561TIP3    H247099   2.638   3.840   1.311 -0.4186  1.1508  3.0254
 8562TIP3   OH247100   4.671   2.329   2.394  0.0175  0.3042  0.0200
 8562TIP3    H147101   4.733   2.266   2.357 -0.9183 -0.0847 -0.9608
 8562TIP3    H247102   4.661   2.302   2.485 -1.0790 -1.6072 -0.6122
 8563TIP3   OH247103   6.729   6.564  14.424  0.3249 -0.1319 -0.3066
 8563TIP3    H147104   6.721   6.469  14.435  0.2636 -0.2230 -1.0904
 8563TIP3    H247105   6.644   6.592  14.393 -0.1473  0.4218  1.3903
 8564TIP3   OH247106   6.145   0.552  17.066  0.7022 -0.1335  0.2194
 8564TIP3    H147107   6.179   0.624  17.119  1.2721 -1.5093  1.7939
 8564TIP3    H247108   6.192   0.559  16.983  0.2554  1.6876  0.0789
 8565TIP3   OH247109   0.406   5.840   2.966 -0.3664 -0.1936  0.3211
 8565TIP3    H147110   0.430   5.784   2.892 -0.3748 -0.0189  0.1852
 8565TIP3    H247111   0.377   5.779   3.034 -2.7677 -0.2911 -0.6742
 8566TIP3   OH247112   3.076   0.076   1.569 -0.2212  0.6638  0.1545
 8566TIP3    H147113   3.168   0.051   1.576  0.0887  1.8174  0.4233
 8566TIP3    H247114   3.038   0.012   1.509  0.4306 -0.6601  1.0985
 8567TIP3   OH247115   0.618   1.495  14.876  0.1629  0.0917 -0.5850
 8567TIP3    H147116   0.610   1.584  14.912 -0.9222  0.2348 -1.1309
 8567TIP3    H247117   0.696   1.498  14.822 -1.0355  1.3791 -2.3592
 8568TIP3   OH247118   4.928   1.530  10.082 -0.2363 -0.3438  0.1914
 8568TIP3    H147119   4.884   1.482  10.152  0.6415  2.7583  3.1437
 8568TIP3    H247120   5.022   1.516  10.099 -0.0064  0.6681 -0.1879
 8569TIP3   OH247121   1.982   5.391  16.516  0.2167  0.2554  0.1497
 8569TIP3    H147122   1.974   5.424  16.606  1.6898 -0.3910  0.5458
 8569TIP3    H247123   1.956   5.465  16.461  0.0716  0.9246  1.0937
 8570TIP3   OH247124   3.950   4.042   0.732 -0.2476  0.1538  0.0850
 8570TIP3    H147125   3.983   3.952   0.732  2.4708  1.0479 -0.4504
 8570TIP3    H247126   3.904   4.050   0.816  0.2901 -1.4583  0.5755
 8571TIP3   OH247127   3.533   0.746  12.586  0.6360 -0.5094 -0.6659
 8571TIP3    H147128   3.469   0.797  12.537  0.8187 -0.9188 -1.3493
 8571TIP3    H247129   3.609   0.740  12.528  1.1420 -0.3768 -0.0286
 8572TIP3   OH247130   5.884   2.819  11.135  0.1516 -0.0395  0.6581
 8572TIP3    H147131   5.865   2.812  11.228  1.9579  0.8652  1.1572
 8572TIP3    H247132   5.802   2.847  11.095 -0.7191 -0.7063  1.9316
 8573TIP3   OH247133   3.299   0.003  14.718 -0.2712  0.0184 -0.2978
 8573TIP3    H147134   3.221   0.055  14.739  1.2865  1.7771  1.4913
 8573TIP3    H247135   3.296  -0.008  14.623 -1.3700  2.2861 -0.5728
 8574TIP3   OH247136   3.239   5.999   4.948 -0.1104 -0.3747  0.3353
 8574TIP3    H147137   3.167   5.941   4.920 -1.2269  0.6557  0.9799
 8574TIP3    H247138   3.202   6.087   4.943 -0.0860 -0.0158  3.9617
 8575TIP3   OH247139   4.638   3.776  13.942 -0.2625  0.8586  0.3628
 8575TIP3    H147140   4.649   3.681  13.952 -0.4436  0.9637  1.6837
 8575TIP3    H247141   4.721   3.813  13.971 -0.3255  1.1308  0.2013
 8576TIP3   OH247142   2.362   6.134  16.048  0.0763 -0.4139 -0.1508
 8576TIP3    H147143   2.279   6.086  16.041  0.2200 -0.4821 -1.7401
 8576TIP3    H247144   2.369   6.156  16.141 -0.9634 -1.7482  0.2799
 8577TIP3   OH247145   6.126   4.584  16.670  0.2342 -0.2024  0.2583
 8577TIP3    H147146   6.036   4.563  16.645  0.1689 -0.6603  0.8578
 8577TIP3    H247147   6.164   4.624  16.592 -0.2318 -0.7793 -0.2745
 8578TIP3   OH247148   2.936   2.173  11.615 -0.8850  0.7071 -0.3984
 8578TIP3    H147149   2.891   2.189  11.698  0.2417  1.8032  0.0341
 8578TIP3    H247150   2.897   2.236  11.554 -0.5477  1.0612 -0.2506
 8579TIP3   OH247151   3.524   4.081   2.931 -0.2249  0.0297  0.1573
 8579TIP3    H147152   3.601   4.110   2.884  0.4771  1.6537  2.1637
 8579TIP3    H247153   3.516   3.988   2.909  2.8854 -0.4469  0.6425
 8580TIP3   OH247154   2.460   4.881   2.238 -0.0928  0.0156  0.1024
 8580TIP3    H147155   2.368   4.881   2.267  0.0701 -2.0083  0.7949
 8580TIP3    H247156   2.459   4.931   2.157 -1.3373  2.2614  1.3941
 8581TIP3   OH247157   0.516   1.600   5.841 -0.2947 -0.8104 -0.5801
 8581TIP3    H147158   0.547   1.690   5.831 -2.2558 -0.1355 -1.0594
 8581TIP3    H247159   0.563   1.551   5.773  1.1179 -0.2700 -0.0314
 8582TIP3   OH247160   1.814   5.512  11.218 -0.3031  0.0105 -0.2960
 8582TIP3    H147161   1.781   5.497  11.130  0.5538 -0.6897 -0.5044
 8582TIP3    H247162   1.898   5.555  11.206 -0.0168 -0.4026  0.1610
 8583TIP3   OH247163   2.572   6.210   0.915  0.0488  0.4624  0.2959
 8583TIP3    H147164   2.497   6.257   0.878  0.1455  0.9482  0.7005
 8583TIP3    H247165   2.561   6.219   1.010 -1.3449 -2.5245  0.5376
 8584TIP3   OH247166   1.311   5.004  11.895 -0.0057 -0.1413 -0.5133
 8584TIP3    H147167   1.291   4.921  11.851 -0.1995  0.7005 -2.1181
 8584TIP3    H247168   1.390   4.986  11.946  0.7813 -0.9779 -1.9616
 8585TIP3   OH247169   2.580   0.167  14.018 -0.7910  0.7408  0.4078
 8585TIP3    H147170   2.607   0.259  14.014  2.3885 -0.0412  1.0228
 8585TIP3    H247171   2.521   0.162  14.094 -2.0284  2.4258 -0.3850
 8586TIP3   OH247172   0.797   2.561   3.316 -0.1918 -0.1053 -0.0705
 8586TIP3    H147173   0.745   2.635   3.347 -2.0325 -1.3542  0.0460
 8586TIP3    H247174   0.876   2.562   3.369 -1.3603  0.2682  1.7661
 8587TIP3   OH247175   2.345   5.780   3.387  0.3013 -0.4618  0.0729
 8587TIP3    H147176   2.304   5.849   3.335  1.5094  0.4166  0.2430
 8587TIP3    H247177   2.433   5.813   3.405  0.4701 -1.4872  1.2527
 8588TIP3   OH247178   0.962   0.503   1.111 -0.1484 -0.1020 -0.3318
 8588TIP3    H147179   0.978   0.474   1.021 -0.7183 -0.7048 -0.2378
 8588TIP3    H247180   0.903   0.578   1.102  0.5601  0.4575 -0.5080
 8589TIP3   OH247181   5.610   5.828  11.384 -0.1590 -0.2512  0.8646
 8589TIP3    H147182   5.581   5.793  11.300 -0.3636  0.9499  0.4047
 8589TIP3    H247183   5.649   5.754  11.429 -1.2225 -1.2264  0.2509
 8590TIP3   OH247184   5.996   3.221   2.541  0.3210 -0.4519 -0.8598
 8590TIP3    H147185   5.958   3.308   2.528  0.3460 -0.2338  0.4074
 8590TIP3    H247186   6.055   3.209   2.467 -0.5727  0.1022 -1.6931
 8591TIP3   OH247187   2.486   6.107   5.552  0.0930  0.1662  0.4211
 8591TIP3    H147188   2.500   6.123   5.645  0.8716  0.7998  0.2015
 8591TIP3    H247189   2.412   6.046   5.550 -1.0776  1.4909  1.3911
 8592TIP3   OH247190   1.958   3.448   0.656  0.7264  0.9403 -0.1259
 8592TIP3    H147191   1.946   3.356   0.632  1.6684  1.6187 -3.7044
 8592TIP3    H247192   1.869   3.482   0.664  0.3587 -0.2300  1.4052
 8593TIP3   OH247193   3.893   3.701   3.989 -0.4450 -0.1722  0.0998
 8593TIP3    H147194   3.938   3.774   4.032 -0.1508 -0.5998  0.5413
 8593TIP3    H247195   3.802   3.728   3.984 -0.1756  0.6159 -0.6034
 8594TIP3   OH247196   1.476   4.142  16.598 -0.3439 -0.6751  0.0925
 8594TIP3    H147197   1.527   4.220  16.574 -0.9851 -0.2231  0.1898
 8594TIP3    H247198   1.445   4.107  16.514 -0.0834 -0.8150  0.0517
 8595TIP3   OH247199   5.488   3.376  11.746  0.6199  0.1696 -0.8743
 8595TIP3    H147200   5.493   3.305  11.683  1.3001 -0.1931 -0.4293
 8595TIP3    H247201   5.524   3.452  11.700  1.4027 -0.1661 -0.8339
 8596TIP3   OH247202   6.564   4.676  15.031 -0.1491  0.1546 -0.3817
 8596TIP3    H147203   6.521   4.591  15.038 -0.0987  0.2578  1.5584
 8596TIP3    H247204   6.650   4.663  15.072 -0.3239  1.2421  0.3711
 8597TIP3   OH247205   5.199   0.460   0.143  0.2047 -0.0107  0.0160
 8597TIP3    H147206   5.226   0.461   0.052  0.6385 -0.8448  0.1221
 8597TIP3    H247207   5.257   0.395   0.184 -0.4800 -0.1833  0.7229
 8598TIP3   OH247208   2.285   2.346   1.600 -0.2622  0.6545  0.0942
 8598TIP3    H147209   2.199   2.355   1.640 -0.5805 -3.0812  0.5973
 8598TIP3    H247210   2.320   2.265   1.637  1.8581  0.0360 -2.9302
 8599TIP3   OH247211   2.484   0.665  16.569 -0.0080 -0.0825  0.2224
 8599TIP3    H147212   2.413   0.604  16.592  1.9160 -1.9239  1.7333
 8599TIP3    H247213   2.483   0.730  16.639 -0.3738  0.0507  0.0944
 8600TIP3   OH247214   2.212   2.424  11.502 -0.6011 -0.2702 -0.0614
 8600TIP3    H147215   2.255   2.471  11.574 -0.4888  0.4571 -0.5871
 8600TIP3    H247216   2.283   2.378  11.458 -0.8645 -1.9031  1.1333
 8601TIP3   OH247217   5.251   6.602   0.975  0.8277  0.1078  0.1560
 8601TIP3    H147218   5.279   6.528   0.922 -1.0712 -0.1448 -0.5537
 8601TIP3    H247219   5.331   6.630   1.021  2.1002 -0.8470 -1.3752
 8602TIP3   OH247220   4.614   0.798  10.273 -0.0396  0.1781  0.0344
 8602TIP3    H147221   4.580   0.847  10.348  0.5860  1.0085 -0.2208
 8602TIP3    H247222   4.587   0.848  10.196  3.2725  1.9695 -0.1511
 8603TIP3   OH247223   3.488   6.248  11.018  0.2158 -0.4817 -0.0265
 8603TIP3    H147224   3.537   6.330  11.018  0.2506 -0.4999  0.3218
 8603TIP3    H247225   3.449   6.243  10.931 -0.8378  0.5344  0.3673
 8604TIP3   OH247226   4.315   3.404   2.346 -0.6224 -0.1618  0.1013
 8604TIP3    H147227   4.406   3.417   2.373 -0.2278  0.4140 -1.3923
 8604TIP3    H247228   4.270   3.375   2.425  1.0390 -1.3172  0.6613
 8605TIP3   OH247229   4.395   2.991   5.681 -0.0669  0.1878  0.0026
 8605TIP3    H147230   4.327   2.927   5.658 -0.1891  0.4574 -0.4074
 8605TIP3    H247231   4.458   2.942   5.733 -0.4881 -0.1101  0.2363
 8606TIP3   OH247232   5.688   0.592   2.348  0.5511 -0.4115 -0.2374
 8606TIP3    H147233   5.623   0.525   2.367  0.8013 -1.1894 -1.9573
 8606TIP3    H247234   5.767   0.562   2.393  0.4475 -0.8542 -0.3479
 8607TIP3   OH247235   0.992   1.043   6.210  0.0094  0.0976  0.3314
 8607TIP3    H147236   0.904   1.008   6.219 -0.1194  0.4766  0.5556
 8607TIP3    H247237   1.006   1.046   6.115 -0.2831  0.2009  0.2904
 8608TIP3   OH247238   0.981   3.280   0.927 -0.2937 -0.1296  0.5054
 8608TIP3    H147239   1.016   3.290   0.838  1.2013 -0.6152  1.0118
 8608TIP3    H247240   0.929   3.200   0.924 -1.1428  0.4328 -0.1899
 8609TIP3   OH247241   5.854   1.130   6.057 -0.3395 -0.4806  0.1383
 8609TIP3    H147242   5.895   1.046   6.039 -0.6450 -0.9947  1.6714
 8609TIP3    H247243   5.913   1.195   6.019 -0.9915 -1.4128 -2.7033
 8610TIP3   OH247244   0.473   0.161   5.891  0.5248 -0.1471 -0.0193
 8610TIP3    H147245   0.533   0.107   5.941 -0.3255 -0.1151  1.0885
 8610TIP3    H247246   0.395   0.106   5.880  0.5459 -0.0004 -0.9651
 8611TIP3   OH247247   4.934   2.603   5.587  0.3425  0.3489 -0.1623
 8611TIP3    H147248   5.029   2.612   5.595  0.3844  0.5368 -0.7901
 8611TIP3    H247249   4.923   2.528   5.528  0.0507 -1.4225  2.0254
 8612TIP3   OH247250   0.897   2.590  15.802  0.2074  0.0717 -0.1455
 8612TIP3    H147251   0.954   2.658  15.838 -0.9349  0.7770  0.3968
 8612TIP3    H247252   0.945   2.509  15.815  0.8151  0.5718  0.8924
 8613TIP3   OH247253   3.680   4.190  15.558  0.7916 -0.3734  0.4596
 8613TIP3    H147254   3.705   4.124  15.493  2.1650  0.3295  0.2338
 8613TIP3    H247255   3.761   4.209  15.606  0.5562  1.4734  0.2030
 8614TIP3   OH247256   5.395   3.425  12.823  0.0179  0.0809  0.4248
 8614TIP3    H147257   5.358   3.401  12.908 -2.3787  2.9315  0.3581
 8614TIP3    H247258   5.321   3.419  12.763  1.0559  0.6048 -0.9448
 8615TIP3   OH247259   0.068   4.805   5.972  0.4176  0.2942 -0.1124
 8615TIP3    H147260   0.077   4.898   5.950 -0.1237  0.6861  1.2523
 8615TIP3    H247261   0.024   4.804   6.057  1.1446 -1.1981  0.2779
 8616TIP3   OH247262   5.672   5.027  17.018 -0.3368  0.0169  0.3684
 8616TIP3    H147263   5.727   5.035  17.096  1.1423  0.0413 -0.6309
 8616TIP3    H247264   5.615   4.952  17.036  0.5572 -0.5005  1.1473
 8617TIP3   OH247265   3.225   0.445   4.472  0.0063 -0.2973 -0.0801
 8617TIP3    H147266   3.178   0.484   4.398 -1.2558  2.1017  1.8478
 8617TIP3    H247267   3.189   0.356   4.479  0.5125 -0.7954 -2.5362
 8618TIP3   OH247268   0.242   6.145   3.177  0.0743  0.5949  0.1608
 8618TIP3    H147269   0.203   6.187   3.254 -1.3950  0.4900 -0.4925
 8618TIP3    H247270   0.334   6.134   3.199  0.2622  3.0313  0.8643
 8619TIP3   OH247271   4.782   1.317  13.103 -0.3804  0.4553  0.1720
 8619TIP3    H147272   4.809   1.384  13.040 -0.6610  0.5821  0.1865
 8619TIP3    H247273   4.688   1.305  13.087 -0.5912  0.9286  0.9634
 8620TIP3   OH247274   5.042   2.697   3.460 -0.8720  0.8068 -0.8637
 8620TIP3    H147275   5.037   2.777   3.512  0.7237 -0.0551  0.7012
 8620TIP3    H247276   4.986   2.635   3.507 -1.9508  0.9094 -1.9656
 8621TIP3   OH247277   4.517   2.080  11.689 -0.1828  0.0559 -0.4648
 8621TIP3    H147278   4.570   2.000  11.697 -0.0403  0.2551  0.6511
 8621TIP3    H247279   4.467   2.067  11.608  1.3774 -0.2423 -1.4173
 8622TIP3   OH247280   0.845   3.154   1.304  0.8903 -0.3492  0.0722
 8622TIP3    H147281   0.842   3.082   1.367  1.6544  0.5078  1.1297
 8622TIP3    H247282   0.858   3.232   1.358  0.2519  0.5673 -1.0598
 8623TIP3   OH247283   4.811   3.159   0.285 -0.8112 -0.2370  0.6112
 8623TIP3    H147284   4.740   3.116   0.237 -0.9101  2.3338 -1.8301
 8623TIP3    H247285   4.889   3.145   0.232  0.3831 -2.0844  2.7044
 8624TIP3   OH247286   3.343   6.399   2.625 -0.3188  0.4517 -0.0991
 8624TIP3    H147287   3.403   6.468   2.655  0.6506 -0.7142  0.7500
 8624TIP3    H247288   3.285   6.384   2.699  0.0338 -0.2310  0.0458
 8625TIP3   OH247289   2.374   2.857   5.402  0.0989  0.5423 -0.6845
 8625TIP3    H147290   2.320   2.922   5.358  1.1046  2.7261  1.1301
 8625TIP3    H247291   2.372   2.883   5.494  2.7363 -0.4064 -0.2877
 8626TIP3   OH247292   5.198   3.537  11.634 -0.2274  0.3870 -0.0066
 8626TIP3    H147293   5.260   3.474  11.596  1.6505  1.5910  0.9257
 8626TIP3    H247294   5.133   3.550  11.566  0.3757 -1.1493 -0.9311
 8627TIP3   OH247295   0.325   1.680  11.352 -0.1769  0.1586  0.3974
 8627TIP3    H147296   0.286   1.703  11.436  0.0653 -0.3619  0.6511
 8627TIP3    H247297   0.250   1.671  11.292 -0.4575 -0.9080  0.8942
 8628TIP3   OH247298   2.928   5.800  11.917  0.1936  0.1100  0.5786
 8628TIP3    H147299   2.933   5.775  11.825  2.2065  0.3042  0.5972
 8628TIP3    H247300   2.949   5.720  11.966  2.5405  0.7304  0.7286
 8629TIP3   OH247301   6.613   0.189  12.397 -0.0612  0.1066 -0.3378
 8629TIP3    H147302   6.559   0.213  12.472 -0.4434  0.4721 -0.7200
 8629TIP3    H247303   6.596   0.096  12.383 -0.8142  0.2797 -0.6199
 8630TIP3   OH247304   6.771   4.814  15.967 -0.1182  0.8052 -0.3137
 8630TIP3    H147305   6.817   4.896  15.949  2.0970 -0.1972  0.4427
 8630TIP3    H247306   6.827   4.746  15.930 -1.3613 -0.4723  0.0305
 8631TIP3   OH247307   1.321   6.718   1.813  0.2691  0.4083 -0.7936
 8631TIP3    H147308   1.360   6.635   1.840  1.1536  0.4195 -1.9774
 8631TIP3    H247309   1.369   6.743   1.734 -0.5646  1.6178 -0.9460
 8632TIP3   OH247310   4.040   3.480  13.058 -0.3925 -0.3069 -0.8396
 8632TIP3    H147311   4.129   3.514  13.057 -0.5146  0.0658  0.1079
 8632TIP3    H247312   3.988   3.545  13.011 -0.7870  1.3571  1.7183
 8633TIP3   OH247313   6.208   0.471   3.116  0.6863 -0.4476  0.1940
 8633TIP3    H147314   6.235   0.437   3.032  2.0112  2.5899 -0.7696
 8633TIP3    H247315   6.112   0.476   3.111  0.8116  1.5238 -2.0375
 8634TIP3   OH247316   4.994   4.670  12.219  0.0499  0.3060  0.0271
 8634TIP3    H147317   4.982   4.679  12.313 -3.3941 -1.2672 -0.0818
 8634TIP3    H247318   4.927   4.606  12.193  1.1594  0.3560 -3.4286
 8635TIP3   OH247319   1.876   6.554  15.520  0.0500  0.6266 -0.7154
 8635TIP3    H147320   1.910   6.617  15.457  3.4717  0.6433  0.9102
 8635TIP3    H247321   1.865   6.473  15.470 -0.7029  1.5060 -2.0154
 8636TIP3   OH247322   5.170   2.468  16.312  0.0083 -0.3357  0.3598
 8636TIP3    H147323   5.183   2.497  16.402 -0.5794 -1.1614  0.7342
 8636TIP3    H247324   5.144   2.546  16.264 -1.2180 -0.1663  1.2595
 8637TIP3   OH247325   1.380   6.463   1.535  0.0449  0.8606 -0.4025
 8637TIP3    H147326   1.468   6.471   1.499 -0.0449  1.3489 -0.5182
 8637TIP3    H247327   1.360   6.549   1.571 -0.2785  0.6739 -0.1305
 8638TIP3   OH247328   4.777   4.123  12.392  0.2052 -0.5018  0.7101
 8638TIP3    H147329   4.690   4.155  12.418 -0.1226  0.7877 -1.7068
 8638TIP3    H247330   4.816   4.093  12.474 -2.1280 -0.1989  2.0366
 8639TIP3   OH247331   0.458   5.011   3.550  0.0314  0.2741 -0.1591
 8639TIP3    H147332   0.505   4.963   3.481 -0.9041  0.5239 -0.9956
 8639TIP3    H247333   0.479   5.103   3.534 -1.0188  0.4215 -0.7800
 8640TIP3   OH247334   6.264   1.560   4.809  0.1077 -0.1474 -0.5515
 8640TIP3    H147335   6.234   1.637   4.761 -3.2051  0.1571  1.6933
 8640TIP3    H247336   6.318   1.595   4.880 -1.5570  0.2118  0.5841
 8641TIP3   OH247337   4.369   5.778  12.349  0.7556 -0.1648  0.5489
 8641TIP3    H147338   4.389   5.842  12.418  1.3728 -0.9754  1.1408
 8641TIP3    H247339   4.303   5.821  12.294  0.9389  0.8527  1.1135
 8642TIP3   OH247340   2.904   2.014   5.080 -0.1169 -0.3324  0.3987
 8642TIP3    H147341   2.873   2.033   5.169 -0.0981  0.4695  0.2448
 8642TIP3    H247342   2.901   1.919   5.073 -0.5578 -0.3787  1.1051
 8643TIP3   OH247343   3.364   2.095  12.269 -0.3133 -0.0313  0.3173
 8643TIP3    H147344   3.292   2.147  12.233  0.0774  0.6985  0.5754
 8643TIP3    H247345   3.344   2.005  12.243 -2.3131 -0.1246  1.9976
 8644TIP3   OH247346   3.959   0.028  16.527 -0.1664  0.0656  0.0591
 8644TIP3    H147347   3.918  -0.032  16.465 -1.7683  1.1747 -0.0290
 8644TIP3    H247348   3.913   0.111  16.514  1.7681  1.2498  0.3804
 8645TIP3   OH247349   1.709   6.759  10.946  0.1541 -0.1137 -0.0718
 8645TIP3    H147350   1.700   6.683  11.003  2.2423 -0.1842  0.2336
 8645TIP3    H247351   1.774   6.733  10.881  0.9262  1.4212  0.0534
 8646TIP3   OH247352   1.320   0.877   2.670  0.5367  0.2208 -0.0995
 8646TIP3    H147353   1.330   0.817   2.744  1.6514 -1.1055 -1.2780
 8646TIP3    H247354   1.358   0.831   2.595 -0.1444  1.7023 -1.4314
 8647TIP3   OH247355   2.734   1.282  15.130  0.5032 -0.0047  0.2705
 8647TIP3    H147356   2.712   1.233  15.209  0.6029  0.0487  0.3319
 8647TIP3    H247357   2.674   1.249  15.063 -0.9185  1.2855  0.8430
 8648TIP3   OH247358   6.438   2.299  13.533  0.1954 -0.6866 -0.1647
 8648TIP3    H147359   6.531   2.314  13.547 -0.1952  1.0446  0.9266
 8648TIP3    H247360   6.429   2.283  13.439  1.3041  1.8846 -0.7919
 8649TIP3   OH247361   2.519   5.003  15.373 -0.0269 -0.0761 -0.8708
 8649TIP3    H147362   2.508   5.085  15.421  1.1929  0.8626 -2.1320
 8649TIP3    H247363   2.565   5.028  15.293 -0.6655 -1.8223 -1.8338
 8650TIP3   OH247364   6.535   6.009  12.648  0.1157 -0.0411  0.4360
 8650TIP3    H147365   6.491   5.924  12.649 -1.3953  0.5589  4.2894
 8650TIP3    H247366   6.604   6.000  12.713 -0.2429  1.6912  1.1075
 8651TIP3   OH247367   2.518   0.267  14.281 -0.0203 -0.2401 -0.4217
 8651TIP3    H147368   2.551   0.348  14.321  1.0217 -0.9179  0.1348
 8651TIP3    H247369   2.505   0.207  14.354 -0.1620 -0.7979 -0.8959
 8652TIP3   OH247370   1.215   4.163   1.283 -0.5469 -0.1913 -0.1833
 8652TIP3    H147371   1.181   4.073   1.281  1.5042 -1.0137 -1.5291
 8652TIP3    H247372   1.310   4.152   1.276 -0.3105  2.1115 -1.2756
 8653TIP3   OH247373   1.448   2.832  11.247  0.0588  0.6332 -0.2086
 8653TIP3    H147374   1.365   2.854  11.204 -0.5396 -0.0833  0.5553
 8653TIP3    H247375   1.422   2.799  11.333  1.1753  0.9842  0.2784
 8654TIP3   OH247376   2.117   4.235   0.696  0.2499 -0.0920 -0.0584
 8654TIP3    H147377   2.129   4.299   0.626  1.9739 -1.8473 -1.4705
 8654TIP3    H247378   2.071   4.162   0.655  0.4208 -0.7427  0.8775
 8655TIP3   OH247379   5.461   1.691   6.080 -0.1275 -0.3451  0.1344
 8655TIP3    H147380   5.413   1.610   6.097 -2.4508  0.7483 -0.8513
 8655TIP3    H247381   5.445   1.746   6.157 -1.7404  0.5572 -0.7907
 8656TIP3   OH247382   5.360   2.933   3.332 -0.3902  0.2857 -0.3243
 8656TIP3    H147383   5.375   2.843   3.303 -0.8550  0.1894 -0.2605
 8656TIP3    H247384   5.265   2.944   3.332 -0.5747 -0.3532  3.0246
 8657TIP3   OH247385   4.891   2.139  11.141 -0.3677  0.1058  0.6195
 8657TIP3    H147386   4.884   2.204  11.211  0.9149 -0.2443  1.1089
 8657TIP3    H247387   4.869   2.186  11.061 -3.3903  0.1723  1.3650
 8658TIP3   OH247388   1.057   3.783   5.737 -0.2438  0.4906 -0.1406
 8658TIP3    H147389   1.030   3.692   5.736  1.5782 -0.0989 -0.6531
 8658TIP3    H247390   1.076   3.802   5.829  0.7615 -0.1225 -0.2061
 8659TIP3   OH247391   1.805   5.127   5.392 -0.1442 -1.7101 -0.1663
 8659TIP3    H147392   1.765   5.202   5.347 -0.4451 -1.9768 -0.3432
 8659TIP3    H247393   1.812   5.155   5.483  0.9470 -0.9673 -0.4542
 8660TIP3   OH247394   1.706   2.813  12.564  0.2104  0.4603 -0.0685
 8660TIP3    H147395   1.764   2.864  12.507  1.7988  0.1858  1.2237
 8660TIP3    H247396   1.664   2.877  12.620  0.8078  0.5336  0.3138
 8661TIP3   OH247397   5.519   3.034   5.730  0.4728 -0.6402  0.1622
 8661TIP3    H147398   5.428   3.058   5.747  0.6561  0.1176  0.1059
 8661TIP3    H247399   5.532   2.954   5.780  0.3387  0.2919  1.7501
 8662TIP3   OH247400   5.137   2.029   0.352  0.0351 -0.0528  0.0200
 8662TIP3    H147401   5.118   1.990   0.267 -1.0578  0.1860  0.1371
 8662TIP3    H247402   5.053   2.028   0.398  0.6218 -0.2360  1.1233
 8663TIP3   OH247403   0.336   3.267   1.036  0.0698  0.5442  0.3759
 8663TIP3    H147404   0.369   3.198   0.979  0.8261  0.0078  1.4183
 8663TIP3    H247405   0.393   3.342   1.018 -0.7399  0.9198 -0.7424
 8664TIP3   OH247406   3.494   3.494   5.499 -0.5603 -0.1048 -0.0601
 8664TIP3    H147407   3.490   3.586   5.475 -0.0854 -0.2442 -0.6962
 8664TIP3    H247408   3.423   3.483   5.563  0.1902  0.9668  0.9990
 8665TIP3   OH247409   2.877   1.543   5.502  0.1827 -0.0019  0.2493
 8665TIP3    H147410   2.849   1.488   5.429 -0.2252  0.5252 -0.0015
 8665TIP3    H247411   2.872   1.485   5.578 -0.1194 -0.3479 -0.0266
 8666TIP3   OH247412   4.291   3.193   5.477 -0.2094 -0.3459 -0.0717
 8666TIP3    H147413   4.313   3.118   5.533 -0.9604  0.9683  2.0826
 8666TIP3    H247414   4.195   3.194   5.476 -0.2673  1.7104  1.6024
 8667TIP3   OH247415   0.069   0.695   5.116  0.3548 -0.3023 -0.5093
 8667TIP3    H147416   0.011   0.770   5.102  0.8490 -0.1025 -1.5992
 8667TIP3    H247417   0.117   0.717   5.196  0.8347  0.7695 -1.0745
 8668TIP3   OH247418   1.563   4.690   4.641  0.0287  0.4568 -0.2267
 8668TIP3    H147419   1.578   4.762   4.702  0.6742 -0.1588  0.3631
 8668TIP3    H247420   1.617   4.619   4.675  1.5932  0.5442 -2.3361
 8669TIP3   OH247421   3.127   0.432  16.906  0.0423 -0.2451  0.6811
 8669TIP3    H147422   3.157   0.438  16.997 -0.4593 -0.2234  0.8454
 8669TIP3    H247423   3.112   0.523  16.880  0.0504 -0.2614  0.6216
 8670TIP3   OH247424   6.125   2.037   2.010 -0.4952 -0.1056  0.2784
 8670TIP3    H147425   6.148   1.945   2.004 -0.8449 -0.1243 -0.9865
 8670TIP3    H247426   6.036   2.037   2.046 -0.8537 -0.3201 -0.5816
 8671TIP3   OH247427   2.270   2.764   3.891  0.0341  0.3081  0.6172
 8671TIP3    H147428   2.306   2.720   3.968 -0.2290  0.1412  0.6490
 8671TIP3    H247429   2.199   2.706   3.862  0.3746  0.1894  0.0256
 8672TIP3   OH247430   0.381   6.291  14.991 -0.0613  0.3280 -0.1319
 8672TIP3    H147431   0.462   6.305  15.041  0.0874  0.6240 -0.4533
 8672TIP3    H247432   0.317   6.264  15.057  0.3272 -0.0152  0.1099
 8673TIP3   OH247433   3.290   4.305  16.726  0.0311 -0.1664  0.0639
 8673TIP3    H147434   3.229   4.332  16.795 -2.7315  0.6019 -2.4627
 8673TIP3    H247435   3.265   4.215  16.706  1.0807 -0.5182  0.2680
 8674TIP3   OH247436   4.067   5.958  10.755 -0.3490  0.1468 -0.5268
 8674TIP3    H147437   4.089   5.909  10.676 -1.8010  1.8764 -2.0849
 8674TIP3    H247438   4.134   6.026  10.760 -0.2881  0.0710 -0.2789
 8675TIP3   OH247439   2.949   5.607  14.339  0.0905 -0.5627  0.1161
 8675TIP3    H147440   2.879   5.589  14.276  0.2445  1.4057 -0.6968
 8675TIP3    H247441   3.029   5.608  14.285  0.5925 -1.4882  0.8185
 8676TIP3   OH247442   5.972   6.127  14.336  0.0356 -0.0537 -0.3767
 8676TIP3    H147443   6.022   6.059  14.291 -0.1068 -0.0266 -0.5760
 8676TIP3    H247444   6.005   6.209  14.300  0.2890 -0.0102 -0.0517
 8677TIP3   OH247445   5.845   3.946   5.445  0.4066  0.6244 -0.2610
 8677TIP3    H147446   5.848   3.851   5.461 -0.5381  0.4593 -0.9240
 8677TIP3    H247447   5.896   3.984   5.516  0.0275 -0.3276  0.5546
 8678TIP3   OH247448   6.420   1.009  16.153 -0.1622 -0.5940  0.1840
 8678TIP3    H147449   6.393   0.982  16.066  1.5846  0.3102 -0.6886
 8678TIP3    H247450   6.418   0.928  16.205 -0.7746 -1.2382 -0.8094
 8679TIP3   OH247451   4.649   5.190  13.765  0.3486  0.0398 -0.0301
 8679TIP3    H147452   4.622   5.232  13.847  1.4132  0.7960 -0.0512
 8679TIP3    H247453   4.667   5.099  13.790 -0.2044  0.0341  0.3806
 8680TIP3   OH247454   2.630   0.807  15.182 -0.4953  0.4636 -0.4226
 8680TIP3    H147455   2.691   0.871  15.145  0.3633  0.3100  0.6609
 8680TIP3    H247456   2.661   0.794  15.272 -1.4257 -0.5142 -0.2239
 8681TIP3   OH247457   2.839   5.736   4.250 -0.6332 -0.1947  0.0970
 8681TIP3    H147458   2.879   5.822   4.241  0.0299 -0.5222 -0.1223
 8681TIP3    H247459   2.803   5.735   4.339  0.2357 -0.0595  0.4563
 8682TIP3   OH247460   0.403   5.760   5.136 -0.5522 -0.4131 -0.2717
 8682TIP3    H147461   0.424   5.763   5.229 -1.0603 -0.9626 -0.1325
 8682TIP3    H247462   0.352   5.680   5.125 -2.4872  0.7896 -0.6035
 8683TIP3   OH247463   1.463   2.880  11.803  0.6792  0.3687  0.1169
 8683TIP3    H147464   1.505   2.795  11.807  0.7999  0.4608  0.9246
 8683TIP3    H247465   1.402   2.881  11.877 -0.7317  0.2529 -0.9898
 8684TIP3   OH247466   1.089   1.603   2.531 -0.0315  0.1983  0.1418
 8684TIP3    H147467   1.093   1.659   2.454  1.2779 -0.3811 -0.2364
 8684TIP3    H247468   1.155   1.535   2.516 -0.4521 -0.5180  1.3156
 8685TIP3   OH247469   4.260   3.632   5.096 -0.0568 -0.4584  0.2344
 8685TIP3    H147470   4.218   3.604   5.015 -1.0619  0.9322  0.2341
 8685TIP3    H247471   4.349   3.657   5.070  0.4500 -2.3324  0.0259
 8686TIP3   OH247472   1.917   4.820  12.212 -0.3004 -0.2537  0.3770
 8686TIP3    H147473   1.910   4.727  12.190 -2.1579 -0.1984  0.5671
 8686TIP3    H247474   1.845   4.836  12.274  0.8768  1.0016  1.4962
 8687TIP3   OH247475   4.596   5.940   1.240  0.6361 -0.2293  0.5401
 8687TIP3    H147476   4.616   5.847   1.254 -1.9619 -0.8503  0.7035
 8687TIP3    H247477   4.656   5.987   1.298  1.0385 -1.8884  1.5305
 8688TIP3   OH247478   5.646   1.187  13.362  0.2573  0.0581 -0.2687
 8688TIP3    H147479   5.723   1.151  13.405  0.4736  1.4180  0.5715
 8688TIP3    H247480   5.660   1.282  13.365 -1.8609  0.3972  0.7493
 8689TIP3   OH247481   3.168   6.284   5.433 -0.0175  0.8525  0.1681
 8689TIP3    H147482   3.115   6.322   5.503 -0.2371  0.4508  0.2198
 8689TIP3    H247483   3.164   6.190   5.448 -0.5827  0.7165 -0.7511
 8690TIP3   OH247484   0.907   1.137  10.470 -0.0509  0.4708  0.1480
 8690TIP3    H147485   0.947   1.224  10.483 -2.9999  1.9117  0.5320
 8690TIP3    H247486   0.815   1.150  10.493 -1.0518 -2.2871 -1.8508
 8691TIP3   OH247487   0.845   5.784  13.179 -0.1121 -0.0605  0.5299
 8691TIP3    H147488   0.793   5.795  13.099  1.2803  0.1894 -0.3685
 8691TIP3    H247489   0.906   5.713  13.158 -0.0822 -0.3541  1.5734
 8692TIP3   OH247490   6.488   3.263   2.906  0.5673  0.6834  0.7973
 8692TIP3    H147491   6.520   3.174   2.921  0.8260  1.0632  2.8029
 8692TIP3    H247492   6.474   3.268   2.812  0.9630 -1.3355  0.5878
 8693TIP3   OH247493   5.238   0.939  12.249 -0.1105  0.2847  0.1696
 8693TIP3    H147494   5.150   0.937  12.210 -1.4610  0.3056  2.9820
 8693TIP3    H247495   5.265   1.031  12.240 -0.8063  0.4973  0.1735
 8694TIP3   OH247496   3.559   6.491  11.830  0.1344  0.1984  0.2309
 8694TIP3    H147497   3.642   6.465  11.870  1.5913 -0.0660 -2.7601
 8694TIP3    H247498   3.494   6.475  11.899  2.6091  1.6187  3.1521
 8695TIP3   OH247499   0.516   1.069   5.415 -0.4195 -0.0203 -0.3416
 8695TIP3    H147500   0.433   1.116   5.406 -1.6870 -2.2246 -0.9762
 8695TIP3    H247501   0.516   1.007   5.342  1.6342 -0.3431 -0.1313
 8696TIP3   OH247502   5.187   6.019  12.262  0.1037  0.7564  0.5446
 8696TIP3    H147503   5.092   6.030  12.252 -0.1694  1.9840  3.4956
 8696TIP3    H247504   5.224   6.064  12.186 -1.5805 -2.5671 -2.5561
 8697TIP3   OH247505   0.540   6.753  16.513  0.4287 -0.1769  0.5471
 8697TIP3    H147506   0.466   6.814  16.515 -1.9273 -2.8010 -0.7398
 8697TIP3    H247507   0.606   6.797  16.460 -0.7652  1.6352  0.4894
 8698TIP3   OH247508   3.452   4.935  16.890  0.1404 -0.2479 -0.4717
 8698TIP3    H147509   3.479   4.886  16.968 -0.5742 -0.4714 -0.3517
 8698TIP3    H247510   3.468   4.874  16.818  0.2279 -0.2688 -0.4358
 8699TIP3   OH247511   4.881   2.596  14.948 -0.0851  0.7095 -0.7513
 8699TIP3    H147512   4.963   2.643  14.958  0.4832 -0.3143 -0.4338
 8699TIP3    H247513   4.907   2.507  14.923 -1.0943  0.4030 -0.7714
 8700TIP3   OH247514   2.900   4.487  13.198  0.7668 -0.4446 -0.1344
 8700TIP3    H147515   2.891   4.504  13.292  0.3753 -0.3157 -0.1958
 8700TIP3    H247516   2.891   4.393  13.189  1.6642 -0.5595  0.0561
 8701TIP3   OH247517   6.529   0.121  14.775 -0.0706 -0.3431  0.1631
 8701TIP3    H147518   6.534   0.186  14.706 -0.3197 -0.5500 -0.0515
 8701TIP3    H247519   6.566   0.164  14.852  0.5613 -0.2388 -0.1933
 8702TIP3   OH247520   3.382   0.913   1.969  0.6208 -0.2157 -0.4558
 8702TIP3    H147521   3.406   0.960   2.048  0.6860  0.7179 -1.0260
 8702TIP3    H247522   3.315   0.850   1.998  0.6446  0.1179  0.3343
 8703TIP3   OH247523   1.197   2.429  17.064 -0.4068  0.8272 -0.4999
 8703TIP3    H147524   1.205   2.516  17.024  0.0487 -0.0301 -2.3293
 8703TIP3    H247525   1.140   2.380  17.005  1.9052 -1.1075 -1.2815
 8704TIP3   OH247526   5.302   1.407  10.852 -0.0644 -0.2923 -0.8531
 8704TIP3    H147527   5.315   1.459  10.773 -0.4621  0.8641 -0.1857
 8704TIP3    H247528   5.386   1.410  10.897 -0.6037  1.4082  0.1101
 8705TIP3   OH247529   5.343   4.326  15.063  0.2248  0.2839 -0.2065
 8705TIP3    H147530   5.382   4.309  15.149 -1.5405 -1.0231  0.3868
 8705TIP3    H247531   5.351   4.244  15.016  0.7125  0.8412 -1.1305
 8706TIP3   OH247532   0.560   1.140   6.575 -0.1728 -0.4946 -0.5392
 8706TIP3    H147533   0.639   1.108   6.618 -1.4894 -1.5773  1.1890
 8706TIP3    H247534   0.503   1.168   6.646 -0.2981  3.0823 -1.8131
 8707TIP3   OH247535   0.807   0.315   1.237  0.5416 -0.2550  0.2067
 8707TIP3    H147536   0.867   0.373   1.191 -0.3444  0.3692 -0.1841
 8707TIP3    H247537   0.832   0.322   1.329  0.9907  0.0762  0.0616
 8708TIP3   OH247538   4.688   0.512   5.208 -0.4185 -0.2388 -0.3762
 8708TIP3    H147539   4.714   0.430   5.167 -0.0690 -0.5612  0.4511
 8708TIP3    H247540   4.771   0.552   5.235 -0.6234  0.0621 -0.1805
 8709TIP3   OH247541   3.440   3.867  14.897 -0.3793  0.0523  0.5409
 8709TIP3    H147542   3.525   3.828  14.880 -0.7658 -1.0912  1.0972
 8709TIP3    H247543   3.408   3.894  14.811  1.1479  1.8878  0.4780
 8710TIP3   OH247544   6.527   4.837  12.900  0.2708  0.7758 -0.2913
 8710TIP3    H147545   6.439   4.799  12.908  0.5994  0.1137  0.3336
 8710TIP3    H247546   6.538   4.853  12.807 -0.3952  0.5647 -0.4115
 8711TIP3   OH247547   5.198   0.357  14.745  0.1437  0.0666  0.2639
 8711TIP3    H147548   5.163   0.315  14.823 -0.0392  0.2579  0.2857
 8711TIP3    H247549   5.195   0.450  14.764 -0.5109  0.1473 -0.2221
 8712TIP3   OH247550   3.164   1.830   6.377  0.0537 -0.1902  0.0767
 8712TIP3    H147551   3.227   1.880   6.324  0.4790  0.7258  1.4137
 8712TIP3    H247552   3.163   1.743   6.336 -0.6774  0.8330 -2.2872
 8713TIP3   OH247553   6.032   2.945   2.075  0.1272  0.5545 -0.1078
 8713TIP3    H147554   6.096   2.997   2.025 -1.0181  1.9529 -0.1909
 8713TIP3    H247555   6.077   2.925   2.157  1.4035 -0.2759 -0.9814
 8714TIP3   OH247556   3.747   4.618  11.002  0.6016  0.1640  0.3191
 8714TIP3    H147557   3.723   4.707  10.978  0.4009  0.2887  0.9593
 8714TIP3    H247558   3.687   4.563  10.951  0.1266  0.4257  0.5810
 8715TIP3   OH247559   2.632   0.238  16.428 -0.2693 -0.4656 -0.4884
 8715TIP3    H147560   2.549   0.208  16.465 -1.1784  0.2581 -1.8640
 8715TIP3    H247561   2.682   0.268  16.504 -1.4710 -0.4139  0.3154
 8716TIP3   OH247562   2.386   0.048   0.530  0.4292  0.1323  0.0160
 8716TIP3    H147563   2.300   0.050   0.489  1.2342 -0.7646 -1.7955
 8716TIP3    H247564   2.401  -0.044   0.550  0.6462  0.3844  1.0987
 8717TIP3   OH247565   0.606   6.201   3.520  0.2868 -0.2489  0.4581
 8717TIP3    H147566   0.661   6.144   3.573  2.2101 -0.4433 -1.5983
 8717TIP3    H247567   0.662   6.229   3.448 -1.5409  1.7416 -0.3146
 8718TIP3   OH247568   0.824   3.535  12.601 -0.2897  0.1342  0.1956
 8718TIP3    H147569   0.887   3.470  12.634 -0.1362 -0.5338 -1.3295
 8718TIP3    H247570   0.782   3.492  12.527 -0.3496  1.6965 -0.7232
 8719TIP3   OH247571   0.749   3.613  11.594  0.0022  0.2807 -0.0104
 8719TIP3    H147572   0.683   3.674  11.561  0.0651  1.2554  1.5766
 8719TIP3    H247573   0.699   3.541  11.632 -0.2037  1.3086  1.7391
 8720TIP3   OH247574   3.702   4.793   1.998  0.8211  0.3385  0.2170
 8720TIP3    H147575   3.790   4.766   2.024  2.0061  3.8867  0.3619
 8720TIP3    H247576   3.648   4.775   2.075  0.8081 -3.6599 -0.4960
 8721TIP3   OH247577   2.506   6.119   1.941 -0.5010  0.1419 -0.2129
 8721TIP3    H147578   2.562   6.086   2.012 -1.3439 -0.9006  0.0103
 8721TIP3    H247579   2.462   6.040   1.908 -1.2528  0.8313 -0.8842
 8722TIP3   OH247580   4.492   6.741  12.545 -0.0173 -0.1342  0.2276
 8722TIP3    H147581   4.578   6.721  12.508  0.1353 -2.9143  1.8401
 8722TIP3    H247582   4.512   6.795  12.622  0.1284  0.5123 -0.2519
 8723TIP3   OH247583   1.292   2.362   3.732  0.2798  0.3680  0.0201
 8723TIP3    H147584   1.306   2.270   3.755 -2.1811 -0.5594 -1.7779
 8723TIP3    H247585   1.197   2.372   3.729  0.5020  2.8636 -0.2969
 8724TIP3   OH247586   0.903   5.546   6.341  0.5006 -0.3403 -0.4644
 8724TIP3    H147587   0.991   5.518   6.316  1.3732  0.8004  1.1405
 8724TIP3    H247588   0.859   5.465   6.368  2.4552 -0.5676  2.6119
 8725TIP3   OH247589   5.669   6.699   5.285 -0.0771  1.0755  0.5071
 8725TIP3    H147590   5.617   6.707   5.366 -0.0839  1.2413  0.4861
 8725TIP3    H247591   5.751   6.659   5.314 -0.3773  0.4223  0.4756
 8726TIP3   OH247592   6.455   3.559   4.000 -0.3138 -0.3787 -0.1620
 8726TIP3    H147593   6.481   3.645   3.966 -1.7719 -0.6095 -2.0512
 8726TIP3    H247594   6.510   3.497   3.951 -1.8066 -0.6659 -1.5662
 8727TIP3   OH247595   4.129   3.924  12.080  0.4820 -0.6146  0.6027
 8727TIP3    H147596   4.075   4.003  12.087  1.3925  0.0377  0.5335
 8727TIP3    H247597   4.085   3.870  12.015  0.9053  0.7437 -0.8881
 8728TIP3   OH247598   0.235   1.145  13.323  0.2500 -0.0757 -0.0779
 8728TIP3    H147599   0.175   1.219  13.324 -0.2707 -0.4777 -0.6146
 8728TIP3    H247600   0.216   1.100  13.240  2.2018  0.5336 -0.9231
 8729TIP3   OH247601   0.582   1.433  11.679  0.0349 -0.0098 -0.3670
 8729TIP3    H147602   0.526   1.440  11.602 -0.5531 -0.6411 -0.0027
 8729TIP3    H247603   0.581   1.521  11.716 -0.4972  0.0534 -0.5150
 8730TIP3   OH247604   0.482   0.471  11.094  0.1901  0.0803  0.5558
 8730TIP3    H147605   0.416   0.447  11.160 -1.0470  0.3131 -0.5487
 8730TIP3    H247606   0.559   0.494  11.145  0.2598 -2.5740  1.8295
 8731TIP3   OH247607   6.524   2.023   5.647 -0.6475  0.9167 -0.1725
 8731TIP3    H147608   6.481   1.980   5.721 -0.9674 -1.3070 -1.5744
 8731TIP3    H247609   6.615   1.993   5.652 -0.3152  1.9216  0.1112
 8732TIP3   OH247610   4.890   0.529  14.392  0.3399  0.4208 -0.4749
 8732TIP3    H147611   4.951   0.496  14.459  0.2509  1.5550  0.1855
 8732TIP3    H247612   4.867   0.617  14.422 -0.0613  0.7746 -1.7769
 8733TIP3   OH247613   3.718   5.343   3.367 -0.2107 -0.4852 -0.1637
 8733TIP3    H147614   3.746   5.376   3.453  0.8363 -2.7377  0.4186
 8733TIP3    H247615   3.741   5.414   3.307 -0.8449  1.1010  1.3408
 8734TIP3   OH247616   5.058   0.430  15.706  0.4518  0.8687  0.9338
 8734TIP3    H147617   5.081   0.346  15.665  0.4238  0.4265  1.7894
 8734TIP3    H247618   5.110   0.432  15.786  0.6067  1.7753  0.8211
 8735TIP3   OH247619   2.619   4.518   4.423 -0.2921 -0.5928  0.0944
 8735TIP3    H147620   2.555   4.482   4.362  0.8121 -2.4309 -0.0516
 8735TIP3    H247621   2.583   4.498   4.510  0.1575 -1.7841  0.0130
 8736TIP3   OH247622   1.188   6.122   4.360  0.0824  0.2615 -0.0555
 8736TIP3    H147623   1.160   6.188   4.424  1.5431 -0.1944  1.1306
 8736TIP3    H247624   1.236   6.057   4.412  0.5313 -0.6131 -1.4952
 8737TIP3   OH247625   6.283   1.985  12.314  0.1288  0.0056  0.6795
 8737TIP3    H147626   6.291   2.075  12.282  1.2116 -0.9256 -1.9315
 8737TIP3    H247627   6.189   1.966  12.308  0.2061  0.0761 -1.6032
 8738TIP3   OH247628   6.731   3.313   6.433  0.1781  0.8355  0.2746
 8738TIP3    H147629   6.750   3.270   6.350  1.8203  1.2804  0.3949
 8738TIP3    H247630   6.737   3.407   6.414 -1.0111  0.9870  0.5556
 8739TIP3   OH247631   3.929   0.082  12.267 -0.1208 -0.1480  0.0577
 8739TIP3    H147632   3.838   0.059  12.248 -0.9076  3.5134 -1.6160
 8739TIP3    H247633   3.953   0.143  12.197  3.0637  0.3846  1.4276
 8740TIP3   OH247634   0.881   2.054  13.431  0.1197  0.0564 -0.2827
 8740TIP3    H147635   0.833   2.035  13.512  1.3249 -0.4397  0.3286
 8740TIP3    H247636   0.958   2.104  13.459  0.7086 -0.3859 -1.0799
 8741TIP3   OH247637   0.016   4.951  13.163 -0.1056  0.0200 -0.3892
 8741TIP3    H147638  -0.017   4.979  13.248 -0.2056 -0.2974 -0.3214
 8741TIP3    H247639  -0.033   5.003  13.100  0.3764  0.6686 -0.2341
 8742TIP3   OH247640   4.303   4.545  13.765 -0.2711  0.4328  0.3184
 8742TIP3    H147641   4.344   4.622  13.726  0.8667  0.1631  0.9395
 8742TIP3    H247642   4.352   4.471  13.729 -0.7222  0.0532  0.4730
 8743TIP3   OH247643   4.224   0.571   5.068  0.1449  0.0875  0.0557
 8743TIP3    H147644   4.188   0.554   5.155  0.0275 -0.1066 -0.0287
 8743TIP3    H247645   4.307   0.524   5.066 -0.0212 -0.2087 -0.0597
 8744TIP3   OH247646   3.923   4.834   5.010  0.2269  0.1803 -0.0765
 8744TIP3    H147647   3.829   4.823   4.997  0.3442 -0.6580 -0.2985
 8744TIP3    H247648   3.960   4.828   4.922  0.4426  1.1062 -0.0576
 8745TIP3   OH247649   3.388   5.523   0.077  0.4833 -0.4816 -0.3308
 8745TIP3    H147650   3.298   5.535   0.106  1.4170 -0.0055  2.6848
 8745TIP3    H247651   3.430   5.608   0.090  1.5036 -0.8261 -1.1956
 8746TIP3   OH247652   2.426   5.308  12.557  0.7811 -0.0782  0.0748
 8746TIP3    H147653   2.377   5.390  12.558  1.2995  0.2465 -0.1730
 8746TIP3    H247654   2.361   5.241  12.535  0.3098  0.2344  0.5047
 8747TIP3   OH247655   1.494   0.554  15.752 -0.3349  0.1055 -0.1987
 8747TIP3    H147656   1.415   0.554  15.698 -0.9637  0.7020  0.6731
 8747TIP3    H247657   1.464   0.521  15.837  0.3594  0.3201  0.1321
 8748TIP3   OH247658   3.265   5.330   1.717  0.2842  0.2252 -0.5447
 8748TIP3    H147659   3.226   5.243   1.722  0.0134  0.3893  0.3422
 8748TIP3    H247660   3.359   5.314   1.729  0.2018  0.0815 -0.0632
 8749TIP3   OH247661   1.163   4.898  17.187 -0.0579 -0.1470 -0.0500
 8749TIP3    H147662   1.121   4.865  17.267  1.4043  0.6864  1.1088
 8749TIP3    H247663   1.248   4.930  17.216  1.3249 -1.5520 -2.2731
 8750TIP3   OH247664   2.583   5.461   0.477 -0.4183 -0.2855  0.0557
 8750TIP3    H147665   2.655   5.417   0.522 -1.5748 -1.9031  0.4383
 8750TIP3    H247666   2.597   5.554   0.494  2.3610 -0.4168 -1.1244
 8751TIP3   OH247667   4.249   4.606  15.660  0.0779 -0.3844 -0.3768
 8751TIP3    H147668   4.202   4.535  15.704  0.3579  0.6053  1.6438
 8751TIP3    H247669   4.225   4.685  15.709  1.1637  0.6558 -1.4397
 8752TIP3   OH247670   2.583   1.758  11.850 -0.0263  0.4473  0.3859
 8752TIP3    H147671   2.580   1.693  11.780 -0.0569  0.8250  0.0278
 8752TIP3    H247672   2.581   1.842  11.804 -1.6325  0.7191  0.8906
 8753TIP3   OH247673   1.890   4.779   3.190  0.7489  0.0618 -0.0821
 8753TIP3    H147674   1.907   4.871   3.172  0.4190  0.1303 -0.0505
 8753TIP3    H247675   1.958   4.732   3.141  0.7857  0.3116 -0.2736
 8754TIP3   OH247676   5.708   0.389   0.548  0.2695  0.0858  0.5376
 8754TIP3    H147677   5.801   0.406   0.530  0.1644  0.7594  0.6006
 8754TIP3    H247678   5.694   0.299   0.519  0.2164  0.9233 -2.3466
 8755TIP3   OH247679   6.709   3.914   1.334 -0.2885  0.0633  0.0748
 8755TIP3    H147680   6.740   3.902   1.244 -1.0721  0.8314 -0.3138
 8755TIP3    H247681   6.622   3.954   1.324  0.0509  1.1293  1.1755
 8756TIP3   OH247682   6.319   2.574  17.252 -0.1847 -0.0605  0.1540
 8756TIP3    H147683   6.254   2.503  17.247 -2.3370  1.7779  0.3595
 8756TIP3    H247684   6.372   2.551  17.328 -1.1098 -1.2498  0.4796
 8757TIP3   OH247685   5.398   4.804  14.639 -0.6397 -0.4244 -0.0663
 8757TIP3    H147686   5.437   4.797  14.553  3.1877 -0.5398  1.5004
 8757TIP3    H247687   5.360   4.892  14.642  1.1404  0.4256 -1.1751
 8758TIP3   OH247688   0.708   6.101  14.575  1.1807 -0.3720 -0.5484
 8758TIP3    H147689   0.754   6.180  14.546 -0.1130  0.2864 -0.8555
 8758TIP3    H247690   0.632   6.095  14.518  1.7253 -2.3680 -1.1376
 8759TIP3   OH247691   5.725   0.529   1.320  0.2157  0.4943  0.1807
 8759TIP3    H147692   5.732   0.483   1.236 -0.4440  1.2563 -0.2965
 8759TIP3    H247693   5.767   0.470   1.382 -0.5505 -0.7370 -0.4324
 8760TIP3   OH247694   0.562   1.811   2.081  0.2489 -0.0513  0.8588
 8760TIP3    H147695   0.616   1.886   2.056 -0.3216  0.2044  0.3930
 8760TIP3    H247696   0.536   1.829   2.171 -0.5606  0.7037  0.4749
 8761TIP3   OH247697   1.739   0.047   2.337  0.0378 -0.0378  0.6384
 8761TIP3    H147698   1.814  -0.008   2.359 -0.2430 -2.0746 -2.8068
 8761TIP3    H247699   1.664   0.003   2.378  0.1446 -0.8943 -0.0522
 8762TIP3   OH247700   0.071   4.302   4.152  0.5851  0.2413 -0.1113
 8762TIP3    H147701   0.149   4.348   4.120  0.5586  0.6404  0.3818
 8762TIP3    H247702   0.095   4.209   4.150  1.4248  0.4134  0.9388
 8763TIP3   OH247703   5.121   5.841   3.483  0.2771 -0.1049  0.0826
 8763TIP3    H147704   5.161   5.913   3.434 -0.3798  0.2884  0.1110
 8763TIP3    H247705   5.194   5.802   3.532  0.9738 -0.5907 -1.2974
 8764TIP3   OH247706   3.221   2.049  16.864 -0.0900 -0.0298 -0.5533
 8764TIP3    H147707   3.297   1.993  16.846 -0.0873 -0.0876 -0.3651
 8764TIP3    H247708   3.218   2.054  16.960 -0.9511 -0.8919 -0.5171
 8765TIP3   OH247709   6.146   2.002  16.101 -0.2701 -0.1006  0.0863
 8765TIP3    H147710   6.202   2.080  16.106  0.9390 -0.8503 -1.1031
 8765TIP3    H247711   6.071   2.031  16.049  0.1470  0.2982 -0.3139
 8766TIP3   OH247712   0.576   6.098  11.775 -0.2707  0.8615 -0.0923
 8766TIP3    H147713   0.542   6.171  11.724 -2.1145  0.7388  0.8743
 8766TIP3    H247714   0.572   6.129  11.866  0.4335  0.1232  0.2031
 8767TIP3   OH247715   4.236   1.700  14.965  0.3825  0.2989  0.1844
 8767TIP3    H147716   4.185   1.781  14.962  0.6412  0.4697  0.3423
 8767TIP3    H247717   4.241   1.679  15.059  0.5930  0.2791  0.1686
 8768TIP3   OH247718   1.411   2.928   5.156 -0.2830  0.4901  0.3789
 8768TIP3    H147719   1.356   2.850   5.166 -1.3033  0.5815 -3.2167
 8768TIP3    H247720   1.461   2.912   5.076  1.6374  2.3752  1.1080
 8769TIP3   OH247721   0.876   0.091   6.420 -0.4413 -0.6475  0.7545
 8769TIP3    H147722   0.873   0.187   6.417  0.7377 -0.5993  0.5320
 8769TIP3    H247723   0.807   0.066   6.481 -0.2596  0.3872  1.4003
 8770TIP3   OH247724   2.993   0.625  13.701  0.1383  0.1386  0.3009
 8770TIP3    H147725   3.068   0.668  13.743  0.6047 -0.2449 -0.1192
 8770TIP3    H247726   2.916   0.666  13.740  0.5669  0.0581  1.2554
 8771TIP3   OH247727   3.978   4.256  13.230 -0.1042 -0.2760 -0.3340
 8771TIP3    H147728   3.931   4.182  13.268 -0.9088 -0.0397 -0.8569
 8771TIP3    H247729   4.067   4.248  13.265 -0.1042 -1.6465 -0.6098
 8772TIP3   OH247730   2.979   3.378  12.430 -0.0443  0.2340  0.2158
 8772TIP3    H147731   2.891   3.345  12.448  0.4691 -2.3330 -1.3298
 8772TIP3    H247732   3.007   3.329  12.352  2.7546  0.9325  0.6615
 8773TIP3   OH247733   0.180   4.913   4.210 -0.6715 -0.2842 -0.5877
 8773TIP3    H147734   0.175   4.944   4.120  1.0976 -1.8831 -1.2978
 8773TIP3    H247735   0.187   4.818   4.203 -0.1187 -0.4181  1.2195
 8774TIP3   OH247736   0.962   1.720   3.628 -0.1020  0.6967 -0.7444
 8774TIP3    H147737   0.887   1.704   3.685  0.8537 -0.6842  0.2070
 8774TIP3    H247738   0.993   1.633   3.603  1.3290  1.2119 -0.8924
 8775TIP3   OH247739   2.522   2.590   0.203 -0.4513 -0.2510 -0.2860
 8775TIP3    H147740   2.431   2.571   0.180 -0.2928 -0.0680 -1.0907
 8775TIP3    H247741   2.519   2.677   0.244 -0.4416  0.5218 -1.8444
 8776TIP3   OH247742   4.104   2.786  13.137 -0.1953  0.3895 -0.2413
 8776TIP3    H147743   4.019   2.827  13.151 -0.7935 -1.1874  1.0714
 8776TIP3    H247744   4.088   2.722  13.067  0.1013  0.5970 -0.5036
 8777TIP3   OH247745   5.576   0.382  10.532 -0.1951  0.5769 -0.4504
 8777TIP3    H147746   5.601   0.307  10.477 -0.6641 -1.2778  1.7032
 8777TIP3    H247747   5.480   0.380  10.534 -0.2016 -0.2700  1.4074
 8778TIP3   OH247748   4.353   3.986  12.213 -1.0305 -0.3741 -0.3898
 8778TIP3    H147749   4.378   4.070  12.175 -3.1340  1.0191  1.0569
 8778TIP3    H247750   4.277   3.958  12.162 -0.6992 -1.1181 -0.4851
 8779TIP3   OH247751   1.693   5.196   4.000 -0.2792 -0.1905  0.0264
 8779TIP3    H147752   1.768   5.238   4.042  0.4244  0.8618 -2.1383
 8779TIP3    H247753   1.724   5.109   3.975 -0.6669 -0.7789  1.4780
 8780TIP3   OH247754   1.287   1.788  11.915  0.8672 -0.2914 -0.2058
 8780TIP3    H147755   1.216   1.791  11.851 -0.4500 -0.1816  1.1954
 8780TIP3    H247756   1.350   1.854  11.885 -1.1238  1.9050  0.1879
 8781TIP3   OH247757   3.282   1.337  16.829  0.2171 -0.2764  0.1591
 8781TIP3    H147758   3.294   1.432  16.819 -0.8558 -0.2512 -1.0850
 8781TIP3    H247759   3.190   1.327  16.853  0.5365 -0.9717  1.1661
 8782TIP3   OH247760   6.049   1.161   3.337 -0.5309 -0.4471  0.7023
 8782TIP3    H147761   6.062   1.221   3.410  0.0128  0.5247 -0.1820
 8782TIP3    H247762   5.965   1.119   3.356 -1.2215  1.0178  1.0377
 8783TIP3   OH247763   3.338   1.490  15.536  0.3814 -0.4718  0.2119
 8783TIP3    H147764   3.427   1.463  15.559  0.1903 -0.7357  0.6573
 8783TIP3    H247765   3.331   1.580  15.566  0.6727 -0.2692 -0.3140
 8784TIP3   OH247766   3.292   5.139   1.182  0.6700  0.3131 -0.1488
 8784TIP3    H147767   3.280   5.195   1.106  1.4214 -0.4707 -0.8600
 8784TIP3    H247768   3.214   5.084   1.184  0.5381  0.4945 -0.1985
 8785TIP3   OH247769   6.485   3.641   5.859  0.4117  0.0343  0.2048
 8785TIP3    H147770   6.570   3.611   5.826  0.9264  0.7048  0.8744
 8785TIP3    H247771   6.434   3.561   5.870  0.7673 -0.3346 -0.7040
 8786TIP3   OH247772   3.137   6.080  11.384  0.5368  0.5818 -0.1056
 8786TIP3    H147773   3.231   6.096  11.378  0.5031  0.7496 -0.2012
 8786TIP3    H247774   3.101   6.115  11.303  0.1547  2.3116  0.7550
 8787TIP3   OH247775   3.102   3.357   4.910  0.8867 -0.4043  0.2170
 8787TIP3    H147776   3.174   3.295   4.922  0.5875 -1.0279 -0.9985
 8787TIP3    H247777   3.025   3.309   4.941  0.8304 -0.1885  0.4068
 8788TIP3   OH247778   2.619   5.412   6.230 -0.5463 -0.9231 -0.6803
 8788TIP3    H147779   2.691   5.475   6.229 -0.1165 -0.9973  3.9728
 8788TIP3    H247780   2.541   5.465   6.217  0.0335  0.0621 -0.2953
 8789TIP3   OH247781   5.549   3.381  12.520 -0.4855 -0.1772  0.1738
 8789TIP3    H147782   5.550   3.333  12.438 -0.9328 -1.9823  1.1604
 8789TIP3    H247783   5.461   3.421  12.523  0.4359  2.2168 -1.3962
 8790TIP3   OH247784   4.974   3.125  17.107 -0.1339 -0.5367  0.6437
 8790TIP3    H147785   5.008   3.102  17.021 -1.6633 -1.3153  0.2120
 8790TIP3    H247786   4.930   3.210  17.094  2.5506  1.1008  1.4712
 8791TIP3   OH247787   1.942   0.631   1.365  0.5450 -0.4830  0.0617
 8791TIP3    H147788   1.918   0.635   1.457 -1.0326 -1.7444 -0.2547
 8791TIP3    H247789   2.017   0.571   1.362  0.1021 -1.0656  0.4498
 8792TIP3   OH247790   2.568   1.946  16.230  0.2548 -0.0673 -0.4797
 8792TIP3    H147791   2.514   2.024  16.218  0.3587  0.0183 -0.3946
 8792TIP3    H247792   2.515   1.874  16.195 -1.0723 -0.4073  1.9505
 8793TIP3   OH247793   5.361   6.249   4.573  0.1130  0.7010  0.4132
 8793TIP3    H147794   5.316   6.183   4.626 -0.9441  1.0916  0.0357
 8793TIP3    H247795   5.384   6.318   4.636  0.7266  0.2312  0.7126
 8794TIP3   OH247796   4.028   4.609   4.789 -0.1683 -0.1566 -0.1907
 8794TIP3    H147797   3.983   4.529   4.762 -2.4218  0.7793  0.6154
 8794TIP3    H247798   3.966   4.680   4.769  0.0915  1.0256  2.7259
 8795TIP3   OH247799   4.580   3.317   2.758 -0.2085 -0.4275 -0.7815
 8795TIP3    H147800   4.647   3.385   2.758  0.8715 -1.3691  1.3285
 8795TIP3    H247801   4.621   3.242   2.715 -0.9269 -0.1605 -1.9541
 8796TIP3   OH247802   6.400   2.214  11.210 -0.1608  0.1404  0.0285
 8796TIP3    H147803   6.442   2.189  11.128 -0.6768 -1.7277  0.3036
 8796TIP3    H247804   6.456   2.283  11.245  0.7859  0.0570 -1.2551
 8797TIP3   OH247805   5.086   4.097  16.545 -0.1421 -0.4030  0.3089
 8797TIP3    H147806   5.151   4.063  16.607 -1.9020 -1.7481  1.5245
 8797TIP3    H247807   5.062   4.182  16.582  0.8115  0.0697 -0.1053
 8798TIP3   OH247808   3.988   1.494  11.923  0.1422 -0.5098  0.1158
 8798TIP3    H147809   3.911   1.473  11.871  0.3602 -0.3742 -0.2699
 8798TIP3    H247810   4.051   1.425  11.902  0.5411  0.0155 -0.4728
 8799TIP3   OH247811   1.050   1.950  12.739  0.4501 -0.6358  0.4324
 8799TIP3    H147812   1.129   1.997  12.766 -0.3631  0.2428  1.3664
 8799TIP3    H247813   1.034   1.981  12.650  0.3357  0.3275  0.7742
 8800TIP3   OH247814   6.757   0.189   6.112 -0.1848 -0.0971 -0.0059
 8800TIP3    H147815   6.834   0.182   6.056 -0.1505 -0.9743  0.1327
 8800TIP3    H247816   6.687   0.145   6.064 -0.8602  1.5077 -0.5457
 8801TIP3   OH247817   5.992   5.896   2.362 -0.1689 -0.0536  0.2225
 8801TIP3    H147818   6.075   5.854   2.386  0.0483  0.2518  0.0147
 8801TIP3    H247819   5.967   5.946   2.440  0.8169  1.3807 -0.3340
 8802TIP3   OH247820   1.236   5.017  16.707 -0.6937  0.1884  0.2971
 8802TIP3    H147821   1.243   5.095  16.651  2.3288 -0.6225 -0.6696
 8802TIP3    H247822   1.245   5.050  16.796 -1.9408  1.1368  0.1056
 8803TIP3   OH247823   5.309   2.507  13.574  0.1226  0.6646  0.0510
 8803TIP3    H147824   5.364   2.467  13.641 -0.3146  0.6756  0.4249
 8803TIP3    H247825   5.370   2.546  13.511  0.5914 -0.9972 -0.5888
 8804TIP3   OH247826   5.273   0.211   6.118 -0.3728  0.4456 -0.4601
 8804TIP3    H147827   5.297   0.119   6.110 -3.0175 -0.5216  1.5838
 8804TIP3    H247828   5.356   0.255   6.139  0.7206 -1.6584 -0.0546
 8805TIP3   OH247829   3.939   1.766  15.930 -0.3546  0.2911  0.3013
 8805TIP3    H147830   3.906   1.700  15.991 -0.6710 -0.2331 -0.4363
 8805TIP3    H247831   4.006   1.813  15.980 -1.0474  0.2816  1.2620
 8806TIP3   OH247832   0.886   3.982  12.228  0.2682 -0.0899  0.6393
 8806TIP3    H147833   0.970   3.943  12.250  0.1927 -0.6564 -0.0545
 8806TIP3    H247834   0.872   4.049  12.295  1.2855  0.0327  0.7337
 8807TIP3   OH247835   2.009   3.303  14.810 -0.8447  0.1659 -0.4210
 8807TIP3    H147836   2.007   3.292  14.715  0.8503  0.7120 -0.5560
 8807TIP3    H247837   1.934   3.358  14.830  0.4339  2.6051 -1.8712
 8808TIP3   OH247838   2.761   2.365   5.163  0.2839 -0.1553  0.6355
 8808TIP3    H147839   2.815   2.398   5.235  0.9647 -0.8719  0.4616
 8808TIP3    H247840   2.674   2.355   5.202  0.0132  1.9405  0.6633
 8809TIP3   OH247841   5.027   2.397  13.779  0.1566 -0.7209 -0.3594
 8809TIP3    H147842   5.086   2.428  13.710 -0.3793  0.3952 -0.3421
 8809TIP3    H247843   5.007   2.307  13.755  0.9062 -0.7268 -1.0152
 8810TIP3   OH247844   0.852   6.424  16.072 -0.1572 -1.0295  0.3644
 8810TIP3    H147845   0.792   6.401  16.143 -0.1927  0.3412  0.8115
 8810TIP3    H247846   0.849   6.350  16.012 -0.9143 -1.7604  1.2850
 8811TIP3   OH247847   5.075   2.716  16.229  0.5183 -0.4733 -0.4631
 8811TIP3    H147848   5.126   2.796  16.241 -0.2795 -0.1652  1.0450
 8811TIP3    H247849   4.988   2.746  16.202 -0.5790 -0.5973  2.5838
 8812TIP3   OH247850   2.424   0.266  13.507  0.5928 -0.0657  0.1210
 8812TIP3    H147851   2.505   0.217  13.523  0.7194 -0.3154 -1.2026
 8812TIP3    H247852   2.389   0.282  13.594  2.0264 -0.0159  0.7205
 8813TIP3   OH247853   4.974   6.066   3.521 -0.1931  0.0293 -0.7456
 8813TIP3    H147854   4.912   6.065   3.449 -0.0888 -0.1374 -0.8344
 8813TIP3    H247855   5.004   5.975   3.528 -2.9938 -0.8464  1.9549
 8814TIP3   OH247856   3.427   6.126   0.804 -0.0177 -0.0954  0.0369
 8814TIP3    H147857   3.425   6.139   0.899  1.7233  0.4152  0.0274
 8814TIP3    H247858   3.399   6.211   0.768  3.4635  1.2106  0.0910
 8815TIP3   OH247859   6.199   1.869  11.415  0.1254  0.3193  0.3762
 8815TIP3    H147860   6.170   1.926  11.344 -1.4963 -0.3231  0.5006
 8815TIP3    H247861   6.251   1.927  11.471  0.6585  1.0473 -0.8200
 8816TIP3   OH247862   6.609   4.273   2.683 -0.8186  0.3130 -0.3575
 8816TIP3    H147863   6.601   4.268   2.588  0.0518 -0.0570 -0.4220
 8816TIP3    H247864   6.574   4.190   2.715  0.9711 -0.5533 -0.5240
 8817TIP3   OH247865   2.585   4.261   1.470 -0.1471 -0.1305 -0.3817
 8817TIP3    H147866   2.661   4.205   1.487 -0.7435 -1.1322 -0.9007
 8817TIP3    H247867   2.617   4.326   1.408  0.7962  0.6899  0.9117
 8818TIP3   OH247868   1.111   1.228  14.670  0.0993 -0.5487 -0.0252
 8818TIP3    H147869   1.059   1.157  14.709 -1.0099 -0.0918 -0.6275
 8818TIP3    H247870   1.191   1.185  14.639  0.5403 -1.1086  1.7515
 8819TIP3   OH247871   1.556   0.450   1.751  0.2347 -0.4738  0.1114
 8819TIP3    H147872   1.588   0.491   1.671  1.9453 -0.9908  0.4969
 8819TIP3    H247873   1.625   0.389   1.777 -1.4612 -2.3526  0.4999
 8820TIP3   OH247874   2.523   2.753   6.503  0.5192 -0.0637 -0.5402
 8820TIP3    H147875   2.567   2.710   6.576 -2.7511 -2.3706  0.3457
 8820TIP3    H247876   2.485   2.832   6.541 -2.8882 -2.2399  1.0995
 8821TIP3   OH247877   4.403   4.495   1.067 -0.2326  0.1571 -0.4566
 8821TIP3    H147878   4.421   4.587   1.047 -1.3802  0.2676 -1.0007
 8821TIP3    H247879   4.321   4.475   1.023 -0.1821 -1.0433 -0.0593
 8822TIP3   OH247880   1.631   1.736  14.788  0.4445  0.5437  0.7183
 8822TIP3    H147881   1.566   1.689  14.736  2.3034 -1.5037  0.1330
 8822TIP3    H247882   1.657   1.674  14.856  3.2372  0.4896 -0.2972
 8823TIP3   OH247883   3.960   4.084   5.905  0.0922 -0.5323  0.3946
 8823TIP3    H147884   3.895   4.018   5.929  1.3519 -1.1381  2.3774
 8823TIP3    H247885   3.998   4.052   5.823  0.9601 -2.5475  1.5128
 8824TIP3   OH247886   1.670   5.065   2.215  0.2348 -0.0088 -0.2308
 8824TIP3    H147887   1.684   5.018   2.297 -0.5191 -0.9136 -0.6005
 8824TIP3    H247888   1.591   5.025   2.178 -0.8672  2.0223 -0.2372
 8825TIP3   OH247889   1.476   3.662  16.334  0.3491 -0.0210  0.5067
 8825TIP3    H147890   1.464   3.756  16.320 -2.0150 -0.1698  1.0323
 8825TIP3    H247891   1.555   3.655  16.386  1.5430  1.5264 -0.9655
 8826TIP3   OH247892   0.495   4.897  17.150  0.0206  0.5755 -0.1299
 8826TIP3    H147893   0.406   4.861  17.151  0.9528 -1.9740 -1.4439
 8826TIP3    H247894   0.540   4.850  17.221  0.3438  1.9431  0.6116
 8827TIP3   OH247895   0.002   4.545   0.084  0.1054  0.6448 -0.2515
 8827TIP3    H147896   0.003   4.511   0.173 -0.6396  1.5990  0.1414
 8827TIP3    H247897  -0.076   4.601   0.080  0.3946  1.0077 -1.3479
 8828TIP3   OH247898   1.687   1.041  12.552  0.0034 -0.1487 -0.0280
 8828TIP3    H147899   1.740   1.119  12.533 -0.3590 -0.6199 -3.4618
 8828TIP3    H247900   1.597   1.067  12.533 -0.4883 -0.7227  1.3149
 8829TIP3   OH247901   3.447   2.117   2.709 -0.1826 -0.3950 -0.0260
 8829TIP3    H147902   3.542   2.119   2.717 -0.0012  3.9933 -1.1650
 8829TIP3    H247903   3.415   2.131   2.798  0.2511 -0.2691  0.1105
 8830TIP3   OH247904   5.335   1.887  15.801  0.0836  0.0579  0.1748
 8830TIP3    H147905   5.276   1.950  15.759 -1.3146 -0.9846  0.4953
 8830TIP3    H247906   5.277   1.826  15.846  1.4871  0.2151  2.3451
 8831TIP3   OH247907   1.456   4.428  12.870 -0.5679 -0.3042  0.4146
 8831TIP3    H147908   1.542   4.386  12.879 -0.5221 -0.4439 -0.5385
 8831TIP3    H247909   1.465   4.511  12.918  0.2506 -0.1022 -0.0604
 8832TIP3   OH247910   4.883   6.638   4.883  0.3511 -0.2424 -0.4111
 8832TIP3    H147911   4.818   6.580   4.923  0.9648 -1.4312 -1.0925
 8832TIP3    H247912   4.888   6.712   4.943 -0.3822 -0.9358  0.5488
 8833TIP3   OH247913   5.427   0.128  11.002  0.0222 -0.0093 -0.2088
 8833TIP3    H147914   5.481   0.136  11.080 -0.3463 -2.4533  0.3621
 8833TIP3    H247915   5.483   0.086  10.938 -0.4098 -0.1915 -0.4735
 8834TIP3   OH247916   0.338   0.687   5.709  0.1290 -0.3417  0.3424
 8834TIP3    H147917   0.326   0.593   5.723 -0.6910 -0.3749 -0.5172
 8834TIP3    H247918   0.326   0.699   5.615 -0.4525  0.7262  0.5389
 8835TIP3   OH247919   5.318   0.431   0.801  0.0165  0.5020  0.1308
 8835TIP3    H147920   5.390   0.478   0.843  0.6808  0.3806 -0.8377
 8835TIP3    H247921   5.268   0.499   0.756  0.6698  0.3583 -0.8277
 8836TIP3   OH247922   0.749   3.295  11.021  0.5181  0.4476 -0.5359
 8836TIP3    H147923   0.718   3.373  10.976  1.2463 -0.2429 -2.3046
 8836TIP3    H247924   0.844   3.296  11.010  0.5901 -0.4259 -0.1246
 8837TIP3   OH247925   0.362   6.773  11.373 -0.1841  0.2585 -0.4022
 8837TIP3    H147926   0.286   6.832  11.369  0.5804  1.1809 -1.9099
 8837TIP3    H247927   0.406   6.784  11.289  2.4565  0.8581  0.9328
 8838TIP3   OH247928   5.920   1.192   4.022 -0.3241  0.5404  0.1552
 8838TIP3    H147929   5.855   1.238   3.969  1.9723  1.4618 -2.0759
 8838TIP3    H247930   6.004   1.229   3.995  1.4527 -2.8005  0.4959
 8839TIP3   OH247931   4.014   5.852   0.310  0.1561  0.7196 -0.2723
 8839TIP3    H147932   4.061   5.782   0.263 -1.0196 -0.4831  0.2714
 8839TIP3    H247933   3.982   5.810   0.390 -1.0060  1.7400 -0.1678
 8840TIP3   OH247934   5.079   0.116  12.950  0.6867  0.5795  0.4016
 8840TIP3    H147935   5.028   0.195  12.964 -1.0677 -0.4680  0.2369
 8840TIP3    H247936   5.098   0.115  12.856 -0.1471  0.3164  0.2325
 8841TIP3   OH247937   5.329   4.378  11.261 -0.0361 -0.3113 -0.2761
 8841TIP3    H147938   5.246   4.425  11.265 -0.8457 -1.7454  0.8633
 8841TIP3    H247939   5.393   4.438  11.299 -0.7961  0.3328  0.0141
 8842TIP3   OH247940   3.773   5.611  10.392 -0.5239  0.2409  0.0279
 8842TIP3    H147941   3.684   5.633  10.421  0.0412  1.3890  0.9614
 8842TIP3    H247942   3.806   5.692  10.352  0.7046  0.3696  1.2464
 8843TIP3   OH247943   3.727   3.198  16.773  0.7787  0.3808 -0.0856
 8843TIP3    H147944   3.632   3.206  16.761  0.8428  0.2694 -0.6843
 8843TIP3    H247945   3.749   3.115  16.729  0.9060 -0.4391  1.4563
 8844TIP3   OH247946   0.572   4.921   2.867 -0.0717  0.4811 -0.5842
 8844TIP3    H147947   0.563   4.870   2.787 -1.6346  0.5979 -0.5130
 8844TIP3    H247948   0.562   5.012   2.839 -1.0864  0.4946 -0.2117
 8845TIP3   OH247949   5.879   3.124   1.591 -0.2173  0.1147 -0.4232
 8845TIP3    H147950   5.899   3.158   1.678  1.8651  0.6322 -1.0479
 8845TIP3    H247951   5.798   3.074   1.603 -0.1142  0.3712  1.7408
 8846TIP3   OH247952   0.997   3.214  10.975 -0.1846 -0.1470  0.4460
 8846TIP3    H147953   1.037   3.211  10.888 -1.6170  1.9133 -0.3686
 8846TIP3    H247954   1.063   3.256  11.031  1.1576 -2.4320  0.6778
 8847TIP3   OH247955   0.638   5.814  13.405  0.1547 -0.3120  0.6513
 8847TIP3    H147956   0.720   5.821  13.355  0.1701 -1.1538  0.5479
 8847TIP3    H247957   0.640   5.889  13.464  1.5383 -0.9068  1.4223
 8848TIP3   OH247958   0.508   0.731   1.474  1.1381  0.5076  0.0804
 8848TIP3    H147959   0.589   0.683   1.461  0.8194 -0.7678  2.2129
 8848TIP3    H247960   0.439   0.671   1.446  0.8932  1.9076 -2.5461
 8849TIP3   OH247961   5.424   1.750  11.953  0.3743  0.2053  0.0406
 8849TIP3    H147962   5.345   1.725  11.907  0.2522 -0.6391  0.6747
 8849TIP3    H247963   5.496   1.722  11.896  0.2208  0.1393 -0.1183
 8850TIP3   OH247964   1.025   6.142  11.999 -1.3295 -0.6179 -0.4997
 8850TIP3    H147965   1.062   6.056  12.022  0.4668  0.4011  0.6909
 8850TIP3    H247966   1.095   6.204  12.020 -2.8821  1.2250 -0.5322
 8851TIP3   OH247967   0.815   4.351  14.338 -0.1272  0.1207  0.3312
 8851TIP3    H147968   0.869   4.355  14.259  0.0673  1.6747  0.5187
 8851TIP3    H247969   0.725   4.350  14.306 -0.0499  0.7980  0.0931
 8852TIP3   OH247970   0.899   3.139  14.010 -0.0978 -0.6396 -0.3203
 8852TIP3    H147971   0.993   3.158  14.017 -0.7745  2.7877  1.7935
 8852TIP3    H247972   0.867   3.199  13.943 -1.1094 -0.0009  0.6954
 8853TIP3   OH247973   2.101   3.795   0.252 -0.2850  0.4722  0.3627
 8853TIP3    H147974   2.104   3.723   0.314  1.7395  1.3961  1.4354
 8853TIP3    H247975   2.008   3.806   0.231 -0.7937 -1.2392  1.5595
 8854TIP3   OH247976   6.122   4.452   1.429  0.1160 -0.4536  0.0183
 8854TIP3    H147977   6.127   4.372   1.481 -0.3029  0.3293  1.3091
 8854TIP3    H247978   6.107   4.422   1.339  0.1487 -1.8106  0.4475
 8855TIP3   OH247979   4.363   3.405  15.514 -0.0778  0.2515  0.0900
 8855TIP3    H147980   4.409   3.428  15.433 -2.1644  1.2309 -0.8928
 8855TIP3    H247981   4.307   3.331  15.490 -1.1437  0.9167  0.4460
 8856TIP3   OH247982   1.063   5.116  14.259 -0.0462  0.0434  0.3765
 8856TIP3    H147983   0.996   5.059  14.297 -0.2980 -0.4760 -0.8155
 8856TIP3    H247984   1.104   5.062  14.191 -1.2072  1.6981 -1.7343
 8857TIP3   OH247985   1.874   3.713  15.321 -0.3772  0.0463  0.8118
 8857TIP3    H147986   1.952   3.659  15.305 -0.2668  0.9706 -2.3640
 8857TIP3    H247987   1.906   3.803  15.318 -1.4631  0.4257 -0.0495
 8858TIP3   OH247988   0.278   2.793   4.970  0.0791  0.4076  0.0988
 8858TIP3    H147989   0.235   2.857   5.026  1.2970 -0.3167  1.9628
 8858TIP3    H247990   0.207   2.739   4.937 -0.5979 -0.2112  2.3775
 8859TIP3   OH247991   5.690   0.751   0.976 -0.1585 -0.1481 -0.0255
 8859TIP3    H147992   5.646   0.766   1.060  0.2570 -2.0390  0.5891
 8859TIP3    H247993   5.639   0.802   0.913 -2.2966 -0.9605  0.9217
 8860TIP3   OH247994   3.530   4.839   4.189 -0.1611 -0.1457  0.0345
 8860TIP3    H147995   3.462   4.835   4.122  1.0274  0.8251 -1.2740
 8860TIP3    H247996   3.483   4.864   4.269 -1.8104 -2.6393 -0.0438
 8861TIP3   OH247997   4.868   2.132   1.932  0.1531  0.0902 -0.3780
 8861TIP3    H147998   4.916   2.090   2.003 -0.2763  0.2048 -0.0121
 8861TIP3    H247999   4.905   2.220   1.927  0.9296 -0.2615 -1.0271
 8862TIP3   OH248000   4.861   4.339   0.146  0.3571 -0.2807  0.2422
 8862TIP3    H148001   4.836   4.372   0.232 -0.5789 -3.1153  1.1824
 8862TIP3    H248002   4.953   4.314   0.155  0.3788 -0.1797  0.2951
 8863TIP3   OH248003   0.307   4.131  17.013 -0.2159  0.3254 -0.0985
 8863TIP3    H148004   0.341   4.174  17.092 -1.1797 -0.1288  0.5959
 8863TIP3    H248005   0.384   4.092  16.972  0.2134 -0.0858  1.0487
 8864TIP3   OH248006   3.062   6.243  13.134  0.1118 -0.0365 -0.3559
 8864TIP3    H148007   2.977   6.206  13.109 -1.1051  2.6330 -0.5729
 8864TIP3    H248008   3.044   6.336  13.148  1.8430 -0.1563  4.9210
 8865TIP3   OH248009   2.588   5.259  12.302 -0.8782  0.2789  0.3199
 8865TIP3    H148010   2.541   5.187  12.259 -0.4715 -0.0333  0.3846
 8865TIP3    H248011   2.553   5.261  12.391 -2.1129  1.2812 -0.1644
 8866TIP3   OH248012   0.139   2.499  14.753 -0.3908 -0.4347  0.1776
 8866TIP3    H148013   0.067   2.508  14.691  0.1706 -1.3076 -0.6227
 8866TIP3    H248014   0.160   2.406  14.751  0.9712 -0.1379  0.1539
 8867TIP3   OH248015   0.832   0.778   4.159  0.1560  0.6611 -0.1795
 8867TIP3    H148016   0.777   0.796   4.234 -0.2500  0.7473 -0.4972
 8867TIP3    H248017   0.800   0.695   4.124 -1.0027  1.5914 -1.4579
 8868TIP3   OH248018   3.240   2.102  16.544  0.3948  0.0547 -0.3212
 8868TIP3    H148019   3.230   2.062  16.630  1.9063 -0.3830 -0.3296
 8868TIP3    H248020   3.319   2.062  16.507 -0.1952  0.2682 -1.8925
 8869TIP3   OH248021   1.204   1.556  11.634 -0.4738  0.2359 -0.2985
 8869TIP3    H148022   1.198   1.461  11.623 -2.6686  0.3375 -0.2953
 8869TIP3    H248023   1.278   1.569  11.694  1.6419 -1.2580 -2.4245
 8870TIP3   OH248024   0.005   0.283   0.600 -0.3603 -0.3059 -0.2221
 8870TIP3    H148025   0.036   0.316   0.516 -0.2487  3.0931  1.0234
 8870TIP3    H248026  -0.078   0.240   0.579 -1.7173  2.7685 -1.8591
 8871TIP3   OH248027   4.418   5.079  11.314 -0.0136 -0.1366  0.0603
 8871TIP3    H148028   4.437   4.985  11.307 -0.7202 -0.5121  2.3772
 8871TIP3    H248029   4.359   5.096  11.241 -2.6918 -2.3557  1.4983
 8872TIP3   OH248030   5.062   2.772  13.326  0.0085  0.4811  0.1475
 8872TIP3    H148031   4.972   2.746  13.345  0.1782 -0.1339  0.1253
 8872TIP3    H248032   5.114   2.732  13.395  0.4193 -0.3066 -0.5976
 8873TIP3   OH248033   2.723   1.080   0.851  0.0812  0.9005 -0.2799
 8873TIP3    H148034   2.666   1.003   0.861  0.3536  0.8108  0.7977
 8873TIP3    H248035   2.714   1.106   0.760  1.7390 -1.8346 -1.3736
 8874TIP3   OH248036   6.096   3.496   1.225  0.1950 -0.1180  0.5691
 8874TIP3    H148037   6.032   3.430   1.250 -0.5985  1.0875  1.8694
 8874TIP3    H248038   6.174   3.446   1.201 -0.4883 -1.5315  1.1810
 8875TIP3   OH248039   3.552   3.048  11.032  0.3972 -0.5399 -0.1756
 8875TIP3    H148040   3.620   3.070  11.096  0.5337 -0.0174 -0.4860
 8875TIP3    H248041   3.517   3.133  11.005 -3.2602 -0.7818  2.9731
 8876TIP3   OH248042   2.676   4.531   1.435 -0.0445  0.1693 -0.7693
 8876TIP3    H148043   2.764   4.540   1.472 -0.2032 -0.9890 -0.0393
 8876TIP3    H248044   2.689   4.537   1.340  1.3731 -3.1632 -0.9418
 8877TIP3   OH248045   0.153   5.015  13.586  0.0765 -0.1244  0.0047
 8877TIP3    H148046   0.174   5.082  13.522 -0.9186 -1.1715 -1.4707
 8877TIP3    H248047   0.060   4.998  13.575 -0.2754  0.0566  2.1505
 8878TIP3   OH248048   1.911   6.404   2.018  0.1979  0.2418  0.0409
 8878TIP3    H148049   1.892   6.393   2.111  5.1213 -2.1864  1.1102
 8878TIP3    H248050   1.960   6.486   2.013  0.8579 -0.1601 -0.1916
 8879TIP3   OH248051   3.193   0.866  13.390  0.1990 -0.2013  0.1545
 8879TIP3    H148052   3.212   0.959  13.404  0.9605 -0.0845 -1.4119
 8879TIP3    H248053   3.279   0.826  13.378 -0.2011 -0.4260 -2.8161
 8880TIP3   OH248054   6.304   4.163  12.149  0.1000  0.1227  0.1574
 8880TIP3    H148055   6.395   4.183  12.126 -0.3960  1.1418 -1.0193
 8880TIP3    H248056   6.255   4.178  12.069 -1.2612  0.6003  1.0488
 8881TIP3   OH248057   3.023   1.900   4.661  0.1517 -0.1002 -0.6050
 8881TIP3    H148058   2.929   1.916   4.661  0.2221  0.5376  1.3068
 8881TIP3    H248059   3.057   1.953   4.733  1.5387 -2.7642  0.8541
 8882TIP3   OH248060   3.118   2.571  17.014 -0.2447  0.0713 -0.7044
 8882TIP3    H148061   3.095   2.630  16.942 -2.1000  0.0385 -0.1960
 8882TIP3    H248062   3.151   2.492  16.971 -1.2345  0.0851 -1.5364
 8883TIP3   OH248063   1.809   4.099  12.773 -0.1536  0.1389 -0.0716
 8883TIP3    H148064   1.840   4.132  12.688  0.9074 -2.4583 -0.7766
 8883TIP3    H248065   1.784   4.008  12.756  0.3541 -0.5481  2.4482
 8884TIP3   OH248066   2.191   6.696   6.758  0.0799 -0.2028  0.1463
 8884TIP3    H148067   2.219   6.609   6.727 -0.1672 -0.3800  0.4079
 8884TIP3    H248068   2.272   6.740   6.782  0.1527 -0.6760  0.8092
 8885TIP3   OH248069   0.772   4.874   3.562  0.1019  0.0892 -0.4629
 8885TIP3    H148070   0.731   4.887   3.476  2.4363 -0.3774 -1.7314
 8885TIP3    H248071   0.754   4.954   3.610 -2.1342 -0.0451 -0.9528
 8886TIP3   OH248072   3.153   5.424  11.733 -0.4809  0.7527  0.0741
 8886TIP3    H148073   3.067   5.408  11.694 -0.0280  0.9096 -1.0311
 8886TIP3    H248074   3.212   5.367  11.683 -0.4331 -2.2949  3.2445
 8887TIP3   OH248075   5.604   1.170  13.880 -0.1788 -0.0877  0.0784
 8887TIP3    H148076   5.529   1.167  13.822 -0.3356 -0.2504  0.2870
 8887TIP3    H248077   5.611   1.263  13.905 -0.0140  0.0105 -0.3187
 8888TIP3   OH248078   0.314   5.746   2.626 -0.2603  0.0554 -0.6026
 8888TIP3    H148079   0.283   5.837   2.623  0.2608  0.2215 -1.0286
 8888TIP3    H248080   0.234   5.694   2.632 -0.5092  0.5938  0.9954
 8889TIP3   OH248081   6.284   1.448  11.436  0.1570  0.3182 -0.2242
 8889TIP3    H148082   6.231   1.526  11.454 -0.4521 -0.0612 -0.3387
 8889TIP3    H248083   6.228   1.375  11.462  0.8450 -0.0715  0.1780
 8890TIP3   OH248084   6.015   1.530  11.226 -0.4954  0.0878 -0.4105
 8890TIP3    H148085   6.103   1.541  11.190 -0.9843 -0.8708 -2.0298
 8890TIP3    H248086   6.024   1.550  11.319  1.8503 -1.9208 -0.0955
 8891TIP3   OH248087   2.384   4.007  13.355 -0.1408 -0.2472 -0.1386
 8891TIP3    H148088   2.311   3.991  13.295 -0.3270  2.3184 -0.7061
 8891TIP3    H248089   2.343   4.007  13.442 -0.4074 -0.9923 -0.2591
 8892TIP3   OH248090   1.092   4.962  16.477  0.7356 -0.4683  0.3513
 8892TIP3    H148091   1.015   5.019  16.485  0.3443 -0.9317 -0.0039
 8892TIP3    H248092   1.147   4.984  16.552  0.1985 -0.2131  0.6753
 8893TIP3   OH248093   2.199   0.790  12.588  0.3668 -0.2802 -0.0912
 8893TIP3    H148094   2.251   0.779  12.668 -2.3127 -0.6984  1.7069
 8893TIP3    H248095   2.236   0.868  12.546  1.6088  0.1653  1.7293
 8894TIP3   OH248096   1.886   5.672   2.442 -0.1054 -0.0359  0.0192
 8894TIP3    H148097   1.931   5.650   2.360 -1.7748 -0.1568 -0.8950
 8894TIP3    H248098   1.931   5.750   2.474  1.4720 -0.7933 -0.2557
 8895TIP3   OH248099   5.210   2.637   5.682  0.6754  0.1089 -0.2483
 8895TIP3    H148100   5.170   2.649   5.768 -1.4139 -2.0953 -0.8034
 8895TIP3    H248101   5.238   2.545   5.681  1.9720  0.4857 -1.4324
 8896TIP3   OH248102   5.343   4.974  14.928  0.2583 -0.2019  0.5691
 8896TIP3    H148103   5.254   4.953  14.898  0.6377 -1.1459  0.0764
 8896TIP3    H248104   5.349   5.069  14.920 -0.7768 -0.1023  0.8160
 8897TIP3   OH248105   1.064   6.004   4.091  0.0217  0.1069 -0.2929
 8897TIP3    H148106   1.054   6.057   4.170 -0.3634  0.4441 -0.5647
 8897TIP3    H248107   0.980   5.959   4.081 -0.4700  1.2217 -1.3394
 8898TIP3   OH248108   2.273   5.511   0.334 -0.2312 -0.1605  0.5426
 8898TIP3    H148109   2.358   5.495   0.376  0.8392  0.7227 -1.1690
 8898TIP3    H248110   2.261   5.438   0.275 -0.1408  0.2342  0.0264
 8899TIP3   OH248111   5.156   0.443   2.064  0.6863 -0.9677 -0.3606
 8899TIP3    H148112   5.205   0.361   2.073 -0.3420 -1.7214 -1.3925
 8899TIP3    H248113   5.153   0.460   1.970  0.0337 -0.2758 -0.2293
 8900TIP3   OH248114   4.763   5.266  10.948  0.1912 -0.2941 -0.4709
 8900TIP3    H148115   4.678   5.299  10.975  1.0858  2.1479 -0.4055
 8900TIP3    H248116   4.750   5.238  10.857 -0.1502  2.5817 -1.4062
 8901TIP3   OH248117   5.765   1.239   5.520 -0.9374 -0.1851  0.5774
 8901TIP3    H148118   5.711   1.204   5.591 -0.5385  1.1801  1.5988
 8901TIP3    H248119   5.836   1.285   5.565 -0.8182  0.9464 -0.7021
 8902TIP3   OH248120   6.727   1.264  14.425 -0.9295  0.0160  0.2229
 8902TIP3    H148121   6.711   1.178  14.385  0.0448  0.0457 -0.2471
 8902TIP3    H248122   6.692   1.326  14.361  0.7093  0.0683 -0.6859
 8903TIP3   OH248123   4.559   3.517   6.426  0.6650 -0.0127 -0.0055
 8903TIP3    H148124   4.637   3.510   6.370 -1.1075 -0.3191 -2.5837
 8903TIP3    H248125   4.505   3.583   6.384 -1.3272 -1.1724  0.6289
 8904TIP3   OH248126   4.576   4.605  11.234 -0.0326 -0.2196 -0.1803
 8904TIP3    H148127   4.599   4.513  11.225  2.3590  0.1911  0.8045
 8904TIP3    H248128   4.631   4.650  11.170 -1.9384  0.4974 -1.3999
 8905TIP3   OH248129   6.645   5.808   2.948 -0.0570  0.2338 -0.4489
 8905TIP3    H148130   6.727   5.851   2.974  0.5947 -0.2605 -1.6237
 8905TIP3    H248131   6.651   5.720   2.985 -0.1473  0.2467 -0.4000
 8906TIP3   OH248132   0.316   3.966  12.030  0.1878  0.2250  0.3959
 8906TIP3    H148133   0.409   3.961  12.050  0.0154 -1.4703  0.8994
 8906TIP3    H248134   0.312   3.998  11.940  1.2432  0.2570  0.3529
 8907TIP3   OH248135   6.560   0.981  11.692  0.6858 -0.1738  0.0749
 8907TIP3    H148136   6.465   0.984  11.698  0.7437  1.1980  0.6792
 8907TIP3    H248137   6.587   0.927  11.766  0.3817 -0.6473 -0.1531
 8908TIP3   OH248138   1.842   2.121  10.723  0.3596 -0.0855  0.3426
 8908TIP3    H148139   1.915   2.179  10.698  0.3400 -0.3467 -0.3280
 8908TIP3    H248140   1.769   2.149  10.668 -0.4293  0.9825  1.8523
 8909TIP3   OH248141   3.710   2.173  16.781 -0.2762 -0.1908 -0.0241
 8909TIP3    H148142   3.639   2.236  16.793 -0.7842  0.1397 -3.6985
 8909TIP3    H248143   3.772   2.217  16.723  2.8819 -0.6222  2.7378
 8910TIP3   OH248144   3.052   2.320   0.179 -0.1291 -0.1236 -0.7148
 8910TIP3    H148145   3.071   2.387   0.245  1.8025  0.2216 -1.5455
 8910TIP3    H248146   3.139   2.290   0.149 -0.8950 -3.1242 -0.2788
 8911TIP3   OH248147   5.624   0.177   1.275  0.0228  0.1162  0.0977
 8911TIP3    H148148   5.533   0.145   1.284  0.3808 -1.4329 -1.2400
 8911TIP3    H248149   5.625   0.221   1.190  0.9476 -1.6047 -0.8287
 8912TIP3   OH248150   3.733   5.499  17.029  0.6431  0.3580  0.3999
 8912TIP3    H148151   3.823   5.531  17.030  0.4847  0.8234  1.1325
 8912TIP3    H248152   3.728   5.439  17.104  0.7734 -0.9295 -0.6022
 8913TIP3   OH248153   0.446   0.098   5.008 -0.4559  1.0286  0.0925
 8913TIP3    H148154   0.435   0.193   5.002 -0.6965  0.9972  0.0279
 8913TIP3    H248155   0.428   0.077   5.100 -0.6430  1.0152  0.0532
 8914TIP3   OH248156   0.264   3.454   1.344  0.8519 -0.3258 -0.3631
 8914TIP3    H148157   0.186   3.504   1.368  0.3854 -1.1265 -0.1693
 8914TIP3    H248158   0.265   3.457   1.248 -0.2982 -1.5782 -0.4485
 8915TIP3   OH248159   1.819   2.068  15.009  0.0038  0.0821  0.9489
 8915TIP3    H148160   1.869   2.120  15.073 -0.0256  1.5152 -0.1599
 8915TIP3    H248161   1.822   2.119  14.928 -1.8328 -0.6234  0.3846
 8916TIP3   OH248162   2.292   5.854   0.995 -0.3132  0.2650 -0.1054
 8916TIP3    H148163   2.228   5.843   1.065  1.4825 -1.5044  1.3379
 8916TIP3    H248164   2.316   5.947   1.000 -2.4997  0.9339 -0.5414
 8917TIP3   OH248165   6.255   4.941   3.254 -0.0449 -0.4857  0.1362
 8917TIP3    H148166   6.187   5.009   3.255 -1.1451 -1.5370  0.7328
 8917TIP3    H248167   6.283   4.934   3.345 -2.0968 -2.8136  0.7037
 8918TIP3   OH248168   2.489   5.580   3.034  0.1359 -0.3045  0.0466
 8918TIP3    H148169   2.543   5.501   3.031  0.5711 -0.0077  0.0012
 8918TIP3    H248170   2.506   5.625   2.951 -0.4559 -0.3824 -0.1274
 8919TIP3   OH248171   5.978   3.891   0.287 -0.0130  0.2277  0.8070
 8919TIP3    H148172   6.030   3.851   0.217  1.1538  3.6467 -0.5083
 8919TIP3    H248173   5.888   3.888   0.254  0.1729 -0.4021  0.3270
 8920TIP3   OH248174   6.381   0.778   4.388 -0.1240  0.0547 -0.0197
 8920TIP3    H148175   6.417   0.840   4.325 -0.1000  0.1375  0.0754
 8920TIP3    H248176   6.450   0.766   4.453 -0.0264 -0.2837 -0.1868
 8921TIP3   OH248177   2.035   1.988   4.544 -0.8932 -0.2504 -0.2906
 8921TIP3    H148178   1.952   1.981   4.496 -0.7110  0.8629 -0.8189
 8921TIP3    H248179   2.102   1.966   4.479 -0.7258 -0.1919 -0.1366
 8922TIP3   OH248180   0.019   2.461   1.255 -0.0984 -0.4405  0.1013
 8922TIP3    H148181   0.031   2.556   1.259  0.8744 -0.4355 -1.7662
 8922TIP3    H248182   0.037   2.431   1.344  0.2635  1.0434  0.5622
 8923TIP3   OH248183   5.850   1.580   3.740 -0.3028 -0.1324 -0.2519
 8923TIP3    H148184   5.899   1.661   3.757 -1.0225 -0.0916  2.0413
 8923TIP3    H248185   5.774   1.609   3.689 -1.2642  0.9770  1.6584
 8924TIP3   OH248186   1.131   2.905   0.766 -0.1111  0.1037 -0.2951
 8924TIP3    H148187   1.159   2.814   0.751  0.5899  0.1869  0.4042
 8924TIP3    H248188   1.082   2.928   0.688 -0.7755 -1.0624 -0.2570
 8925TIP3   OH248189   1.764   3.343  12.105  0.1094 -0.7522  0.3475
 8925TIP3    H148190   1.743   3.311  12.017 -0.6648  1.8239 -0.4896
 8925TIP3    H248191   1.775   3.438  12.095  1.2936 -0.5291  2.8183
 8926TIP3   OH248192   6.397   3.164   0.670  0.1811  0.4108 -0.6933
 8926TIP3    H148193   6.328   3.160   0.737  3.0961  1.4932  2.7044
 8926TIP3    H248194   6.411   3.257   0.655  0.3396  0.1901 -2.0624
 8927TIP3   OH248195   5.459   5.708  12.930  0.0437  0.7551 -0.0638
 8927TIP3    H148196   5.485   5.650  13.002 -1.5425  1.0964  0.8307
 8927TIP3    H248197   5.411   5.779  12.974  1.2991  2.3720 -1.1974
 8928TIP3   OH248198   6.425   2.690   0.559 -0.1401 -0.1341  0.2449
 8928TIP3    H148199   6.362   2.637   0.510  0.7638 -0.3600 -0.7199
 8928TIP3    H248200   6.406   2.780   0.535 -1.5305  0.0022  1.7069
 8929TIP3   OH248201   1.082   5.824   6.041  0.5935  0.1950  0.0826
 8929TIP3    H148202   1.144   5.757   6.071 -0.0280  0.3056  1.7515
 8929TIP3    H248203   0.997   5.778   6.040  0.4886  0.4037 -0.8305
 8930TIP3   OH248204   6.687   3.610  15.127  0.5617  0.3330 -0.1614
 8930TIP3    H148205   6.655   3.566  15.206 -1.7410  0.1459 -1.1441
 8930TIP3    H248206   6.739   3.543  15.082 -1.1079 -0.7691 -0.5513
 8931TIP3   OH248207   0.122   3.708   1.376  0.4300 -0.6158  0.3093
 8931TIP3    H148208   0.076   3.780   1.421  0.3601 -0.2366 -0.3558
 8931TIP3    H248209   0.062   3.681   1.307  0.6438 -1.0275  0.2816
 8932TIP3   OH248210   5.963   4.965  14.206  0.3542  0.1094 -0.3395
 8932TIP3    H148211   5.932   5.047  14.244  1.9327  0.6222 -0.0804
 8932TIP3    H248212   5.904   4.899  14.240  0.2675  0.8852  1.0881
 8933TIP3   OH248213   3.070   5.317  12.763 -0.2121 -0.0698 -0.2457
 8933TIP3    H148214   2.991   5.286  12.719  0.3015 -0.6971 -0.7537
 8933TIP3    H248215   3.125   5.351  12.692 -0.2346  0.8606  0.1623
 8934TIP3   OH248216   2.553   1.925  15.658  0.4349  0.1947  0.0763
 8934TIP3    H148217   2.619   1.864  15.625  1.2645  1.2419 -0.2557
 8934TIP3    H248218   2.503   1.874  15.722  3.6600  0.2287  2.8960
 8935TIP3   OH248219   1.952   1.561   5.706  0.1838 -0.5055 -0.1530
 8935TIP3    H148220   1.977   1.563   5.613 -1.0111 -1.7525 -0.5358
 8935TIP3    H248221   1.947   1.467   5.727 -2.9702 -0.3458  0.1790
 8936TIP3   OH248222   6.453   4.006  15.048  0.1414  0.1633  0.1257
 8936TIP3    H148223   6.540   3.971  15.067 -0.0988 -0.2575  0.4685
 8936TIP3    H248224   6.395   3.930  15.054 -0.2771  0.4800  0.0910
 8937TIP3   OH248225   2.706   5.780   1.640  0.1428 -0.4385  0.3613
 8937TIP3    H148226   2.737   5.697   1.604  0.6573  0.0486 -0.3468
 8937TIP3    H248227   2.696   5.763   1.734 -2.3560 -2.0881 -0.1214
 8938TIP3   OH248228   2.264   1.796  13.864 -0.4273 -0.4654  0.0723
 8938TIP3    H148229   2.249   1.890  13.878 -1.8867 -0.7828  0.8795
 8938TIP3    H248230   2.326   1.771  13.932  1.5020  0.2633 -1.3459
 8939TIP3   OH248231   1.063   4.610  13.716 -0.6918  0.2870  0.1751
 8939TIP3    H148232   1.039   4.518  13.727 -2.7046  0.7005 -0.4170
 8939TIP3    H248233   1.099   4.614  13.627 -3.5187  0.5588 -1.0538
 8940TIP3   OH248234   1.603   2.223   5.951 -0.2298  0.4033  0.3350
 8940TIP3    H148235   1.511   2.213   5.975 -0.0117 -0.7367  0.7844
 8940TIP3    H248236   1.651   2.206   6.033  0.3958  0.3177 -0.0400
 8941TIP3   OH248237   2.994   6.422   1.923 -0.4185  0.6466 -0.1101
 8941TIP3    H148238   2.936   6.348   1.939 -0.2647  0.1953 -1.5485
 8941TIP3    H248239   2.990   6.437   1.828  0.3189  1.8458  0.0170
 8942TIP3   OH248240   6.676   3.901  16.103  0.2774 -0.1391 -0.9096
 8942TIP3    H148241   6.737   3.962  16.062 -0.2072 -0.0654 -1.5329
 8942TIP3    H248242   6.691   3.911  16.197 -0.9867  2.2243 -0.8933
 8943TIP3   OH248243   1.225   1.873   5.629  0.4114 -0.0970  0.5240
 8943TIP3    H148244   1.289   1.857   5.560 -0.1827 -1.5792  0.2776
 8943TIP3    H248245   1.277   1.905   5.703  1.0845  1.2570 -0.5002
 8944TIP3   OH248246   1.374   5.807   0.552  0.3896  0.0363  0.0746
 8944TIP3    H148247   1.326   5.727   0.576 -2.1032  1.3955 -0.0598
 8944TIP3    H248248   1.443   5.814   0.619 -0.5028 -1.2535  1.1975
 8945TIP3   OH248249   4.310   2.083   1.427  0.0871 -0.6648 -0.1659
 8945TIP3    H148250   4.304   2.072   1.332  0.6087 -2.5524 -0.0202
 8945TIP3    H248251   4.266   2.006   1.463  2.2732 -1.4374  1.0632
 8946TIP3   OH248252   2.463   5.599   6.152 -0.0213 -0.3302  0.0048
 8946TIP3    H148253   2.447   5.643   6.236  0.1777 -0.4740  0.1184
 8946TIP3    H248254   2.484   5.670   6.091 -0.5724 -0.1854 -0.0234
 8947TIP3   OH248255   4.725   4.551  12.927 -0.0861 -0.6025 -0.1729
 8947TIP3    H148256   4.750   4.640  12.952 -1.7151 -0.4251  0.9779
 8947TIP3    H248257   4.780   4.495  12.982 -1.6270 -0.2217  1.9026
 8948TIP3   OH248258   0.564   2.883  15.421  0.2258 -0.0066 -0.5793
 8948TIP3    H148259   0.646   2.931  15.430 -0.4253  1.7037 -2.8792
 8948TIP3    H248260   0.525   2.887  15.509  1.7429  0.7639  0.1041
 8949TIP3   OH248261   6.372   0.439   2.483  0.3429  0.8411 -0.1327
 8949TIP3    H148262   6.416   0.465   2.563 -1.1349 -1.5230  1.5898
 8949TIP3    H248263   6.372   0.343   2.486 -1.7836  0.7084 -1.7899
 8950TIP3   OH248264   0.930   4.995  13.366  0.1071 -0.2182 -0.0067
 8950TIP3    H148265   0.976   4.954  13.293  0.7259  0.2141  0.1334
 8950TIP3    H248266   0.927   5.088  13.342  2.3362  0.3275  1.5319
 8951TIP3   OH248267   2.901   3.943  14.215 -0.6324 -0.2422 -0.8294
 8951TIP3    H148268   2.833   3.967  14.277 -0.6265 -1.2404 -0.4114
 8951TIP3    H248269   2.875   3.856  14.183  1.2423 -1.4324  0.5990
 8952TIP3   OH248270   2.160   4.978  11.691 -0.1434  0.5032  0.2421
 8952TIP3    H148271   2.093   4.957  11.756  0.1855  2.6778  1.4004
 8952TIP3    H248272   2.110   5.003  11.613 -0.7067  1.4007  0.8603
 8953TIP3   OH248273   3.367   1.609  16.262 -0.3646  0.2961 -0.0598
 8953TIP3    H148274   3.311   1.606  16.340 -0.5442  1.6047 -0.1250
 8953TIP3    H248275   3.455   1.621  16.297 -0.3466  0.0875 -0.0309
 8954TIP3   OH248276   2.555   1.103   4.403  0.3443  0.3425 -0.0060
 8954TIP3    H148277   2.598   1.148   4.476  0.3426 -0.8135  0.7345
 8954TIP3    H248278   2.462   1.120   4.416  0.4659  1.8486 -0.9295
 8955TIP3   OH248279   1.374   2.803  11.509 -0.0903  0.0298  0.5104
 8955TIP3    H148280   1.391   2.860  11.583 -0.3436 -2.4453  2.6174
 8955TIP3    H248281   1.279   2.804  11.499 -0.0183  0.8317 -0.2352
 8956TIP3   OH248282   5.307   6.427   0.257 -0.4275  0.0639 -0.1451
 8956TIP3    H148283   5.220   6.406   0.291 -1.7131  1.4061 -2.3925
 8956TIP3    H248284   5.362   6.432   0.335 -1.9119 -2.5605  1.2258
 8957TIP3   OH248285   0.238   2.493   6.435 -0.5550 -0.1780 -0.1550
 8957TIP3    H148286   0.173   2.537   6.489 -1.9095 -1.6954 -0.4400
 8957TIP3    H248287   0.295   2.447   6.497 -1.0627 -0.5352  0.0539
 8958TIP3   OH248288   4.118   3.979   2.766 -0.0758 -0.2662  0.1197
 8958TIP3    H148289   4.185   3.927   2.720  0.5371  0.4617  0.1663
 8958TIP3    H248290   4.094   4.047   2.703 -0.3542 -0.1828  0.3155
 8959TIP3   OH248291   6.690   1.636  16.790  0.0637  0.0173  0.0644
 8959TIP3    H148292   6.779   1.671  16.801 -0.0370 -0.3074  2.6568
 8959TIP3    H248293   6.649   1.694  16.726  0.9250  2.6994  1.7524
 8960TIP3   OH248294   5.865   2.304   2.135  1.1538 -0.4964 -0.2969
 8960TIP3    H148295   5.909   2.327   2.052 -2.0424  0.1229 -1.9830
 8960TIP3    H248296   5.805   2.377   2.151  0.3158 -1.5316  1.5515
 8961TIP3   OH248297   5.818   0.342  16.401 -0.5077  0.4596  0.3525
 8961TIP3    H148298   5.819   0.438  16.402 -0.0907  0.4537  0.6992
 8961TIP3    H248299   5.726   0.319  16.414 -0.7891  0.8200 -0.8577
 8962TIP3   OH248300   3.125   4.551  12.405  0.2975  0.6662 -0.3041
 8962TIP3    H148301   3.072   4.553  12.485  0.2033  2.0733 -0.3725
 8962TIP3    H248302   3.147   4.643  12.389  0.7311  0.3506 -1.6248
 8963TIP3   OH248303   3.055   2.772  10.660  0.2594  0.3285  0.2609
 8963TIP3    H148304   3.000   2.766  10.582 -0.3457 -0.4688  0.7265
 8963TIP3    H248305   3.032   2.694  10.711  1.5368  0.1925  0.6589
 8964TIP3   OH248306   0.306   4.760   0.550  0.2675  0.0226  0.0615
 8964TIP3    H148307   0.283   4.791   0.638 -1.6464  0.4462 -0.5473
 8964TIP3    H248308   0.250   4.684   0.536 -1.0875  1.2455 -1.5959
 8965TIP3   OH248309   6.423   6.655  10.645 -0.6031  0.0259 -0.3423
 8965TIP3    H148310   6.419   6.732  10.589 -0.3583  0.9569  0.8571
 8965TIP3    H248311   6.332   6.630  10.658 -0.8780  1.5020  1.0222
 8966TIP3   OH248312   5.428   0.006  13.600  0.0635 -0.4950 -0.1003
 8966TIP3    H148313   5.511   0.046  13.624  0.2556 -0.8842 -0.1131
 8966TIP3    H248314   5.421   0.022  13.505  0.1776 -0.5563 -0.1199
 8967TIP3   OH248315   3.938   3.387   2.860  0.2744 -0.0447 -0.1070
 8967TIP3    H148316   3.916   3.330   2.786 -0.4724 -0.1898  0.2148
 8967TIP3    H248317   4.008   3.443   2.827 -0.3122  0.1590 -1.0543
 8968TIP3   OH248318   1.648   4.652   4.939  0.5424  0.2367  0.3025
 8968TIP3    H148319   1.714   4.595   4.901  1.5496  2.4174 -1.4707
 8968TIP3    H248320   1.652   4.634   5.033  0.7797 -2.5261 -0.1712
 8969TIP3   OH248321   3.625   4.138   2.128 -0.1786 -0.0002 -0.2129
 8969TIP3    H148322   3.542   4.099   2.154 -0.9507  1.5684 -0.1654
 8969TIP3    H248323   3.689   4.104   2.190 -1.3183  0.8943  1.5492
 8970TIP3   OH248324   2.228   3.219   3.591 -0.4134 -0.1493  0.5370
 8970TIP3    H148325   2.180   3.301   3.601 -0.3122 -0.0093 -0.0717
 8970TIP3    H248326   2.274   3.229   3.507 -1.7729 -1.5242 -0.4319
 8971TIP3   OH248327   2.004   3.591   2.362 -0.6995 -1.0336 -0.3061
 8971TIP3    H148328   2.044   3.630   2.285  1.1686 -1.8819  0.1841
 8971TIP3    H248329   1.947   3.660   2.397  0.3468  0.2321 -1.0223
 8972TIP3   OH248330   6.681   1.989  12.721 -0.4189  0.1771 -0.1492
 8972TIP3    H148331   6.752   2.047  12.746 -1.5876  2.8970 -2.5294
 8972TIP3    H248332   6.722   1.922  12.665  0.6235  0.0138  0.7938
 8973TIP3   OH248333   4.499   5.463   6.822  0.1860  0.1876  0.4506
 8973TIP3    H148334   4.416   5.450   6.866  0.5636 -1.0883  0.8184
 8973TIP3    H248335   4.555   5.392   6.854  0.8472 -0.0540 -1.1472
 8974TIP3   OH248336   3.033   3.934   6.158 -0.1624 -0.1953  0.3780
 8974TIP3    H148337   3.086   3.856   6.141 -2.1285 -1.4740 -0.2119
 8974TIP3    H248338   2.942   3.905   6.146 -0.9247  2.5761 -1.5116
 8975TIP3   OH248339   4.648   3.488  15.324 -0.2011  0.3899 -0.2118
 8975TIP3    H148340   4.657   3.442  15.241  0.4116 -2.0190  1.0682
 8975TIP3    H248341   4.559   3.523  15.322 -0.4331 -0.1995 -1.6103
 8976TIP3   OH248342   1.088   2.299   0.703  0.0125  0.5427  0.2757
 8976TIP3    H148343   1.059   2.347   0.625  0.8894  1.6475  0.5902
 8976TIP3    H248344   1.124   2.217   0.669 -2.5198 -0.4433 -0.1941
 8977TIP3   OH248345   5.214   2.442  14.403  0.3436  0.4960  0.2136
 8977TIP3    H148346   5.301   2.403  14.412 -0.1452 -0.5491  0.5440
 8977TIP3    H248347   5.176   2.436  14.490 -0.2101  0.5965 -0.0181
 8978TIP3   OH248348   2.237   5.310   3.120  0.0359  0.2566 -0.3931
 8978TIP3    H148349   2.287   5.264   3.188  0.0910  1.1787  0.2057
 8978TIP3    H248350   2.270   5.399   3.122 -1.1258  0.7117 -0.4906
 8979TIP3   OH248351   5.934   5.630  14.929  0.1741 -0.6284 -0.0171
 8979TIP3    H148352   5.967   5.547  14.896  1.5779 -0.3934  0.7567
 8979TIP3    H248353   5.923   5.684  14.850  2.1479 -0.5404 -0.2835
 8980TIP3   OH248354   3.750   2.468   6.464 -0.6870 -0.8477 -0.0986
 8980TIP3    H148355   3.789   2.549   6.497 -2.7710  0.5297 -0.7580
 8980TIP3    H248356   3.681   2.498   6.404 -0.7871 -3.1537 -1.2269
 8981TIP3   OH248357   4.426   1.645  12.911 -0.3795  0.3895 -0.0433
 8981TIP3    H148358   4.354   1.594  12.949 -0.3150 -0.8756 -1.4903
 8981TIP3    H248359   4.431   1.614  12.820  2.9555 -0.7374  0.3772
 8982TIP3   OH248360   1.114   0.202  12.292  0.2524  0.0866 -0.0592
 8982TIP3    H148361   1.192   0.255  12.278 -1.1656  1.7676 -2.2342
 8982TIP3    H248362   1.102   0.155  12.209 -0.8197 -0.4381  0.3807
 8983TIP3   OH248363   6.078   1.718   2.911  0.1997  0.3029 -0.6229
 8983TIP3    H148364   6.085   1.776   2.987  0.6148  2.3411 -2.1147
 8983TIP3    H248365   6.140   1.755   2.848  0.4483 -1.7924 -1.6943
 8984TIP3   OH248366   1.095   2.279  15.496 -0.0673  0.7138 -0.0140
 8984TIP3    H148367   1.188   2.279  15.475  0.3670  1.8561  1.7615
 8984TIP3    H248368   1.072   2.187  15.504  0.6244  0.3779 -1.5074
 8985TIP3   OH248369   1.725   3.636   3.218  0.0072  0.0635 -0.7323
 8985TIP3    H148370   1.782   3.560   3.230 -1.6864 -1.4332 -1.8178
 8985TIP3    H248371   1.769   3.689   3.152  0.7571 -0.4030 -0.6202
 8986TIP3   OH248372   3.761   3.884   2.609 -0.4977  0.1210 -0.6775
 8986TIP3    H148373   3.828   3.818   2.630 -1.4076 -0.8235 -0.6646
 8986TIP3    H248374   3.678   3.839   2.625 -1.1419  1.3261 -0.5450
 8987TIP3   OH248375   3.942   5.083   2.447 -0.1574  0.3957 -0.6403
 8987TIP3    H148376   3.952   5.176   2.469 -0.4325  0.4818 -0.8617
 8987TIP3    H248377   3.925   5.084   2.353  0.4234  0.0790 -0.7491
 8988TIP3   OH248378   2.949   6.132  16.210 -0.2503  0.7170 -0.0342
 8988TIP3    H148379   3.009   6.194  16.253  0.3553  0.5330 -0.5813
 8988TIP3    H248380   2.906   6.086  16.282  0.3606  0.7740  0.3802
 8989TIP3   OH248381   5.968   3.220   0.478 -0.0307  0.0317  0.3643
 8989TIP3    H148382   6.012   3.187   0.400 -2.4171 -0.2486 -0.9757
 8989TIP3    H248383   5.896   3.273   0.444  0.7596  2.6420  2.4413
 8990TIP3   OH248384   3.212   6.413  16.822 -0.7250  0.2584  0.4895
 8990TIP3    H148385   3.229   6.458  16.739 -0.5814 -0.3353  0.1888
 8990TIP3    H248386   3.275   6.452  16.883  0.8607 -0.9810 -0.2886
 8991TIP3   OH248387   5.977   3.417  16.832  0.5805  0.1666  0.4118
 8991TIP3    H148388   5.929   3.366  16.897 -0.0829 -0.2084 -0.3565
 8991TIP3    H248389   6.033   3.475  16.883 -0.2700  0.2061  1.3217
 8992TIP3   OH248390   2.836   5.566   0.400  0.2593  0.2842 -0.3817
 8992TIP3    H148391   2.916   5.595   0.355  1.4642  1.0778  2.0721
 8992TIP3    H248392   2.868   5.507   0.468 -1.4273 -0.5402 -0.2788
 8993TIP3   OH248393   3.204   2.720   2.099  0.1551  0.7418  0.2741
 8993TIP3    H148394   3.262   2.796   2.107 -0.3362  1.3430 -1.5048
 8993TIP3    H248395   3.148   2.726   2.177  0.5531  1.8253  0.5077
 8994TIP3   OH248396   6.663   6.477   3.296  0.1447 -0.2425  0.0898
 8994TIP3    H148397   6.673   6.453   3.388  2.1554 -2.3846 -0.5893
 8994TIP3    H248398   6.569   6.480   3.281 -0.2177  0.1664  2.1878
 8995TIP3   OH248399   3.606   6.753   3.521  0.3408 -0.2446  0.1461
 8995TIP3    H148400   3.571   6.796   3.599  0.1136  0.2432 -0.2215
 8995TIP3    H248401   3.546   6.680   3.505  0.2565 -0.2085  0.2955
 8996TIP3   OH248402   0.099   6.192   4.925 -1.4675  0.5825 -0.3813
 8996TIP3    H148403   0.178   6.145   4.952 -0.5567  2.2185 -0.0985
 8996TIP3    H248404   0.129   6.252   4.857 -2.2871  1.8651  0.3635
 8997TIP3   OH248405   3.973   3.052   0.027 -0.2102  0.5000 -0.0175
 8997TIP3    H148406   3.908   2.997   0.071  0.1205  0.2875  0.2072
 8997TIP3    H248407   4.053   3.040   0.077  0.5290 -0.7822 -1.4335
 8998TIP3   OH248408   5.475   3.748  16.013 -0.0606 -0.3300  0.2863
 8998TIP3    H148409   5.427   3.771  16.093  2.4708 -1.9838  2.4481
 8998TIP3    H248410   5.543   3.815  16.006  0.6819 -1.0501  0.4512
 8999TIP3   OH248411   5.680   3.938  14.745  0.5332 -0.5190 -0.0661
 8999TIP3    H148412   5.611   3.875  14.763  0.2853 -0.7958 -1.8066
 8999TIP3    H248413   5.652   3.983  14.665  1.9380 -0.0179 -0.3133
 9000TIP3   OH248414   5.713   0.425   2.017 -0.1017  0.6634 -0.0599
 9000TIP3    H148415   5.638   0.467   1.975 -1.8899 -2.3263 -0.1681
 9000TIP3    H248416   5.743   0.361   1.953  1.8490  0.9941  0.4576
 9001TIP3   OH248417   0.086   4.420  14.407 -0.0928 -0.2567  0.2592
 9001TIP3    H148418   0.027   4.361  14.454 -1.3859 -0.4783 -1.5709
 9001TIP3    H248419   0.099   4.380  14.322  1.9102  0.3290  0.2215
 9002TIP3   OH248420   2.324   3.003  11.810 -0.1008 -0.3673 -0.5501
 9002TIP3    H148421   2.342   3.096  11.825 -0.6510 -0.5038  1.1748
 9002TIP3    H248422   2.276   3.001  11.727 -2.3631  1.1795  0.6083
 9003TIP3   OH248423   3.073   1.163   1.476 -0.1899  0.0974  0.4748
 9003TIP3    H148424   3.079   1.142   1.383  0.9502 -2.2880  1.0001
 9003TIP3    H248425   3.155   1.209   1.496  0.5644 -1.2389  0.6432
 9004TIP3   OH248426   1.482   4.384  15.916 -0.6834  0.1867  0.1869
 9004TIP3    H148427   1.429   4.355  15.991 -0.7887 -0.1118 -0.0009
 9004TIP3    H248428   1.544   4.446  15.954 -0.5818 -0.1373  0.5663
 9005TIP3   OH248429   3.974   6.715   1.353  0.4350  0.3210  0.0405
 9005TIP3    H148430   3.916   6.642   1.378  0.4502  0.5742  0.8653
 9005TIP3    H248431   3.994   6.700   1.261  1.6149 -1.5338  0.5453
 9006TIP3   OH248432   1.310   1.701   0.085  0.0811  1.1207  0.0251
 9006TIP3    H148433   1.223   1.682   0.051  0.9191  1.7137 -2.6638
 9006TIP3    H248434   1.298   1.706   0.180 -2.1940 -1.8346  0.0505
 9007TIP3   OH248435   3.833   5.019  15.507  0.4402  0.2533  0.6305
 9007TIP3    H148436   3.868   5.102  15.538  1.6247  0.8603 -2.0295
 9007TIP3    H248437   3.893   4.992  15.437  0.1279 -2.8899  1.4241
 9008TIP3   OH248438   5.165   2.163  15.930  0.4649  0.3671 -0.2146
 9008TIP3    H148439   5.138   2.246  15.890  0.4053  0.0558 -0.8233
 9008TIP3    H248440   5.084   2.113  15.939  0.7118 -0.2719 -1.3573
 9009TIP3   OH248441   5.941   6.052   2.912 -0.0988 -0.1217 -0.1750
 9009TIP3    H148442   6.026   6.089   2.887 -0.8030  1.6428 -0.1133
 9009TIP3    H248443   5.898   6.033   2.828  0.0757 -0.3342 -0.2164
 9010TIP3   OH248444   4.852   2.766   4.656 -0.7211  0.0847  0.5507
 9010TIP3    H148445   4.790   2.805   4.594  1.2626  1.8064 -0.4730
 9010TIP3    H248446   4.935   2.810   4.637  0.1828  0.0479  3.8880
 9011TIP3   OH248447   3.076   1.338   2.320 -0.0832 -0.6365  0.0641
 9011TIP3    H148448   3.072   1.302   2.232 -1.5324  1.3284 -0.7396
 9011TIP3    H248449   3.093   1.431   2.308  0.1017 -0.3991  1.8765
 9012TIP3   OH248450   6.564   4.852   3.874  0.1232  0.2728 -0.0192
 9012TIP3    H148451   6.599   4.860   3.963 -0.2474  0.6843  0.0933
 9012TIP3    H248452   6.563   4.758   3.857  2.4172  0.2656 -0.4969
 9013TIP3   OH248453   4.980   0.248  11.796 -0.0941  0.2243 -0.2860
 9013TIP3    H148454   5.019   0.195  11.726 -0.9272 -0.9433  0.0964
 9013TIP3    H248455   4.959   0.185  11.865  1.9037  1.5033  1.6219
 9014TIP3   OH248456   1.170   1.010  15.633  0.2708  0.2557 -0.1529
 9014TIP3    H148457   1.196   1.068  15.562  1.8116  0.8682  0.8740
 9014TIP3    H248458   1.086   1.045  15.663  0.1388  0.6380 -0.9363
 9015TIP3   OH248459   4.040   0.891   1.915 -0.2438 -0.1474 -0.6670
 9015TIP3    H148460   4.049   0.985   1.930 -0.3990 -0.1819 -0.3572
 9015TIP3    H248461   4.064   0.851   1.998 -2.6783 -0.2670  0.0646
 9016TIP3   OH248462   6.145   0.200   5.828 -0.5944 -0.0336  0.5386
 9016TIP3    H148463   6.226   0.242   5.797 -0.0336 -1.0300  0.5987
 9016TIP3    H248464   6.152   0.202   5.923  0.2451 -1.7176  0.5448
 9017TIP3   OH248465   3.570   6.183  16.300 -0.2055  0.1321 -0.0416
 9017TIP3    H148466   3.587   6.241  16.226 -3.3092  1.9985  0.5056
 9017TIP3    H248467   3.570   6.241  16.376 -4.3333 -0.1729  0.4341
 9018TIP3   OH248468   2.845   0.317  13.448 -0.1116 -0.6678  0.0824
 9018TIP3    H148469   2.761   0.288  13.485 -1.5139  1.2540 -1.3714
 9018TIP3    H248470   2.861   0.402  13.491 -1.3648  1.2200 -2.8845
 9019TIP3   OH248471   1.352   0.103   2.645 -0.6546 -0.3160  0.0887
 9019TIP3    H148472   1.359   0.192   2.680 -2.2913  1.4542 -3.4777
 9019TIP3    H248473   1.279   0.064   2.693 -0.8619  0.8169  0.7334
 9020TIP3   OH248474   1.115   4.896   4.053  0.5732 -0.4710 -0.2439
 9020TIP3    H148475   1.088   4.914   4.143 -0.3053  1.4062 -0.8243
 9020TIP3    H248476   1.109   4.801   4.044 -1.8598 -0.4983  0.9399
 9021TIP3   OH248477   4.293   2.862  11.922 -0.1398 -0.4622 -0.2547
 9021TIP3    H148478   4.217   2.804  11.913  0.1724 -0.7597 -1.0727
 9021TIP3    H248479   4.320   2.852  12.013 -0.1077 -1.5803 -0.3764
 9022TIP3   OH248480   3.228   6.443  15.753  0.3521  0.0892 -0.8086
 9022TIP3    H148481   3.162   6.382  15.785  1.7115 -0.4805  1.0834
 9022TIP3    H248482   3.217   6.522  15.806  1.4958 -0.2146 -0.0731
 9023TIP3   OH248483   0.598   6.487   1.821 -0.0800  0.3461 -0.3836
 9023TIP3    H148484   0.550   6.507   1.902  1.1840  1.3495  0.1498
 9023TIP3    H248485   0.662   6.421   1.847  0.2014  0.5278 -0.6202
 9024TIP3   OH248486   1.087   1.376  16.570  0.6083  0.0806 -0.5688
 9024TIP3    H148487   1.139   1.296  16.565  1.5592  0.6411 -0.0035
 9024TIP3    H248488   1.030   1.363  16.646  0.4811 -0.2151 -0.7130
 9025TIP3   OH248489   6.098   0.154  12.094 -0.1664 -0.7530 -0.1002
 9025TIP3    H148490   6.191   0.130  12.093  0.0114 -0.0927 -1.0935
 9025TIP3    H248491   6.063   0.111  12.172  0.9837 -0.9618  0.3226
 9026TIP3   OH248492   2.623   0.955   3.108 -0.0411  0.1723 -0.7211
 9026TIP3    H148493   2.671   1.032   3.078  1.5607 -0.6872 -0.4627
 9026TIP3    H248494   2.663   0.932   3.191 -1.2217 -0.3257 -0.2621
 9027TIP3   OH248495   0.560   0.282  17.080  0.0709 -0.1344  0.3343
 9027TIP3    H148496   0.518   0.196  17.075  1.3133 -0.7096 -1.0999
 9027TIP3    H248497   0.618   0.277  17.156 -2.2045  0.6260  2.2623
 9028TIP3   OH248498   6.483   1.109   4.534  0.3948  0.4107  0.4211
 9028TIP3    H148499   6.443   1.030   4.571  1.3489  0.2750  1.2080
 9028TIP3    H248500   6.415   1.176   4.541 -0.1703 -0.1499  0.4293
 9029TIP3   OH248501   0.117   4.799  14.236  0.4473 -0.4059 -0.0838
 9029TIP3    H148502   0.068   4.736  14.182 -0.2648 -0.6089  0.7696
 9029TIP3    H248503   0.190   4.748  14.270  0.2020 -0.6164  0.1349
 9030TIP3   OH248504   2.439   3.502   3.796  0.3311  0.4636 -0.0243
 9030TIP3    H148505   2.457   3.516   3.703 -0.3573  1.7140  0.0040
 9030TIP3    H248506   2.490   3.569   3.841  2.0134 -1.1879  0.6650
 9031TIP3   OH248507   5.937   0.330  15.846 -0.0356 -0.4381 -0.1865
 9031TIP3    H148508   6.014   0.276  15.830  0.5347  0.4197 -0.4007
 9031TIP3    H248509   5.965   0.392  15.914  0.2407  1.4122 -1.8957
 9032TIP3   OH248510   3.691   3.512   2.783 -0.2898  0.0789 -0.1509
 9032TIP3    H148511   3.666   3.420   2.772  1.5211 -0.9330  2.8103
 9032TIP3    H248512   3.786   3.509   2.795 -0.1764  2.3791 -0.1941
 9033TIP3   OH248513   3.619   2.702  13.051  0.5881 -0.3602 -0.4866
 9033TIP3    H148514   3.548   2.729  13.109  1.2414  0.1956  0.0787
 9033TIP3    H248515   3.629   2.608  13.067 -0.3137 -0.5414 -0.9165
 9034TIP3   OH248516   4.154   3.697  16.288  0.1575 -0.3663 -0.4878
 9034TIP3    H148517   4.212   3.644  16.233 -0.1683 -0.5146 -0.6894
 9034TIP3    H248518   4.154   3.784  16.248 -1.3452 -0.8710 -1.6905
 9035TIP3   OH248519   2.603   1.018  17.218 -0.0781  0.1559  0.3664
 9035TIP3    H148520   2.644   1.065  17.291 -0.6726  0.3829  0.5526
 9035TIP3    H248521   2.653   0.936  17.212 -0.5870 -0.2793  1.6170
 9036TIP3   OH248522   1.632   5.255   3.413 -0.1704  0.0080  0.1643
 9036TIP3    H148523   1.572   5.244   3.339  0.1357  0.0688 -0.0970
 9036TIP3    H248524   1.589   5.212   3.486 -0.6057  0.1863  0.0166
 9037TIP3   OH248525   5.263   5.458   2.473  0.3124 -0.3579  0.1951
 9037TIP3    H148526   5.333   5.490   2.415  0.6832  0.1953  0.9377
 9037TIP3    H248527   5.284   5.494   2.558 -0.5047 -0.7718  0.5823
 9038TIP3   OH248528   0.616   4.264   1.305  0.2187  0.5763 -0.4281
 9038TIP3    H148529   0.640   4.323   1.234  0.0909 -0.4468 -1.3408
 9038TIP3    H248530   0.622   4.176   1.267  0.3303 -0.0043  0.8766
 9039TIP3   OH248531   3.163   2.487   0.375  0.2868  0.0717  0.0074
 9039TIP3    H148532   3.152   2.397   0.407 -1.0947  0.3275  0.2812
 9039TIP3    H248533   3.115   2.541   0.437  1.1058  1.0188 -0.1594
 9040TIP3   OH248534   5.129   5.999   0.072  0.2915 -0.6620  0.0238
 9040TIP3    H148535   5.084   5.980   0.155 -1.0576 -0.2179 -0.5750
 9040TIP3    H248536   5.066   6.052   0.023  2.1172  1.4149 -0.2050
 9041TIP3   OH248537   3.355   2.864   5.224  0.7660  0.3228 -0.0184
 9041TIP3    H148538   3.430   2.890   5.171  1.9581  2.1134  2.3399
 9041TIP3    H248539   3.387   2.793   5.279  0.5978  0.7207  0.6095
 9042TIP3   OH248540   2.202   4.623  16.658 -0.0045 -0.0861 -0.3314
 9042TIP3    H148541   2.171   4.544  16.613 -1.2988  1.5473 -2.4892
 9042TIP3    H248542   2.296   4.625  16.642  0.0684 -1.2185 -0.1462
 9043TIP3   OH248543   0.158   2.992  15.680  0.1114  0.9480 -0.5041
 9043TIP3    H148544   0.140   3.051  15.753 -0.5141  2.0561 -1.5206
 9043TIP3    H248545   0.072   2.963  15.650  0.2547  1.6495 -1.6851
 9044TIP3   OH248546   1.947   6.609  11.584 -0.0188 -0.3303 -0.1881
 9044TIP3    H148547   1.869   6.655  11.554  0.9115 -0.1931 -2.6002
 9044TIP3    H248548   2.013   6.626  11.517  0.9938 -3.4588 -0.1738
 9045TIP3   OH248549   6.480   3.007  12.414  0.3083  0.0276 -0.4271
 9045TIP3    H148550   6.517   2.927  12.451 -0.1855  0.2541  0.5932
 9045TIP3    H248551   6.480   3.070  12.486  0.7274  0.9696 -1.2257
 9046TIP3   OH248552   2.577   2.119   4.373  0.0001 -0.3641 -0.1444
 9046TIP3    H148553   2.621   2.034   4.388  0.5788  0.2316  1.8811
 9046TIP3    H248554   2.626   2.181   4.427 -1.4646  0.9482 -0.2529
 9047TIP3   OH248555   0.585   5.332   2.064 -0.2171 -0.2956  0.1641
 9047TIP3    H148556   0.665   5.281   2.073  1.3471  1.7507 -1.1778
 9047TIP3    H248557   0.538   5.291   1.991 -1.5509 -2.7768  2.2520
 9048TIP3   OH248558   5.232   5.618   1.391 -0.3646  0.3592 -0.6250
 9048TIP3    H148559   5.266   5.665   1.315 -0.1732  2.3938  0.6364
 9048TIP3    H248560   5.310   5.590   1.439 -0.4819  0.4047 -0.4065
 9049TIP3   OH248561   6.543   5.639  16.146 -0.0454 -0.4701 -0.8192
 9049TIP3    H148562   6.604   5.588  16.199  1.7420  1.3872 -1.0008
 9049TIP3    H248563   6.479   5.672  16.209  0.2907 -0.7755 -0.3064
 9050TIP3   OH248564   1.660   4.851  13.145 -0.5619 -0.1358  0.1052
 9050TIP3    H148565   1.718   4.848  13.068 -1.1961 -1.0044 -0.3658
 9050TIP3    H248566   1.673   4.938  13.182 -0.2025  0.2844 -0.9664
 9051TIP3   OH248567   5.966   5.390   1.111  0.1309  0.0355 -0.3758
 9051TIP3    H148568   6.060   5.379   1.096  0.2144  1.5619 -1.1898
 9051TIP3    H248569   5.932   5.301   1.119  1.8481 -0.5371  1.3679
 9052TIP3   OH248570   0.723   4.550   1.636  0.1272  0.1701 -0.5438
 9052TIP3    H148571   0.780   4.496   1.581  0.8641  0.0496  0.3048
 9052TIP3    H248572   0.651   4.576   1.579  0.2857 -0.8816 -1.2437
 9053TIP3   OH248573   2.907   4.925   5.374 -0.7202  0.0022  1.1504
 9053TIP3    H148574   2.983   4.867   5.369 -0.8938 -0.1464 -3.7800
 9053TIP3    H248575   2.834   4.868   5.399 -0.5135 -1.6263 -1.6682
 9054TIP3   OH248576   3.018   1.967  13.236  0.2741  0.4782 -0.3386
 9054TIP3    H148577   2.990   1.993  13.149  0.1718  0.0514 -0.4365
 9054TIP3    H248578   3.018   1.871  13.234  0.6045  0.4652  0.0216
 9055TIP3   OH248579   5.030   4.501  12.875 -0.0349  0.2928  0.0077
 9055TIP3    H148580   5.115   4.478  12.912 -0.1938  1.5496  1.2222
 9055TIP3    H248581   4.968   4.441  12.918 -0.1454  1.3927  1.4669
 9056TIP3   OH248582   3.535   0.635  10.912 -0.1836 -0.3006  0.4298
 9056TIP3    H148583   3.524   0.555  10.862 -0.1567 -0.4197  0.6131
 9056TIP3    H248584   3.455   0.685  10.895  0.9950  0.9508 -2.0238
 9057TIP3   OH248585   5.057   4.795  15.776  0.7721  0.0180 -0.1452
 9057TIP3    H148586   5.122   4.780  15.844  0.9109 -1.0309 -0.4857
 9057TIP3    H248587   4.977   4.755  15.810  0.8837 -0.6594 -0.6478
 9058TIP3   OH248588   3.666   0.317   0.490 -0.3108 -0.2923  0.0998
 9058TIP3    H148589   3.672   0.222   0.500 -2.3691 -0.3156  2.0968
 9058TIP3    H248590   3.583   0.331   0.444  0.4111  0.5402 -0.9944
 9059TIP3   OH248591   1.397   0.644  15.106 -0.0983  0.0126 -0.5224
 9059TIP3    H148592   1.354   0.623  15.190  1.0786 -0.7496 -0.0860
 9059TIP3    H248593   1.441   0.727  15.123  1.6450 -1.0048  0.2434
 9060TIP3   OH248594   1.217   5.017   3.635  0.1936  0.1797 -0.3028
 9060TIP3    H148595   1.283   4.980   3.694  0.6792 -1.2488 -1.6726
 9060TIP3    H248596   1.159   4.944   3.614 -0.3242  0.8001 -1.1244
 9061TIP3   OH248597   2.670   3.174  14.718  0.0651  0.5082 -0.3984
 9061TIP3    H148598   2.755   3.203  14.750  0.4820  0.0168 -1.0368
 9061TIP3    H248599   2.688   3.136  14.632 -0.7513  0.1117 -0.4059
 9062TIP3   OH248600   4.760   5.299   0.444 -0.4664  0.4270 -0.1990
 9062TIP3    H148601   4.826   5.266   0.505 -0.4041 -0.0165 -0.5040
 9062TIP3    H248602   4.680   5.253   0.467 -0.3016 -0.1959 -0.8396
 9063TIP3   OH248603   2.267   1.977   4.013 -0.0447 -0.0794 -0.1530
 9063TIP3    H148604   2.208   1.919   3.965  0.6326 -2.4356  1.6938
 9063TIP3    H248605   2.354   1.949   3.986  0.3277 -1.0140  1.8875
 9064TIP3   OH248606   1.509   1.171  14.904 -0.3784  0.0181 -0.0743
 9064TIP3    H148607   1.505   1.209  14.816 -1.5823  0.2707  0.0799
 9064TIP3    H248608   1.467   1.236  14.960  0.8412  0.0966  0.7935
 9065TIP3   OH248609   5.270   2.361  13.340 -0.4968 -0.0419  0.2167
 9065TIP3    H148610   5.308   2.395  13.421 -0.1061  0.5336 -0.2002
 9065TIP3    H248611   5.192   2.313  13.369 -0.5494  0.4317  0.9055
 9066TIP3   OH248612   4.908   0.056   2.714 -0.0479  0.1740 -0.4925
 9066TIP3    H148613   4.987   0.067   2.767 -0.1814 -1.4049  0.1139
 9066TIP3    H248614   4.839   0.100   2.764  0.2332  0.5339 -0.4225
 9067TIP3   OH248615   5.944   5.201   4.852  0.4778  0.0794 -0.4860
 9067TIP3    H148616   5.852   5.200   4.828  0.3700 -0.1727 -0.0814
 9067TIP3    H248617   5.984   5.132   4.799  0.1298 -0.8790  0.4634
 9068TIP3   OH248618   0.559   1.611   1.870 -0.1941 -0.2876  0.1306
 9068TIP3    H148619   0.516   1.655   1.797  1.1882 -0.1668 -0.6297
 9068TIP3    H248620   0.579   1.681   1.933  3.6649  0.6713 -1.8649
 9069TIP3   OH248621   2.950   3.121  11.176  0.2621 -0.1715  0.4540
 9069TIP3    H148622   2.891   3.051  11.204  0.2835  0.3278  1.8301
 9069TIP3    H248623   2.892   3.192  11.149  0.2335 -0.2747  0.2467
 9070TIP3   OH248624   5.001   4.951   3.508 -0.1362  0.0708 -0.3445
 9070TIP3    H148625   5.039   5.001   3.436  1.6175 -1.2254 -0.4097
 9070TIP3    H248626   4.975   5.017   3.572  2.9485  1.1644 -0.0053
 9071TIP3   OH248627   4.200   4.917  12.949  0.0416  0.2317 -0.1792
 9071TIP3    H148628   4.139   4.879  12.886 -1.8933  2.0472  0.4845
 9071TIP3    H248629   4.156   4.907  13.034  1.5932 -0.1800  0.6124
 9072TIP3   OH248630   2.908   1.091   1.714 -0.0964  0.2733 -0.0257
 9072TIP3    H148631   2.953   1.105   1.631  1.3486  2.1807  1.0255
 9072TIP3    H248632   2.977   1.069   1.776 -0.3342  4.0187  1.7994
 9073TIP3   OH248633   1.738   1.071   1.836  0.5666  0.5616  0.4510
 9073TIP3    H148634   1.663   1.044   1.889  0.1710 -1.1560 -0.8922
 9073TIP3    H248635   1.736   1.167   1.840 -1.1366  0.5394  1.2066
 9074TIP3   OH248636   5.308   3.544   5.360 -0.0852 -0.0779  0.1512
 9074TIP3    H148637   5.244   3.494   5.311  1.1421 -1.1394 -0.4273
 9074TIP3    H248638   5.256   3.608   5.410 -1.4731  0.0117 -1.3279
 9075TIP3   OH248639   4.994   5.898   6.054  0.2908  0.0632 -0.1855
 9075TIP3    H148640   5.008   5.856   6.139 -1.7957 -3.3961 -1.3583
 9075TIP3    H248641   5.043   5.844   5.993  1.1944  2.1009 -1.3555
 9076TIP3   OH248642   0.980   0.567   2.780 -0.1494  0.4996 -0.4576
 9076TIP3    H148643   0.898   0.603   2.812  0.0759  2.5102 -1.9815
 9076TIP3    H248644   1.019   0.637   2.728  1.8794 -0.8802 -0.9263
 9077TIP3   OH248645   3.940   6.191   0.484  0.0721  0.1729  0.0763
 9077TIP3    H148646   3.979   6.268   0.524  0.7944 -0.9233  1.5786
 9077TIP3    H248647   3.908   6.138   0.557 -3.1632  0.3808 -1.0099
 9078TIP3   OH248648   3.740   0.309   6.037  0.2982 -0.3212  0.0806
 9078TIP3    H148649   3.758   0.267   6.121 -0.1061 -1.7734 -0.5399
 9078TIP3    H248650   3.826   0.319   5.996  0.6898  1.7602  1.2376
 9079TIP3   OH248651   5.520   6.360   1.610 -0.6011  0.1423  0.3835
 9079TIP3    H148652   5.480   6.347   1.696 -0.8930  0.1510  0.2498
 9079TIP3    H248653   5.590   6.423   1.626 -0.5043 -0.0312  0.6566
 9080TIP3   OH248654   5.629   3.547  12.811 -0.2741  0.0597  0.5460
 9080TIP3    H148655   5.682   3.470  12.832 -0.5645 -0.5727 -0.9120
 9080TIP3    H248656   5.539   3.515  12.810 -0.3560  0.2527 -0.6117
 9081TIP3   OH248657   2.009   2.401  11.721 -0.0735 -0.4894  0.3290
 9081TIP3    H148658   1.936   2.436  11.668 -0.2630 -0.9101  0.3114
 9081TIP3    H248659   2.066   2.359  11.657 -0.5577 -1.4443  0.5053
 9082TIP3   OH248660   2.659   4.349  16.694 -0.2912 -0.1213  0.2386
 9082TIP3    H148661   2.638   4.363  16.602 -0.8492  0.5180  0.4554
 9082TIP3    H248662   2.628   4.428  16.738  0.8372  0.0061  0.8468
 9083TIP3   OH248663   4.908   5.814   1.841  0.2166 -0.6506 -0.2686
 9083TIP3    H148664   4.904   5.774   1.928  0.2363  1.6235  0.8725
 9083TIP3    H248665   4.825   5.862   1.834  0.3145 -0.6374 -1.4365
 9084TIP3   OH248666   2.173   0.327   0.244  0.2734  0.1929 -0.3773
 9084TIP3    H148667   2.256   0.279   0.243  0.0647 -0.1714 -0.8157
 9084TIP3    H248668   2.176   0.381   0.164 -0.9734 -1.7113 -1.8089
 9085TIP3   OH248669   4.456   4.599   4.681 -0.1549 -0.2106 -0.7154
 9085TIP3    H148670   4.424   4.567   4.765 -1.3695 -2.0530 -1.8017
 9085TIP3    H248671   4.523   4.535   4.655  0.3924  0.4841 -1.0463
 9086TIP3   OH248672   3.550   0.429  13.921  0.2112  0.4883 -0.0257
 9086TIP3    H148673   3.459   0.405  13.939 -0.3495  1.2310 -1.7018
 9086TIP3    H248674   3.591   0.348  13.890 -0.4355  0.6133 -1.2277
 9087TIP3   OH248675   4.045   3.038  17.022  0.0763 -0.3092 -0.7299
 9087TIP3    H148676   4.053   2.953  16.979 -1.2471 -1.5120  1.2488
 9087TIP3    H248677   4.043   3.018  17.116  0.6293  1.9972 -0.1541
 9088TIP3   OH248678   5.144   6.019  16.195 -0.0402 -0.1176 -0.3304
 9088TIP3    H148679   5.075   6.075  16.232  2.4205  1.9169  1.4632
 9088TIP3    H248680   5.125   6.019  16.101 -1.8806  1.2145 -0.0294
 9089TIP3   OH248681   3.462   0.426   0.351  0.4402 -0.1866 -0.2661
 9089TIP3    H148682   3.447   0.517   0.377  0.7901  0.2509 -1.5380
 9089TIP3    H248683   3.376   0.385   0.354  0.2017  0.3152 -0.1753
 9090TIP3   OH248684   2.698   4.389  16.026 -0.0276 -0.5912  0.0580
 9090TIP3    H148685   2.670   4.387  15.935 -2.2824 -0.8040  0.7023
 9090TIP3    H248686   2.688   4.480  16.052 -2.5668 -1.0552  0.9465
 9091TIP3   OH248687   0.697   1.106  15.398 -0.1573  0.5165 -0.2445
 9091TIP3    H148688   0.712   1.012  15.383 -0.3863  0.8627 -3.1355
 9091TIP3    H248689   0.632   1.109  15.468 -0.5189 -1.4971 -0.4376
 9092TIP3   OH248690   6.075   1.992   4.148 -0.4548 -0.4907  0.0787
 9092TIP3    H148691   5.995   2.020   4.192 -0.0707 -0.5608  0.8356
 9092TIP3    H248692   6.051   1.910   4.104 -0.3904 -1.3858  1.6496
 9093TIP3   OH248693   4.598   5.556  10.539  0.0982  0.0637  0.6996
 9093TIP3    H148694   4.527   5.550  10.475 -0.6450  1.3396  1.3629
 9093TIP3    H248695   4.582   5.638  10.586  2.0279  0.4025  0.8710
 9094TIP3   OH248696   3.874   3.318  16.477 -0.0681  0.4552  0.1517
 9094TIP3    H148697   3.859   3.334  16.570  0.5567  1.0290  0.1647
 9094TIP3    H248698   3.955   3.366  16.457 -1.0034  1.6235 -1.0364
 9095TIP3   OH248699   2.368   2.958   2.199  0.3271  0.0038 -0.3579
 9095TIP3    H148700   2.283   2.969   2.242  0.1891 -0.8364 -0.3913
 9095TIP3    H248701   2.347   2.953   2.106  0.2699 -1.3190 -0.2995
 9096TIP3   OH248702   3.081   6.701   1.327 -0.4537  0.1730 -0.3303
 9096TIP3    H148703   3.144   6.735   1.263 -0.7594  0.4142 -0.5036
 9096TIP3    H248704   3.013   6.660   1.274  1.1666 -3.1091 -0.1222
 9097TIP3   OH248705   0.939   6.077   1.654  0.3843 -0.4499  0.4315
 9097TIP3    H148706   1.007   6.135   1.619  1.2497 -0.7426  1.5850
 9097TIP3    H248707   0.987   6.010   1.702 -0.6599 -1.5255  0.0246
 9098TIP3   OH248708   4.411   0.899  13.614  0.3866  0.5305 -0.8778
 9098TIP3    H148709   4.329   0.950  13.612 -0.4261 -0.6987 -0.1606
 9098TIP3    H248710   4.479   0.965  13.628 -0.7560  1.3605  1.2997
 9099TIP3   OH248711   5.757   6.250  13.270  0.2532  0.3282 -0.0073
 9099TIP3    H148712   5.681   6.191  13.275  0.1777  0.5122  1.9739
 9099TIP3    H248713   5.746   6.309  13.345  2.6392 -0.0121  0.7063
 9100TIP3   OH248714   4.533   1.170   3.450 -0.3399 -0.2420 -0.9140
 9100TIP3    H148715   4.621   1.184   3.484 -1.1313 -0.3320  1.3299
 9100TIP3    H248716   4.519   1.076   3.458 -0.8138 -0.1606 -0.7587
 9101TIP3   OH248717   3.184   1.656  15.262  0.1930  0.2048 -0.4862
 9101TIP3    H148718   3.174   1.660  15.167  1.5233 -0.8546 -0.7078
 9101TIP3    H248719   3.277   1.639  15.275  0.1570  1.0235  1.0472
 9102TIP3   OH248720   4.611   5.352  16.340  0.5959 -0.0545  0.1311
 9102TIP3    H148721   4.573   5.440  16.345  0.1026 -0.2946  0.7072
 9102TIP3    H248722   4.702   5.363  16.367  0.0761  0.0004  1.9881
 9103TIP3   OH248723   1.629   5.150   0.123  0.1412 -0.3700 -0.8651
 9103TIP3    H148724   1.596   5.211   0.057  0.6673 -0.2371 -1.0118
 9103TIP3    H248725   1.602   5.188   0.206  1.7603  0.8994 -0.8638
 9104TIP3   OH248726   2.580   5.449  11.417  0.2412 -0.5713 -0.7798
 9104TIP3    H148727   2.652   5.495  11.373  0.9920  0.1182  1.0917
 9104TIP3    H248728   2.606   5.357  11.413  0.6861 -0.4394 -1.0697
 9105TIP3   OH248729   0.248   3.538  13.869  0.1186  0.2177  0.6981
 9105TIP3    H148730   0.278   3.480  13.800 -0.1366 -0.0527  0.8107
 9105TIP3    H248731   0.303   3.517  13.944 -0.2057 -0.1267  0.8414
 9106TIP3   OH248732   1.837   2.354   3.998  0.0951 -0.1315 -0.7134
 9106TIP3    H148733   1.925   2.363   4.033 -0.0969 -0.4020 -0.1579
 9106TIP3    H248734   1.780   2.395   4.063  0.0726  3.2918 -2.6463
 9107TIP3   OH248735   5.707   4.553  12.159 -0.1606 -0.4903  0.3682
 9107TIP3    H148736   5.712   4.462  12.130 -0.7669 -0.7199  0.9432
 9107TIP3    H248737   5.776   4.598  12.111  0.2189 -1.2779  0.1629
 9108TIP3   OH248738   3.896   1.591   3.965  0.2248 -0.3088  0.3575
 9108TIP3    H148739   3.943   1.627   4.040  1.2846  1.2551 -0.9746
 9108TIP3    H248740   3.841   1.522   4.002  1.1968 -0.0474  2.4503
 9109TIP3   OH248741   2.693   0.666   1.319  0.2837  0.2497  0.0924
 9109TIP3    H148742   2.766   0.605   1.303  0.0102 -0.7535  2.1904
 9109TIP3    H248743   2.615   0.613   1.304  0.0379  0.3127  1.0864
 9110TIP3   OH248744   2.220   0.519  12.824  0.0116  0.2253  0.1921
 9110TIP3    H148745   2.263   0.446  12.868 -0.2332 -1.2387 -1.8661
 9110TIP3    H248746   2.162   0.478  12.761 -2.0677  2.1927  0.6881
 9111TIP3   OH248747   2.842   4.073   1.438  0.0986  0.4378  0.0922
 9111TIP3    H148748   2.815   4.002   1.380 -1.2582 -0.0396  1.2665
 9111TIP3    H248749   2.893   4.131   1.381 -0.0346 -0.6911 -1.2473
 9112TIP3   OH248750   5.272   4.194   0.532 -0.2007  0.4722  0.0594
 9112TIP3    H148751   5.272   4.175   0.626  1.6838  0.2693  0.0588
 9112TIP3    H248752   5.188   4.237   0.516 -1.7584 -1.8522  1.3243
 9113TIP3   OH248753   0.535   4.772  10.771 -0.7733 -0.0356 -0.1458
 9113TIP3    H148754   0.467   4.760  10.705 -1.7724 -0.9294  1.0044
 9113TIP3    H248755   0.556   4.683  10.800 -0.2675  0.3296  0.6509
 9114TIP3   OH248756   0.992   3.284   0.349  0.0124  0.3284  0.0067
 9114TIP3    H148757   1.018   3.334   0.271  2.9240 -0.0103  0.6491
 9114TIP3    H248758   0.912   3.239   0.323  0.8689  0.2525 -2.7994
 9115TIP3   OH248759   1.522   5.620  12.772 -0.2773  0.8769  0.3795
 9115TIP3    H148760   1.552   5.573  12.849  0.9213 -0.0846 -0.6412
 9115TIP3    H248761   1.436   5.654  12.797  0.0056  0.4490  2.0613
 9116TIP3   OH248762   0.080   1.173  12.555  0.0201 -0.2279  0.1745
 9116TIP3    H148763   0.044   1.241  12.611 -0.5062 -0.7736  0.5212
 9116TIP3    H248764   0.153   1.137  12.605  0.7697  0.5718 -0.3303
 9117TIP3   OH248765   1.269   2.461   1.491 -0.1862 -0.1660 -0.2147
 9117TIP3    H148766   1.223   2.420   1.564 -2.2318 -0.7490 -1.7343
 9117TIP3    H248767   1.204   2.519   1.451  1.6591  2.1234 -0.0790
 9118TIP3   OH248768   1.495   4.007   6.276  0.0805 -0.1176  0.4176
 9118TIP3    H148769   1.542   3.933   6.314 -1.1237 -0.2612  1.6995
 9118TIP3    H248770   1.528   4.083   6.322  1.7199  0.2779 -1.2800
 9119TIP3   OH248771   6.610   1.383   3.495 -0.2407  0.2052 -0.4807
 9119TIP3    H148772   6.521   1.353   3.477 -1.4884  2.5685  1.1977
 9119TIP3    H248773   6.642   1.415   3.410 -0.6755 -1.2882 -1.2486
 9120TIP3   OH248774   3.813   4.494   4.575 -0.3630  0.6617 -0.2148
 9120TIP3    H148775   3.728   4.523   4.608  0.3063  0.9798  1.3072
 9120TIP3    H248776   3.832   4.414   4.623 -0.2843 -0.0325 -1.3592
 9121TIP3   OH248777   5.065   4.121  12.098  0.0852 -0.7092  0.2040
 9121TIP3    H148778   5.115   4.136  12.018 -2.1569  1.0474 -0.9771
 9121TIP3    H248779   5.125   4.146  12.169  1.5223 -0.6194 -0.9904
 9122TIP3   OH248780   0.950   4.668   2.962 -0.7032 -0.0726  0.1026
 9122TIP3    H148781   1.011   4.612   2.915  0.6542  2.5120 -1.4398
 9122TIP3    H248782   0.864   4.634   2.941 -0.0007 -0.5786 -2.2048
 9123TIP3   OH248783   2.956   0.456   2.042 -0.1015  0.6889  0.4608
 9123TIP3    H148784   3.040   0.412   2.029 -1.0733 -1.1287 -0.0654
 9123TIP3    H248785   2.917   0.412   2.117 -0.4543  1.7292  0.9023
 9124TIP3   OH248786   6.380   2.070   4.252  0.1348  0.1584  0.3750
 9124TIP3    H148787   6.320   1.999   4.229  0.8293 -0.7326  1.2253
 9124TIP3    H248788   6.324   2.135   4.296 -0.1491 -0.9134  1.6818
 9125TIP3   OH248789   1.692   6.765  16.467  0.5863 -0.0527 -0.3845
 9125TIP3    H148790   1.598   6.753  16.482  1.1827 -1.8759  2.8147
 9125TIP3    H248791   1.707   6.858  16.481 -0.4235 -0.1581  1.6931
 9126TIP3   OH248792   2.628   4.688  14.410  0.0696 -0.7205  0.2944
 9126TIP3    H148793   2.630   4.782  14.394 -2.1519 -0.5000  0.9341
 9126TIP3    H248794   2.719   4.661  14.406  0.8875  1.6427  1.1031
 9127TIP3   OH248795   4.536   4.798   6.631  0.2371  0.1259  0.1462
 9127TIP3    H148796   4.521   4.768   6.541  1.7000 -1.5343  0.3853
 9127TIP3    H248797   4.473   4.868   6.645 -0.5609 -0.1338 -1.9042
 9128TIP3   OH248798   3.378   6.099  11.261 -0.2061  0.3358  0.1545
 9128TIP3    H148799   3.434   6.140  11.195 -0.6498  0.0591 -0.4002
 9128TIP3    H248800   3.439   6.068  11.328  0.3832 -0.5159 -0.7364
 9129TIP3   OH248801   4.725   6.452   2.337 -0.0293  0.5804  0.4945
 9129TIP3    H148802   4.762   6.493   2.259  2.3283 -0.3968  1.0314
 9129TIP3    H248803   4.689   6.369   2.306  0.3002  0.4932  0.3524
 9130TIP3   OH248804   3.642   2.257  14.269 -0.1978 -0.0626  0.0656
 9130TIP3    H148805   3.645   2.182  14.210 -0.7062  0.4956 -0.6906
 9130TIP3    H248806   3.588   2.228  14.343 -2.5706  0.3445 -1.4160
 9131TIP3   OH248807   6.552   0.216   2.368  0.0333 -0.0245  0.2724
 9131TIP3    H148808   6.585   0.140   2.320  0.4061 -0.5764  1.3717
 9131TIP3    H248809   6.467   0.188   2.402  0.1396  0.0716  0.6196
 9132TIP3   OH248810   4.200   0.560   4.102  0.1449  0.5150  0.2110
 9132TIP3    H148811   4.113   0.522   4.115  0.8357 -1.6735 -0.9758
 9132TIP3    H248812   4.194   0.648   4.139 -1.8612 -0.4018  2.2657
 9133TIP3   OH248813   3.448   6.382   6.664 -0.1779 -0.0806  0.1696
 9133TIP3    H148814   3.388   6.439   6.712 -0.3947 -1.3084  1.4178
 9133TIP3    H248815   3.478   6.319   6.729  1.4395 -0.3194 -0.7476
 9134TIP3   OH248816   3.317   6.558   2.359  0.5117 -0.2426 -0.9398
 9134TIP3    H148817   3.301   6.493   2.290 -1.8494  0.5114 -1.1783
 9134TIP3    H248818   3.260   6.532   2.431  0.4348  0.8816 -0.5757
 9135TIP3   OH248819   0.449   5.789   4.452 -0.0091  0.8918  0.6360
 9135TIP3    H148820   0.460   5.695   4.472  0.2698  0.3539 -1.7921
 9135TIP3    H248821   0.413   5.791   4.364  0.3774  3.1031  0.4818
 9136TIP3   OH248822   1.696   4.189  11.997  0.1894  0.0331  0.4601
 9136TIP3    H148823   1.787   4.218  11.998  0.0344  0.5264  0.4109
 9136TIP3    H248824   1.648   4.260  12.039 -0.1670 -0.2407  0.5116
 9137TIP3   OH248825   3.317   3.418  12.586  0.0562  0.3443 -0.3186
 9137TIP3    H148826   3.412   3.409  12.584 -0.0072 -0.9415  0.8956
 9137TIP3    H248827   3.285   3.332  12.614 -1.4220  1.0171  0.1738
 9138TIP3   OH248828   6.407   0.950   0.747 -0.1199  0.3425  0.0361
 9138TIP3    H148829   6.386   0.942   0.653 -1.8636 -0.2283  0.4296
 9138TIP3    H248830   6.440   1.039   0.756  0.9846  0.1021 -1.2662
 9139TIP3   OH248831   5.151   3.944  12.775 -0.3931  0.3126 -0.5765
 9139TIP3    H148832   5.193   3.869  12.733  0.9275 -0.3624  1.7219
 9139TIP3    H248833   5.224   3.996  12.809 -1.3444  0.6226  1.0999
 9140TIP3   OH248834   5.332   2.166  17.121  0.9750  0.4796  0.2397
 9140TIP3    H148835   5.286   2.175  17.038  1.2837  0.8539  0.1070
 9140TIP3    H248836   5.284   2.224  17.181  0.1937 -0.4836  0.5695
 9141TIP3   OH248837   1.244   5.175  12.955 -0.2673 -0.1469 -0.0891
 9141TIP3    H148838   1.325   5.130  12.931  0.7595  0.5995  1.7313
 9141TIP3    H248839   1.267   5.267  12.957 -0.5412 -0.0463  2.3516
 9142TIP3   OH248840   1.948   4.058  15.880 -0.1253  0.5899  0.3843
 9142TIP3    H148841   1.992   4.044  15.796  1.3726  1.0565  1.0462
 9142TIP3    H248842   2.002   4.011  15.943 -0.8215  0.8403  1.1786
 9143TIP3   OH248843   4.328   1.698   1.639 -0.1551 -0.1560 -0.4496
 9143TIP3    H148844   4.296   1.732   1.722 -0.7875 -0.9129 -0.3787
 9143TIP3    H248845   4.317   1.603   1.645 -1.9148 -0.1281 -2.0860
 9144TIP3   OH248846   3.967   5.981  12.431 -0.8729 -0.0152 -0.8311
 9144TIP3    H148847   3.961   6.021  12.518 -0.3182 -0.1940 -0.7097
 9144TIP3    H248848   3.999   6.051  12.374 -1.0038  0.0319 -0.8491
 9145TIP3   OH248849   6.286   3.434   3.337  0.3826  0.1449 -0.2900
 9145TIP3    H148850   6.370   3.477   3.353  0.6808  0.2576 -1.9571
 9145TIP3    H248851   6.221   3.502   3.353  0.6872  0.4437 -0.3120
 9146TIP3   OH248852   2.191   4.821   1.482 -0.2083 -0.8579  0.1240
 9146TIP3    H148853   2.274   4.780   1.505  0.7027  0.8726  0.1177
 9146TIP3    H248854   2.161   4.864   1.562 -0.9119 -1.1532  0.0302
 9147TIP3   OH248855   1.633   6.054  13.130  0.2087 -0.0836 -0.0687
 9147TIP3    H148856   1.714   6.068  13.179 -0.0297  0.8959  0.0545
 9147TIP3    H248857   1.605   6.142  13.105 -0.8392 -0.4172 -0.0805
 9148TIP3   OH248858   6.076   0.705  12.478 -0.2519  0.1138 -0.9847
 9148TIP3    H148859   6.068   0.732  12.569 -1.1504  1.3606 -1.4035
 9148TIP3    H248860   6.103   0.784  12.432  2.2662 -0.9780 -1.5351
 9149TIP3   OH248861   1.142   2.957   1.788 -0.0605 -0.3579  0.6560
 9149TIP3    H148862   1.083   3.019   1.829 -0.5125  0.5715 -1.2885
 9149TIP3    H248863   1.180   2.907   1.861 -0.3970  1.5403  2.1914
 9150TIP3   OH248864   6.769   3.600  16.129 -0.2374  0.5326  0.7737
 9150TIP3    H148865   6.740   3.691  16.125 -0.9516  0.2539 -1.5436
 9150TIP3    H248866   6.779   3.573  16.038  0.6779 -1.5120  1.4036
 9151TIP3   OH248867   0.525   2.113   4.104  0.0280 -0.6754 -0.1420
 9151TIP3    H148868   0.434   2.144   4.104  0.2403  0.0533  1.1387
 9151TIP3    H248869   0.576   2.191   4.126  0.8584 -1.3354  0.3118
 9152TIP3   OH248870   1.106   4.323  11.702  0.1421  0.0266 -0.2048
 9152TIP3    H148871   1.123   4.296  11.793 -1.3733  1.3796  0.5492
 9152TIP3    H248872   1.192   4.348  11.668  0.8449 -1.1621  0.6007
 9153TIP3   OH248873   2.381   5.776  12.392  0.4149  0.8109  0.0603
 9153TIP3    H148874   2.298   5.802  12.354  1.0091 -0.7604 -2.6307
 9153TIP3    H248875   2.408   5.850  12.446 -2.0168  1.9168 -0.1141
 9154TIP3   OH248876   3.519   3.417  14.053 -0.0744 -0.3658 -0.6199
 9154TIP3    H148877   3.501   3.429  14.147  1.6074 -0.7627 -0.2229
 9154TIP3    H248878   3.509   3.505  14.016 -0.6706 -0.1893 -0.0610
 9155TIP3   OH248879   3.645   4.609  13.037  0.3422  0.4256 -0.0626
 9155TIP3    H148880   3.721   4.667  13.036  0.9156 -0.1826  2.2348
 9155TIP3    H248881   3.681   4.522  13.051 -0.6718 -0.1811 -1.0479
 9156TIP3   OH248882   4.532   4.947   4.121  0.4792  0.1296  0.0813
 9156TIP3    H148883   4.490   5.033   4.124 -3.2008 -1.4690 -0.5460
 9156TIP3    H248884   4.516   4.909   4.208  3.4591  0.5500  0.9105
 9157TIP3   OH248885   6.147   5.307   5.652 -0.2354 -0.2861 -0.9374
 9157TIP3    H148886   6.059   5.281   5.623 -0.7512  0.3417  0.0097
 9157TIP3    H248887   6.158   5.265   5.737 -0.8348  1.9518  0.3323
 9158TIP3   OH248888   3.488   3.693  16.267  0.5022 -0.0982 -0.4983
 9158TIP3    H148889   3.443   3.731  16.192 -1.2067 -3.4753 -1.3616
 9158TIP3    H248890   3.580   3.685  16.239  0.0375 -0.5808 -1.9565
 9159TIP3   OH248891   2.036   4.623   4.275  0.0361  0.1927 -0.1858
 9159TIP3    H148892   2.057   4.716   4.280 -3.2003  1.0019  0.2693
 9159TIP3    H248893   1.941   4.620   4.265 -0.0276 -3.0942  0.3081
 9160TIP3   OH248894   3.311   3.486   2.873 -0.0516 -0.4169  0.1409
 9160TIP3    H148895   3.253   3.412   2.855 -2.1161  0.7306  1.7124
 9160TIP3    H248896   3.387   3.448   2.917 -0.7848 -1.6727  0.3441
 9161TIP3   OH248897   5.842   0.476  16.094  0.5250 -0.2187  0.3504
 9161TIP3    H148898   5.851   0.382  16.112 -0.4081 -0.3835  0.0328
 9161TIP3    H248899   5.874   0.519  16.173 -0.3305 -0.8411  1.0573
 9162TIP3   OH248900   6.407   4.077   4.198 -0.0903  0.0572 -0.1160
 9162TIP3    H148901   6.391   4.025   4.277  0.3204 -1.2203 -0.8333
 9162TIP3    H248902   6.495   4.051   4.171  0.7960  2.3344  0.3617
 9163TIP3   OH248903   3.786   2.055  14.498 -0.3007  0.3712  0.1909
 9163TIP3    H148904   3.750   2.063  14.587  0.2171 -1.9613  0.6799
 9163TIP3    H248905   3.880   2.044  14.512 -0.3271 -1.0274 -0.5352
 9164TIP3   OH248906   1.062   2.348  15.787  0.1381  0.3235  0.5343
 9164TIP3    H148907   1.067   2.374  15.695  1.0607  2.5056  1.1420
 9164TIP3    H248908   1.151   2.322  15.810 -0.4645 -2.0714  0.3600
 9165TIP3   OH248909   2.907   4.465  15.564  0.0515 -0.1646  0.1259
 9165TIP3    H148910   2.989   4.511  15.544  0.4917 -0.8990  0.1869
 9165TIP3    H248911   2.839   4.516  15.520  0.2928  1.5494  1.6263
 9166TIP3   OH248912   6.120   4.298  10.887 -0.4256  0.5433 -0.5635
 9166TIP3    H148913   6.037   4.329  10.851 -0.6701  0.6598  0.0838
 9166TIP3    H248914   6.176   4.375  10.889 -0.0263  0.3056 -1.7288
 9167TIP3   OH248915   0.289   5.321   2.705  0.2623 -0.2912  0.3063
 9167TIP3    H148916   0.291   5.229   2.678 -0.8315 -0.6728  1.4302
 9167TIP3    H248917   0.319   5.369   2.628  0.7533 -1.5769 -0.3345
 9168TIP3   OH248918   0.208   5.401  16.233 -0.0043  0.1485  0.2417
 9168TIP3    H148919   0.118   5.429  16.251 -0.0883  1.3550 -1.7316
 9168TIP3    H248920   0.260   5.438  16.304 -0.8958  0.4883  0.7318
 9169TIP3   OH248921   1.770   5.885   1.201  0.4706 -0.0989 -0.4272
 9169TIP3    H148922   1.702   5.909   1.138  0.8095 -0.0000 -0.7625
 9169TIP3    H248923   1.822   5.819   1.157  0.7391  0.0029 -0.2658
 9170TIP3   OH248924   4.727   5.974   5.994  0.2544  0.0879 -0.7232
 9170TIP3    H148925   4.683   5.889   5.999 -0.1036  0.1999 -1.8620
 9170TIP3    H248926   4.813   5.959   6.033 -0.0832 -0.6039 -0.2232
 9171TIP3   OH248927   5.228   5.041  12.111  0.4496  0.1744  0.0598
 9171TIP3    H148928   5.239   5.129  12.145  0.6855 -0.6431  2.2929
 9171TIP3    H248929   5.306   5.025  12.058  1.3947  0.6151  1.2803
 9172TIP3   OH248930   0.071   1.172  15.477  0.0929  0.2241  0.3920
 9172TIP3    H148931   0.089   1.099  15.535  0.4896 -0.5416 -0.6602
 9172TIP3    H248932   0.157   1.210  15.459  0.0650 -0.0189 -0.2843
 9173TIP3   OH248933   0.713   5.472   5.235  0.2362  0.4110 -0.0145
 9173TIP3    H148934   0.729   5.545   5.296  0.0453  1.3741 -1.0731
 9173TIP3    H248935   0.695   5.397   5.291 -0.8436  1.4753  1.1211
 9174TIP3   OH248936   4.112   5.036  10.865  0.2280 -0.3172  0.2114
 9174TIP3    H148937   4.150   5.118  10.833 -1.4526 -0.5267 -2.6331
 9174TIP3    H248938   4.175   4.969  10.840  1.0950 -0.0554  1.5848
 9175TIP3   OH248939   3.121   2.066   3.352  0.3776  0.0862  0.3468
 9175TIP3    H148940   3.129   1.974   3.374 -1.3484  0.0126  0.7493
 9175TIP3    H248941   3.044   2.097   3.400 -0.3225  1.2185 -1.3930
 9176TIP3   OH248942   4.255   3.706  11.774 -0.0973  0.7844  0.1042
 9176TIP3    H148943   4.327   3.711  11.836  0.1256  1.1289 -0.1823
 9176TIP3    H248944   4.178   3.734  11.824  0.1832  1.6425  0.0643
 9177TIP3   OH248945   3.480   5.300  16.164  0.0267  0.1540  0.5065
 9177TIP3    H148946   3.565   5.268  16.195  0.3816  1.4607  0.9156
 9177TIP3    H248947   3.423   5.295  16.240  0.3546  1.4334  0.8473
 9178TIP3   OH248948   2.714   5.339   0.168 -0.2690  0.9652 -0.0793
 9178TIP3    H148949   2.805   5.365   0.158 -0.1838  0.5080 -0.5146
 9178TIP3    H248950   2.683   5.389   0.243  0.4320  0.8866  0.2711
 9179TIP3   OH248951   6.544   3.501   3.437 -0.4809  0.4846 -0.6548
 9179TIP3    H148952   6.628   3.456   3.423  0.1970  1.2920  0.6889
 9179TIP3    H248953   6.541   3.519   3.531 -1.7015  1.3776 -0.8397
 9180TIP3   OH248954   3.110   0.822   0.693 -0.4132  0.1238 -1.1280
 9180TIP3    H148955   3.129   0.728   0.684 -1.7157 -0.1727 -1.0375
 9180TIP3    H248956   3.087   0.832   0.786 -0.4009  0.5059 -1.1673
 9181TIP3   OH248957   5.765   5.036  15.474 -0.3415 -0.0316 -0.1112
 9181TIP3    H148958   5.820   5.012  15.548  0.3345 -1.2958 -0.9841
 9181TIP3    H248959   5.682   4.992  15.490 -0.5422  0.4931  0.3527
 9182TIP3   OH248960   0.252   4.447   2.129  0.1014 -0.2631  0.2838
 9182TIP3    H148961   0.332   4.408   2.163  0.9778  0.4193 -0.9287
 9182TIP3    H248962   0.194   4.451   2.205  0.4824 -2.5314  0.7770
 9183TIP3   OH248963   0.492   1.459   4.397  0.1374 -0.3904 -0.1757
 9183TIP3    H148964   0.523   1.441   4.308  0.6390  0.2671 -0.1499
 9183TIP3    H248965   0.568   1.441   4.452 -0.1638 -0.7653  0.1171
 9184TIP3   OH248966   0.434   3.846   2.422 -0.5461 -0.2131  0.1842
 9184TIP3    H148967   0.458   3.936   2.446 -0.7987  0.4393 -1.8427
 9184TIP3    H248968   0.518   3.802   2.407 -0.4468  0.2421 -0.6535
 9185TIP3   OH248969   1.256   1.386   2.486 -0.2270 -0.1709  0.1823
 9185TIP3    H148970   1.330   1.332   2.460  1.7961  1.7437  1.5939
 9185TIP3    H248971   1.236   1.357   2.575  0.6651  1.0707  0.8293
 9186TIP3   OH248972   1.486   2.713  17.072  0.2156 -0.6662  0.7613
 9186TIP3    H148973   1.393   2.714  17.049  0.9545 -0.1792 -2.6542
 9186TIP3    H248974   1.532   2.727  16.989  3.3416  0.4723  2.5225
 9187TIP3   OH248975   1.893   2.886  14.294 -0.0749  0.4480  0.1159
 9187TIP3    H148976   1.806   2.893  14.255  0.5558  1.5318 -1.1885
 9187TIP3    H248977   1.887   2.936  14.375 -0.5329  1.0130 -0.2501
 9188TIP3   OH248978   0.673   1.308  13.266  0.5539 -0.3024 -0.3669
 9188TIP3    H148979   0.600   1.272  13.317  0.8897 -1.9431 -0.9873
 9188TIP3    H248980   0.632   1.373  13.208 -0.2682 -0.5022 -0.0246
 9189TIP3   OH248981   3.827   6.618   5.517  0.8677 -0.4225  0.1746
 9189TIP3    H148982   3.891   6.559   5.557  1.5898  2.3686  3.6521
 9189TIP3    H248983   3.742   6.577   5.537  1.3859 -0.9597  1.4036
 9190TIP3   OH248984   0.467   3.100   0.846 -0.0178  0.6448 -0.3511
 9190TIP3    H148985   0.443   3.009   0.827  1.2365 -0.2552  1.9159
 9190TIP3    H248986   0.553   3.111   0.805  0.4660  0.3025  0.5300
 9191TIP3   OH248987   1.209   1.913  16.919 -0.0595 -0.6190 -0.1356
 9191TIP3    H148988   1.301   1.935  16.903 -0.0918 -0.9114 -0.7714
 9191TIP3    H248989   1.207   1.817  16.920 -0.4297 -0.6190 -0.5786
 9192TIP3   OH248990   1.815   5.923   3.554  0.0043  0.1691  0.2142
 9192TIP3    H148991   1.751   5.918   3.483 -0.3196  2.0042  0.3283
 9192TIP3    H248992   1.867   6.001   3.534  3.1723 -1.9569 -0.6209
 9193TIP3   OH248993   3.850   2.872  11.321 -0.1044  0.0371 -0.3422
 9193TIP3    H148994   3.871   2.828  11.404  2.2687 -0.3195 -1.0615
 9193TIP3    H248995   3.769   2.830  11.292 -0.8364 -0.0131  1.6494
 9194TIP3   OH248996   5.360   1.808   4.154 -0.0265 -0.1907 -0.7210
 9194TIP3    H148997   5.419   1.733   4.148  0.7447  0.2167  1.2910
 9194TIP3    H248998   5.414   1.879   4.187 -1.2783  0.6515 -0.4070
 9195TIP3   OH248999   6.026   4.200  13.189 -0.0993  0.4790  0.1550
 9195TIP3    H149000   5.962   4.270  13.179 -0.0718  0.3662 -0.8929
 9195TIP3    H249001   5.975   4.119  13.185  0.2427  0.3089 -2.5046
 9196TIP3   OH249002   3.052   2.826  12.260 -0.1590  0.1355  0.2169
 9196TIP3    H149003   3.022   2.736  12.248  0.0576  0.0659  0.2096
 9196TIP3    H249004   3.123   2.837  12.197  0.4128  0.0335  0.8388
 9197TIP3   OH249005   4.374   4.056   2.660 -0.4458 -0.0742 -0.2408
 9197TIP3    H149006   4.342   3.985   2.605  0.2673  0.8429 -1.9156
 9197TIP3    H249007   4.319   4.131   2.636  0.5765  0.6013 -0.5112
 9198TIP3   OH249008   0.256   1.663   5.993 -0.2978  0.0996  0.5073
 9198TIP3    H149009   0.262   1.725   6.066  1.6553  0.5380  0.0453
 9198TIP3    H249010   0.327   1.689   5.934  0.0757 -2.0870 -0.0932
 9199TIP3   OH249011   1.899   2.347   1.241  0.1728 -0.2019 -0.0883
 9199TIP3    H149012   1.821   2.369   1.292  0.5408  0.2970  0.2635
 9199TIP3    H249013   1.967   2.333   1.307  1.0600  1.9802 -0.4622
 9200TIP3   OH249014   6.150   3.659  15.649  0.0793  0.7249 -0.6031
 9200TIP3    H149015   6.215   3.728  15.637 -0.8011  1.9352  1.1527
 9200TIP3    H249016   6.077   3.702  15.693 -0.7508 -1.2236  0.0403
 9201TIP3   OH249017   3.284   0.992  13.677  0.1692  0.1693  0.2420
 9201TIP3    H149018   3.366   1.010  13.631 -0.0844  1.2766  0.1995
 9201TIP3    H249019   3.217   0.992  13.609  0.4248 -4.0262 -0.3033
 9202TIP3   OH249020   3.962   6.093  15.514  0.2413  0.2082  0.7072
 9202TIP3    H149021   3.996   6.168  15.464  0.1586  0.5742  1.1964
 9202TIP3    H249022   4.019   6.020  15.491 -0.1765  0.2154 -0.4203
 9203TIP3   OH249023   3.551   0.128  14.709 -0.9173 -0.0052 -0.0517
 9203TIP3    H149024   3.600   0.046  14.704 -1.5496 -0.3297 -1.6099
 9203TIP3    H249025   3.459   0.100  14.712 -1.0732  0.5965  2.4326
 9204TIP3   OH249026   5.284   5.709  15.700  0.4871  0.5185 -0.0072
 9204TIP3    H149027   5.342   5.687  15.773 -1.4754 -0.4467  1.3545
 9204TIP3    H249028   5.305   5.644  15.633  2.1337  1.2589 -0.2765
 9205TIP3   OH249029   6.152   0.396  16.028 -0.2294 -0.9075  0.0247
 9205TIP3    H149030   6.154   0.326  16.092 -2.0549 -1.0921 -0.0864
 9205TIP3    H249031   6.139   0.476  16.079  2.8742 -0.4043  0.2619
 9206TIP3   OH249032   6.593   4.194   2.427 -0.0888 -0.1355  0.2781
 9206TIP3    H149033   6.641   4.222   2.349  0.5752 -1.0839  0.3357
 9206TIP3    H249034   6.576   4.101   2.413 -2.0988  0.2017  0.1783
 9207TIP3   OH249035   1.778   3.474   2.187 -0.7340 -0.7184 -0.0342
 9207TIP3    H149036   1.827   3.397   2.160 -0.5024 -1.3064  1.8838
 9207TIP3    H249037   1.842   3.528   2.233 -1.2039 -0.0064 -0.1984
 9208TIP3   OH249038   0.599   2.571   1.584  0.4419 -0.0518 -0.7166
 9208TIP3    H149039   0.544   2.508   1.630  1.4037  0.2253  0.9093
 9208TIP3    H249040   0.537   2.631   1.543 -0.5194  0.3328  1.1770
 9209TIP3   OH249041   5.527   0.584   0.469 -0.2885 -0.4981  0.2006
 9209TIP3    H149042   5.602   0.525   0.461  0.5412  0.5587  0.0879
 9209TIP3    H249043   5.470   0.541   0.533 -0.0020 -1.7200 -0.3224
 9210TIP3   OH249044   5.621   6.086   1.585 -0.1318 -0.5293  0.0812
 9210TIP3    H149045   5.564   6.042   1.522  0.5959 -2.0018  0.4139
 9210TIP3    H249046   5.606   6.179   1.569 -0.1147 -0.8439 -2.1441
 9211TIP3   OH249047   1.026   6.607  13.254 -0.4842 -0.0566  0.5741
 9211TIP3    H149048   1.068   6.542  13.197  0.2784  0.3966  0.5930
 9211TIP3    H249049   1.009   6.682  13.196 -0.1083  0.2376  0.8364
 9212TIP3   OH249050   0.464   2.965   4.611 -0.0091  0.4183  0.3430
 9212TIP3    H149051   0.432   3.006   4.692 -0.7163  0.8680 -0.1554
 9212TIP3    H249052   0.504   2.882   4.641 -0.1603  0.6260  1.1602
 9213TIP3   OH249053   3.029   6.375   4.255  0.1949 -0.2778  0.0201
 9213TIP3    H149054   2.981   6.316   4.196 -2.4316  1.5986  0.0971
 9213TIP3    H249055   3.000   6.463   4.229  0.9480  0.7527  2.4438
 9214TIP3   OH249056   0.547   0.115   1.399 -0.2174 -0.7866  0.4570
 9214TIP3    H149057   0.550   0.167   1.480 -0.9826 -0.0264  0.0131
 9214TIP3    H249058   0.456   0.121   1.370  0.1793 -0.5198 -0.7967
 9215TIP3   OH249059   5.738   5.270  15.054 -0.0283 -0.6087 -0.2175
 9215TIP3    H149060   5.713   5.187  15.094  1.3922 -1.8366 -1.7521
 9215TIP3    H249061   5.833   5.274  15.065  0.4332 -0.9717 -3.2889
 9216TIP3   OH249062   0.440   0.891  17.148 -0.2145 -0.4316  0.6710
 9216TIP3    H149063   0.469   0.900  17.239 -0.3591 -1.6299  0.8646
 9216TIP3    H249064   0.407   0.801  17.143 -0.8755 -0.1438 -0.3868
 9217TIP3   OH249065   5.806   2.018  17.104 -0.1723  0.0084  0.4485
 9217TIP3    H149066   5.765   1.940  17.140 -0.0817 -0.1201  0.2775
 9217TIP3    H249067   5.761   2.091  17.147  0.8441 -0.1431  1.8402
 9218TIP3   OH249068   2.614   2.920   1.940 -0.2733 -0.1211  0.1296
 9218TIP3    H149069   2.652   2.988   1.885  1.2707 -0.8509  0.2505
 9218TIP3    H249070   2.670   2.844   1.927 -1.0495 -0.9067  1.1860
 9219TIP3   OH249071   1.755   5.254  13.710  0.3316 -0.5309 -0.2392
 9219TIP3    H149072   1.792   5.166  13.708 -1.1515 -1.2017  0.2264
 9219TIP3    H249073   1.807   5.301  13.775  0.6133 -1.3182  0.1126
 9220TIP3   OH249074   4.108   0.562  15.597  0.0586  0.5462 -0.3412
 9220TIP3    H149075   4.184   0.506  15.583  1.0391  2.0459 -1.2290
 9220TIP3    H249076   4.116   0.593  15.687 -0.7188 -1.0235  0.2996
 9221TIP3   OH249077   0.098   4.650   0.828 -0.6412 -0.2298 -0.6269
 9221TIP3    H149078   0.144   4.582   0.780  0.9715 -0.2383  0.8498
 9221TIP3    H249079   0.087   4.615   0.916 -1.3338  0.7454 -0.3022
 9222TIP3   OH249080   0.350   2.746  16.321  0.1998  0.5388  0.2105
 9222TIP3    H149081   0.355   2.838  16.293  1.1470 -0.0359 -1.6415
 9222TIP3    H249082   0.314   2.700  16.246  1.5617 -0.8866  0.3856
 9223TIP3   OH249083   6.581   0.447   1.887 -0.5435  1.0157 -0.3932
 9223TIP3    H149084   6.487   0.463   1.901 -0.4174  0.6890  0.8836
 9223TIP3    H249085   6.602   0.374   1.945  0.0608 -0.3364 -2.2059
 9224TIP3   OH249086   5.705   1.401  16.212 -0.1520  0.5140  0.0821
 9224TIP3    H149087   5.618   1.427  16.241 -0.5581 -0.6380 -0.0664
 9224TIP3    H249088   5.764   1.466  16.252 -0.8881  0.1948  1.7618
 9225TIP3   OH249089   0.493   2.793  14.804 -0.1906 -0.8262  0.2150
 9225TIP3    H149090   0.490   2.878  14.847  0.9627  0.0855 -1.4087
 9225TIP3    H249091   0.428   2.741  14.851 -0.4906  0.7378  1.6499
 9226TIP3   OH249092   1.267   0.992  14.117 -0.0896 -0.4606  0.5898
 9226TIP3    H149093   1.358   1.019  14.105  0.5160 -2.8031 -0.9027
 9226TIP3    H249094   1.217   1.048  14.058  0.6236 -0.2790  0.1424
 9227TIP3   OH249095   1.253   0.860  16.443 -0.4487 -0.4292  0.0531
 9227TIP3    H149096   1.247   0.789  16.379 -0.9389 -1.4832  1.2152
 9227TIP3    H249097   1.269   0.815  16.527  3.6084  0.9865  0.3030
 9228TIP3   OH249098   5.232   4.681   3.492  0.4663  0.0237 -0.0376
 9228TIP3    H149099   5.143   4.678   3.455  0.9774 -0.8128 -1.2674
 9228TIP3    H249100   5.244   4.773   3.515 -0.4055  0.3244 -0.6786
 9229TIP3   OH249101   1.938   0.825   3.243  0.3928  1.1223 -0.3031
 9229TIP3    H149102   2.027   0.857   3.260  0.7279  0.3457 -0.5399
 9229TIP3    H249103   1.917   0.859   3.156  0.6561  0.9015 -0.4555
 9230TIP3   OH249104   0.984   0.576  15.803 -0.3247  0.2766  0.3004
 9230TIP3    H149105   1.037   0.498  15.819 -1.3592 -0.6538 -0.7052
 9230TIP3    H249106   0.904   0.563  15.853 -2.1978 -1.1880 -2.7813
 9231TIP3   OH249107   4.214   1.640   0.332  0.0556  0.3637 -0.7491
 9231TIP3    H149108   4.129   1.605   0.359 -0.8795  1.8669 -1.6481
 9231TIP3    H249109   4.259   1.660   0.414 -0.5729 -0.1376 -0.2747
 9232TIP3   OH249110   2.580   4.290  16.435  0.3617  0.0473  0.0531
 9232TIP3    H149111   2.541   4.349  16.370 -1.5267 -1.8317 -0.6379
 9232TIP3    H249112   2.665   4.268  16.399 -0.2113 -0.1093 -1.2602
 9233TIP3   OH249113   5.183   3.869   5.026 -0.5665 -0.0366 -0.0137
 9233TIP3    H149114   5.141   3.912   5.100 -1.1438 -0.0314 -0.3349
 9233TIP3    H249115   5.213   3.941   4.969 -0.8118 -0.0452 -0.1570
 9234TIP3   OH249116   4.403   0.458   6.480  0.0629  0.3277  0.1325
 9234TIP3    H149117   4.363   0.400   6.545  2.4314 -0.2262  1.2026
 9234TIP3    H249118   4.497   0.444   6.490  0.5651  0.3060 -3.3709
 9235TIP3   OH249119   1.702   0.158   4.495  0.3776 -0.1007  0.3891
 9235TIP3    H149120   1.732   0.242   4.529  0.1706  0.4890 -0.8283
 9235TIP3    H249121   1.625   0.179   4.442 -0.3836 -1.2074  1.0021
 9236TIP3   OH249122   2.547   6.018   0.003 -0.0862  0.3013 -0.1300
 9236TIP3    H149123   2.454   6.019  -0.018 -0.7169 -1.9238  2.0019
 9236TIP3    H249124   2.551   5.980   0.091  2.8967 -0.7461 -0.6005
 9237TIP3   OH249125   1.568   0.043   3.592 -0.0658  0.2785 -0.5343
 9237TIP3    H149126   1.608   0.129   3.603  0.3557 -0.0357  0.5566
 9237TIP3    H249127   1.474   0.059   3.596 -0.0055  0.7666 -0.9939
 9238TIP3   OH249128   5.951   4.617  12.870 -0.3401 -0.0482 -0.9433
 9238TIP3    H149129   5.875   4.659  12.910  0.2056  0.3215 -0.2691
 9238TIP3    H249130   5.975   4.675  12.798 -0.4862  0.0159 -0.9403
 9239TIP3   OH249131   3.479   2.454  16.458 -0.8125 -0.3181 -0.2150
 9239TIP3    H149132   3.464   2.372  16.410 -1.2691 -0.5597  0.3302
 9239TIP3    H249133   3.441   2.522  16.401  0.3882 -0.3623 -1.0995
 9240TIP3   OH249134   4.072   2.416  12.705  0.0775 -0.6435 -0.1724
 9240TIP3    H149135   4.104   2.485  12.647 -0.6766 -0.0566  0.1090
 9240TIP3    H249136   4.107   2.335  12.666  0.2201 -0.1960 -1.0037
 9241TIP3   OH249137   3.215   2.209  16.113 -0.4872 -0.9458 -0.0886
 9241TIP3    H149138   3.181   2.298  16.110  0.8836 -0.4220 -1.0371
 9241TIP3    H249139   3.205   2.177  16.023 -1.8331 -2.1223  0.4330
 9242TIP3   OH249140   3.452   4.133  15.691 -0.3025  0.1369  0.2233
 9242TIP3    H149141   3.533   4.113  15.643 -0.2592 -1.4311  0.8622
 9242TIP3    H249142   3.480   4.145  15.781 -0.9035 -1.9746  0.7458
 9243TIP3   OH249143   4.279   0.589   4.393  0.3743  0.2613 -0.2622
 9243TIP3    H149144   4.233   0.530   4.334  0.6550  1.1073 -1.3542
 9243TIP3    H249145   4.241   0.571   4.479 -0.4028 -0.6296 -0.7696
 9244TIP3   OH249146   2.593   3.941   2.661 -0.3900  0.0460  0.2183
 9244TIP3    H149147   2.511   3.954   2.708 -0.5175 -0.1334  0.0436
 9244TIP3    H249148   2.593   3.848   2.637 -0.0181 -0.0157  0.4417
 9245TIP3   OH249149   0.751   5.553   4.251 -0.0938  0.3892 -0.0990
 9245TIP3    H149150   0.764   5.575   4.158 -2.2671  1.8519 -0.1289
 9245TIP3    H249151   0.748   5.638   4.295  0.6067 -0.2811  1.2885
 9246TIP3   OH249152   1.917   5.628  16.370 -0.2521  0.8027  0.2186
 9246TIP3    H149153   1.936   5.721  16.384  1.2619  0.9991 -2.4386
 9246TIP3    H249154   1.823   5.620  16.383 -0.9420  3.3632 -2.2887
 9247TIP3   OH249155   0.323   4.938   6.118  0.1656  0.4218  0.6439
 9247TIP3    H149156   0.316   4.868   6.053 -0.2375  1.8486 -0.9409
 9247TIP3    H249157   0.259   4.915   6.185 -0.7494 -0.1779 -0.3958
 9248TIP3   OH249158   0.012   0.760  12.881 -0.7185 -0.0307 -0.1587
 9248TIP3    H149159  -0.008   0.757  12.787  1.1293 -1.7154 -0.5607
 9248TIP3    H249160  -0.010   0.672  12.913  1.2977 -0.3825  0.3591
 9249TIP3   OH249161   5.201   2.813  16.703 -0.3489  0.0253  0.4041
 9249TIP3    H149162   5.198   2.773  16.790  0.1691 -1.7604 -0.3576
 9249TIP3    H249163   5.291   2.844  16.694 -0.7567  1.4727  1.0046
 9250TIP3   OH249164   2.131   4.005   4.120 -0.3977 -0.2425  0.5649
 9250TIP3    H149165   2.090   3.922   4.144  0.1812 -0.6914  0.0327
 9250TIP3    H249166   2.202   3.981   4.061 -0.4986  0.6711  0.0443
 9251TIP3   OH249167   2.408   5.596   3.715 -0.4498 -0.0791 -0.8250
 9251TIP3    H149168   2.457   5.673   3.686  0.2101 -0.2986 -0.3425
 9251TIP3    H249169   2.337   5.587   3.652  0.2054  0.1897 -1.6305
 9252TIP3   OH249170   3.823   5.797  13.629 -0.3183  0.0218 -0.4304
 9252TIP3    H149171   3.752   5.808  13.691 -0.6301 -0.4178 -0.7023
 9252TIP3    H249172   3.901   5.828  13.675 -0.5561 -0.2514  0.1551
 9253TIP3   OH249173   6.118   0.369   4.135  0.3453  0.3114  0.4195
 9253TIP3    H149174   6.128   0.363   4.040 -0.7893 -0.2479  0.3239
 9253TIP3    H249175   6.204   0.398   4.166  0.3004  2.0070 -0.9120
 9254TIP3   OH249176   0.289   0.233  12.240  0.0498  0.0901 -0.0948
 9254TIP3    H149177   0.333   0.177  12.176  0.6846 -0.6249  0.9371
 9254TIP3    H249178   0.261   0.173  12.309 -0.0839  0.9184  0.5875
 9255TIP3   OH249179   4.559   6.625  12.196 -0.0252  0.1540  0.7565
 9255TIP3    H149180   4.623   6.696  12.201 -1.5574  1.6611 -0.1478
 9255TIP3    H249181   4.521   6.634  12.109 -1.3290 -0.8382  1.2038
 9256TIP3   OH249182   0.879   3.003   0.943  0.2062 -0.1472  0.1361
 9256TIP3    H149183   0.953   2.945   0.957 -0.8477 -1.0199  2.6913
 9256TIP3    H249184   0.816   2.951   0.893  0.0637 -0.5528  0.7213
 9257TIP3   OH249185   0.323   5.160  11.882 -0.0138  0.8264  0.4879
 9257TIP3    H149186   0.290   5.228  11.941 -0.0339 -0.5148  2.1106
 9257TIP3    H249187   0.374   5.102  11.939 -0.3835 -0.7548 -0.7227
 9258TIP3   OH249188   5.635   1.745  16.560 -0.0575  0.5030 -0.2535
 9258TIP3    H149189   5.546   1.778  16.572 -0.1132  0.0832  0.5392
 9258TIP3    H249190   5.688   1.824  16.545 -0.5146  0.7728 -0.4724
 9259TIP3   OH249191   4.886   2.334  14.768  0.0154 -0.2546 -0.0819
 9259TIP3    H149192   4.823   2.266  14.744  0.2882 -0.3427 -0.5626
 9259TIP3    H249193   4.881   2.338  14.863  0.1016 -1.0584 -0.0369
 9260TIP3   OH249194   5.651   6.106  15.895 -0.8526  0.4244  0.1982
 9260TIP3    H149195   5.583   6.145  15.840 -0.0513  2.0758  0.3236
 9260TIP3    H249196   5.732   6.119  15.847 -0.3516  0.4516  1.0283
 9261TIP3   OH249197   2.988   6.177   4.453 -0.0001  0.0915 -0.3381
 9261TIP3    H149198   3.035   6.206   4.531 -1.3003 -0.6812  0.7628
 9261TIP3    H249199   3.016   6.239   4.385  0.5685  1.2693  0.9050
 9262TIP3   OH249200   2.416   6.341  16.276  0.5031 -0.0259 -0.4569
 9262TIP3    H149201   2.504   6.369  16.302  0.5300  1.3240 -1.8779
 9262TIP3    H249202   2.383   6.412  16.221 -0.7431 -1.3657 -1.5107
 9263TIP3   OH249203   0.551   0.507  16.914  0.3431  0.5970  0.4335
 9263TIP3    H149204   0.605   0.575  16.954 -0.3783 -0.1072  2.7743
 9263TIP3    H249205   0.545   0.438  16.981 -0.1456 -1.1287 -1.2932
 9264TIP3   OH249206   1.951   0.560  15.897  0.6195  0.3371  0.2637
 9264TIP3    H149207   1.934   0.467  15.883 -1.1176  0.5101  0.9642
 9264TIP3    H249208   1.975   0.566  15.990  0.7840  0.5822  0.2054
 9265TIP3   OH249209   4.168   2.621   3.314  0.5318 -0.4931 -0.1591
 9265TIP3    H149210   4.166   2.526   3.298  0.2992 -0.7031  1.0307
 9265TIP3    H249211   4.078   2.643   3.337  0.4798  0.1240 -0.9080
 9266TIP3   OH249212   3.942   4.035  12.385 -0.0517  0.0393  0.0930
 9266TIP3    H149213   3.944   4.003  12.295 -1.4356  0.4279 -0.0986
 9266TIP3    H249214   4.034   4.043  12.410  0.3580  0.2960 -1.4132
 9267TIP3   OH249215   0.324   5.895  16.194 -0.3055 -0.1729 -0.2907
 9267TIP3    H149216   0.316   5.929  16.283  0.5071 -0.1785 -0.2132
 9267TIP3    H249217   0.415   5.865  16.187 -0.8093 -1.7800 -0.5369
 9268TIP3   OH249218   5.257   1.427   0.161 -1.0493 -0.5129  0.3674
 9268TIP3    H149219   5.303   1.463   0.236  0.4252  0.4269 -0.9310
 9268TIP3    H249220   5.167   1.413   0.192 -0.6435  0.4814  2.0849
 9269TIP3   OH249221   0.370   5.178   1.284  0.0663 -0.6907  0.2126
 9269TIP3    H149222   0.360   5.087   1.314 -2.9632 -0.6430 -0.4055
 9269TIP3    H249223   0.334   5.178   1.195  0.2156  1.0810  0.1275
 9270TIP3   OH249224   4.389   1.635  16.976  0.5469 -0.6066 -0.0294
 9270TIP3    H149225   4.342   1.708  17.017  0.3016  0.2215 -1.7013
 9270TIP3    H249226   4.320   1.574  16.950  0.6374 -0.7602  0.0867
 9271TIP3   OH249227   2.002   4.908  11.921  0.2752 -0.0822  0.3190
 9271TIP3    H149228   1.958   4.992  11.927  0.3802  0.0043 -0.1007
 9271TIP3    H249229   1.989   4.868  12.008  0.0350  0.2654  0.4466
 9272TIP3   OH249230   0.281   6.431  10.901 -0.3458  0.5372  0.3671
 9272TIP3    H149231   0.366   6.463  10.933  0.1080  0.1600 -0.4527
 9272TIP3    H249232   0.224   6.508  10.905 -0.0829  0.6992  1.2996
 9273TIP3   OH249233   1.058   6.024  12.638 -0.3858  0.0740  0.2211
 9273TIP3    H149234   1.012   6.104  12.613  0.2686 -0.0166 -1.3605
 9273TIP3    H249235   1.008   5.954  12.596 -0.7443 -0.3395  1.3033
 9274TIP3   OH249236   0.849   3.442   6.047  0.1577  0.1060 -0.3196
 9274TIP3    H149237   0.769   3.474   6.004 -0.8564 -1.6851  0.1404
 9274TIP3    H249238   0.895   3.522   6.074 -3.3395  1.3421  2.8042
 9275TIP3   OH249239   0.195   0.096  17.167 -0.1132 -0.7216 -0.0233
 9275TIP3    H149240   0.155   0.178  17.198 -0.5904 -0.7383 -0.5685
 9275TIP3    H249241   0.208   0.110  17.073  1.2275 -0.7051  0.1545
 9276TIP3   OH249242   1.429   6.316  14.366  0.4162 -0.2922  0.3296
 9276TIP3    H149243   1.482   6.369  14.427  0.2011 -0.5693  0.7621
 9276TIP3    H249244   1.469   6.331  14.281  0.2643  0.6965  0.4171
 9277TIP3   OH249245   4.460   1.600   4.508  0.0131 -0.2844 -0.0126
 9277TIP3    H149246   4.440   1.508   4.496 -0.2600 -0.2048 -0.1898
 9277TIP3    H249247   4.378   1.639   4.539  0.1439 -0.1145  0.1252
 9278TIP3   OH249248   6.744   6.098   2.211 -0.1213  0.0943 -0.0810
 9278TIP3    H149249   6.729   6.064   2.123  0.4903 -0.6394  0.0858
 9278TIP3    H249250   6.746   6.020   2.266 -2.2626  0.6355  0.8657
 9279TIP3   OH249251   5.844   2.625  16.910 -0.1234 -0.7336 -0.0962
 9279TIP3    H149252   5.915   2.568  16.938  1.6570  0.6657 -1.5289
 9279TIP3    H249253   5.864   2.646  16.819 -1.5137  0.9703 -0.0700
 9280TIP3   OH249254   0.164   5.916  12.718  0.0758  0.3964  0.0605
 9280TIP3    H149255   0.147   6.010  12.715 -0.1439  0.3292 -1.1927
 9280TIP3    H249256   0.241   5.907  12.775 -0.5734  1.2176  1.0933
 9281TIP3   OH249257   0.398   4.779  15.236 -0.0677 -0.4668  0.1918
 9281TIP3    H149258   0.305   4.798  15.221  0.1715  0.7243  0.1141
 9281TIP3    H249259   0.443   4.857  15.205  0.9330 -0.8265  0.7196
 9282TIP3   OH249260   0.006   2.823   0.824  0.3597  0.4151  0.0118
 9282TIP3    H149261   0.009   2.832   0.919  1.5809 -0.7774  0.1261
 9282TIP3    H249262  -0.068   2.876   0.796  0.0467  0.8536  1.6214
 9283TIP3   OH249263   1.092   1.366   5.445  0.5860 -0.0565  0.9773
 9283TIP3    H149264   1.161   1.384   5.381  0.7838  0.7566  1.4196
 9283TIP3    H249265   1.071   1.273   5.431  1.3090 -0.1428  0.4036
 9284TIP3   OH249266   5.106   4.618   1.563 -0.2356 -0.3659  0.5245
 9284TIP3    H149267   5.038   4.681   1.585  0.4356  0.6438 -0.2160
 9284TIP3    H249268   5.103   4.554   1.635 -1.8600 -0.2933  0.5751
 9285TIP3   OH249269   4.491   5.263  12.769 -0.1755  0.0189 -0.1333
 9285TIP3    H149270   4.554   5.256  12.840  1.8607  2.7163 -1.4878
 9285TIP3    H249271   4.532   5.323  12.706 -3.4962  0.7851 -1.7906
 9286TIP3   OH249272   5.494   4.355   1.840 -0.5079  0.0400  0.0700
 9286TIP3    H149273   5.583   4.328   1.862 -0.6349 -2.0573 -1.6771
 9286TIP3    H249274   5.438   4.306   1.900 -0.5846 -0.6504 -0.5621
 9287TIP3   OH249275   6.021   4.072   1.451  0.7197 -0.2034 -0.3859
 9287TIP3    H149276   5.948   4.012   1.433 -2.0221  2.6100  0.4408
 9287TIP3    H249277   6.031   4.122   1.370 -0.1427  1.1788  0.3253
 9288TIP3   OH249278   6.720   4.487  12.197 -0.4200 -0.2754  0.0999
 9288TIP3    H149279   6.711   4.392  12.205  3.0506 -0.8553 -0.9862
 9288TIP3    H249280   6.723   4.503  12.103 -0.1604  0.7855  0.2739
 9289TIP3   OH249281   5.765   2.723  13.314  0.0369  0.3859 -0.9044
 9289TIP3    H149282   5.753   2.689  13.403 -0.3743 -0.7679 -1.3881
 9289TIP3    H249283   5.844   2.681  13.282  0.7456  1.5555 -0.7524
 9290TIP3   OH249284   1.628   4.617   1.293 -0.0171 -1.0355  0.1663
 9290TIP3    H149285   1.556   4.579   1.344 -2.3206 -0.8594 -2.7124
 9290TIP3    H249286   1.681   4.541   1.267 -1.9206 -1.8184 -1.6266
 9291TIP3   OH249287   3.384   5.836   0.484 -0.0871  0.3520 -0.0613
 9291TIP3    H149288   3.309   5.842   0.426  0.2579 -0.3959 -0.5909
 9291TIP3    H249289   3.354   5.877   0.566 -0.8914  0.5215 -0.4333
 9292TIP3   OH249290   5.949   0.992  11.349 -0.5215  0.0479 -0.2800
 9292TIP3    H149291   5.925   0.951  11.265  0.6929  0.9003 -1.0754
 9292TIP3    H249292   5.934   1.086  11.335 -2.6620  0.0228  1.3108
 9293TIP3   OH249293   2.609   6.331  16.629 -0.2514 -0.7827  0.1377
 9293TIP3    H149294   2.671   6.301  16.563 -0.1718 -2.4702  0.9068
 9293TIP3    H249295   2.523   6.322  16.587 -0.0275  1.9588 -1.0753
 9294TIP3   OH249296   3.444   4.792  11.126 -0.2784 -0.6116  0.8612
 9294TIP3    H149297   3.394   4.873  11.131  0.7711  0.3283 -1.8650
 9294TIP3    H249298   3.507   4.807  11.056  1.8873 -2.7911  2.1693
 9295TIP3   OH249299   4.798   6.061   2.267 -0.0522  0.5742  0.4801
 9295TIP3    H149300   4.721   6.097   2.223  0.0727  0.7419  0.3967
 9295TIP3    H249301   4.777   5.968   2.281 -1.6998  1.2570  3.4900
 9296TIP3   OH249302   4.456   0.156   0.165  0.2696  0.0013 -0.5811
 9296TIP3    H149303   4.428   0.119   0.081 -0.8660 -2.2416  0.6903
 9296TIP3    H249304   4.382   0.210   0.193 -0.6495 -1.5977  0.2581
 9297TIP3   OH249305   2.664   1.569   3.188  0.0887  0.1867  0.0580
 9297TIP3    H149306   2.744   1.519   3.199  1.1074  1.2234 -2.1062
 9297TIP3    H249307   2.606   1.513   3.136  0.0303  0.0947  0.2190
 9298TIP3   OH249308   3.114   1.454  17.187  0.0101 -0.0456 -0.6823
 9298TIP3    H149309   3.023   1.475  17.206  0.1548  0.6998 -0.7805
 9298TIP3    H249310   3.144   1.525  17.131  1.2176  0.7835  0.9486
 9299TIP3   OH249311   3.068   1.894   1.589  0.2690 -0.2936 -0.2895
 9299TIP3    H149312   3.104   1.855   1.669  4.5149  1.0079 -1.2927
 9299TIP3    H249313   3.034   1.820   1.539  2.3801 -1.9114  0.5227
 9300TIP3   OH249314   0.998   3.608  11.091  0.0354  0.2864  0.7162
 9300TIP3    H149315   1.018   3.612  10.998  0.5271  0.6673  0.8355
 9300TIP3    H249316   0.904   3.627  11.096 -0.4906 -1.8123  0.1259
 9301TIP3   OH249317   3.215   4.236  16.006 -0.2170 -0.3313  0.5811
 9301TIP3    H149318   3.309   4.251  15.998 -0.5466  1.6576 -0.0590
 9301TIP3    H249319   3.191   4.195  15.923 -0.0209 -0.2774  0.4953
 9302TIP3   OH249320   5.655   6.037  16.270 -0.2245  0.4525 -0.6673
 9302TIP3    H149321   5.673   6.042  16.364  0.3650 -0.5793 -0.7047
 9302TIP3    H249322   5.623   5.948  16.257  3.0180 -0.6899 -1.9252
 9303TIP3   OH249323   5.106   5.577  10.660  1.0472 -0.7062  0.1059
 9303TIP3    H149324   5.074   5.547  10.746 -1.0130  0.3691 -0.2249
 9303TIP3    H249325   5.086   5.505  10.601  0.3209 -0.5228  0.1229
 9304TIP3   OH249326   3.342   5.560   1.517 -0.1594 -1.3625  0.0244
 9304TIP3    H149327   3.424   5.580   1.471  1.0731  0.4756  2.7728
 9304TIP3    H249328   3.360   5.477   1.562  0.0646 -1.1616  0.3090
 9305TIP3   OH249329   1.892   1.295   0.353 -0.4658 -0.4995 -0.6356
 9305TIP3    H149330   1.981   1.328   0.364 -0.7368  0.0550 -0.0729
 9305TIP3    H249331   1.897   1.238   0.276  0.4143 -0.6303 -0.4885
 9306TIP3   OH249332   4.755   2.295  12.995 -0.3180  0.2681 -0.1098
 9306TIP3    H149333   4.739   2.310  13.089 -0.9164  0.2041 -0.1988
 9306TIP3    H249334   4.683   2.239  12.967 -0.8305  1.2682 -0.8731
 9307TIP3   OH249335   3.824   4.459   1.279  0.0627 -0.1667 -0.4688
 9307TIP3    H149336   3.874   4.538   1.294  1.6537 -1.5323  2.1347
 9307TIP3    H249337   3.860   4.423   1.198  0.4930  0.9021 -0.7704
 9308TIP3   OH249338   0.189   1.430   4.094 -0.2402  0.1111 -0.1743
 9308TIP3    H149339   0.098   1.444   4.118 -0.3327  1.5887 -1.2599
 9308TIP3    H249340   0.234   1.508   4.126 -0.1104  1.4271 -3.2310
 9309TIP3   OH249341   2.614   3.000  15.553 -0.0475  0.4133 -0.1662
 9309TIP3    H149342   2.664   3.070  15.595  2.2200 -0.2130 -1.6145
 9309TIP3    H249343   2.640   2.921  15.600 -0.5985  0.2166 -0.1889
 9310TIP3   OH249344   6.682   2.994   4.875  0.1458 -0.3729 -0.0649
 9310TIP3    H149345   6.640   3.069   4.918  1.0042 -0.1598  0.4141
 9310TIP3    H249346   6.649   2.918   4.923 -0.2639 -0.2642 -0.1665
 9311TIP3   OH249347   1.260   0.585  11.349  0.3035  0.6734 -0.8484
 9311TIP3    H149348   1.283   0.650  11.416 -0.4833  0.8142 -0.7105
 9311TIP3    H249349   1.321   0.602  11.278 -0.6971  2.4143 -1.3444
 9312TIP3   OH249350   4.741   1.715  14.330  0.1993 -0.0007 -0.7653
 9312TIP3    H149351   4.788   1.642  14.290 -0.4841 -0.7741 -0.1889
 9312TIP3    H249352   4.651   1.707  14.296  0.1266  0.5936 -0.7197
 9313TIP3   OH249353   5.933   0.418   2.873 -0.2953  0.2833  0.1878
 9313TIP3    H149354   5.891   0.474   2.938  0.9202  1.2805  0.1513
 9313TIP3    H249355   5.863   0.360   2.842 -1.3529  1.1294  0.9286
 9314TIP3   OH249356   3.767   4.820  15.690 -0.6069  0.1592 -0.0551
 9314TIP3    H149357   3.787   4.892  15.630 -2.4739 -0.3831 -1.4214
 9314TIP3    H249358   3.822   4.748  15.659 -1.1060  0.0645 -0.7418
 9315TIP3   OH249359   3.262   0.556  16.266  0.6861  0.6257  0.5967
 9315TIP3    H149360   3.308   0.496  16.208  0.1755  1.3789 -0.6423
 9315TIP3    H249361   3.171   0.554  16.234  0.0536 -0.0512  2.3214
 9316TIP3   OH249362   6.320   1.775  12.069 -0.3601  0.5733 -0.1169
 9316TIP3    H149363   6.346   1.705  12.129 -1.6240  1.1649  1.1835
 9316TIP3    H249364   6.389   1.840  12.076  0.0734  0.1228 -0.1807
 9317TIP3   OH249365   4.560   1.305   1.990 -0.2938  0.1583  0.6528
 9317TIP3    H149366   4.623   1.259   2.045  0.1779  0.2548  0.2001
 9317TIP3    H249367   4.576   1.398   2.008 -0.4166  0.1792  0.6568
 9318TIP3   OH249368   5.096   6.599  12.938  0.3277  0.2589 -0.0444
 9318TIP3    H149369   5.063   6.687  12.952 -0.3575 -0.2154  1.6576
 9318TIP3    H249370   5.188   6.610  12.914 -0.0057  1.4483 -0.8282
 9319TIP3   OH249371   5.790   3.518  12.490 -0.0278  0.4003  0.1973
 9319TIP3    H149372   5.710   3.486  12.532  0.3185  1.7493  2.0074
 9319TIP3    H249373   5.849   3.539  12.563  1.6061  0.4129 -1.0563
 9320TIP3   OH249374   2.811   2.572  10.455 -0.7285 -0.1069 -0.6077
 9320TIP3    H149375   2.768   2.651  10.424 -1.3167  0.4883  1.5596
 9320TIP3    H249376   2.894   2.570  10.408 -0.0004  2.6537  0.3793
 9321TIP3   OH249377   3.775   6.002   2.066 -0.0271 -0.3154  0.0975
 9321TIP3    H149378   3.795   6.048   1.985 -1.2579 -2.2097 -1.3575
 9321TIP3    H249379   3.727   6.066   2.119  0.4843  0.8403 -0.7922
 9322TIP3   OH249380   2.432   0.645  16.111  0.1456  0.5014  0.1422
 9322TIP3    H149381   2.357   0.703  16.127 -0.3822 -0.1585  0.1320
 9322TIP3    H249382   2.441   0.644  16.016 -1.2986 -1.1809 -0.0282
 9323TIP3   OH249383   0.379   5.140   1.887 -0.0317 -0.4047  0.1612
 9323TIP3    H149384   0.326   5.122   1.810 -1.0188 -0.6343  0.8705
 9323TIP3    H249385   0.396   5.053   1.925 -0.2582 -0.2397  0.6510
 9324TIP3   OH249386   0.692   3.193  14.686  0.3341 -0.1022 -0.1073
 9324TIP3    H149387   0.727   3.105  14.704  0.8611  0.1171 -0.0384
 9324TIP3    H249388   0.770   3.249  14.683 -0.1510  0.7990  2.2893
 9325TIP3   OH249389   0.254   0.157  12.646  0.0425 -0.3478  0.2108
 9325TIP3    H149390   0.335   0.136  12.599 -0.6238 -1.3923 -0.5108
 9325TIP3    H249391   0.184   0.121  12.591 -0.8136 -0.8578  1.5930
 9326TIP3   OH249392   3.304   2.673   0.220  0.1462 -0.4157  0.2350
 9326TIP3    H149393   3.319   2.647   0.129  1.3688 -2.1389  0.8656
 9326TIP3    H249394   3.289   2.591   0.266  2.0371  0.1245  1.9896
 9327TIP3   OH249395   2.917   5.264  16.405  0.3212  0.3207 -0.2269
 9327TIP3    H149396   2.879   5.190  16.452 -0.0259  0.5176 -0.1974
 9327TIP3    H249397   2.926   5.333  16.471  0.8413  0.2401 -0.2069
 9328TIP3   OH249398   0.794   2.558   3.736 -0.3009  0.0682 -0.6178
 9328TIP3    H149399   0.716   2.599   3.698 -1.3192 -2.9552 -2.1265
 9328TIP3    H249400   0.846   2.531   3.661  0.5714 -0.8739  0.2968
 9329TIP3   OH249401   5.614   1.644   2.570 -0.2718 -0.4683  0.3441
 9329TIP3    H149402   5.635   1.554   2.594 -1.8589 -1.0883 -0.4899
 9329TIP3    H249403   5.528   1.639   2.529 -0.1127  1.3507 -0.2974
 9330TIP3   OH249404   2.479   1.264   5.820 -0.5161  0.1804 -0.0594
 9330TIP3    H149405   2.562   1.290   5.781 -0.4862 -0.0682 -0.1618
 9330TIP3    H249406   2.472   1.318   5.899  0.6050 -1.0863  0.9392
 9331TIP3   OH249407   5.778   1.065   2.762  0.5603  0.0225  0.0515
 9331TIP3    H149408   5.757   1.019   2.844  1.0986 -0.2928  0.0209
 9331TIP3    H249409   5.873   1.054   2.753  0.4917 -0.0109 -0.6522
 9332TIP3   OH249410   5.506   5.767  13.928  0.2506 -0.2718  0.4888
 9332TIP3    H149411   5.599   5.787  13.939 -0.0198  1.7017 -0.4705
 9332TIP3    H249412   5.499   5.739  13.837 -0.3546  1.4136 -0.0125
 9333TIP3   OH249413   6.185   6.720  11.717  0.5079  0.5424 -0.3449
 9333TIP3    H149414   6.198   6.762  11.801  3.5474  1.2467 -1.0710
 9333TIP3    H249415   6.100   6.752  11.687 -0.5700  0.4159  2.2950
 9334TIP3   OH249416   1.928   5.850  12.218  0.3368  0.0722  0.7180
 9334TIP3    H149417   1.845   5.822  12.257  0.9214 -0.5141  1.5845
 9334TIP3    H249418   1.923   5.945  12.217 -0.8710  0.0252 -0.4503
 9335TIP3   OH249419   2.514   6.116  13.300 -0.1740 -0.4510 -0.0326
 9335TIP3    H149420   2.532   6.043  13.241 -1.0467 -0.9951  0.3528
 9335TIP3    H249421   2.420   6.134  13.289 -0.0164  0.4927  0.0175
 9336TIP3   OH249422   4.206   6.173   1.157  0.1421 -0.7593 -0.4349
 9336TIP3    H149423   4.170   6.262   1.152 -4.2034 -2.2337  0.1809
 9336TIP3    H249424   4.240   6.156   1.069 -1.1063  0.7597 -1.2681
 9337TIP3   OH249425   6.756   1.484  10.829  0.6066 -0.6541 -0.0989
 9337TIP3    H149426   6.707   1.456  10.751  2.1112  1.4817 -1.9660
 9337TIP3    H249427   6.707   1.447  10.903 -1.1210 -2.4684 -2.0210
 9338TIP3   OH249428   4.366   3.142  16.981 -0.3523  0.1515 -0.3299
 9338TIP3    H149429   4.281   3.157  16.940 -0.6801 -1.3569 -0.2580
 9338TIP3    H249430   4.406   3.229  16.987 -1.9652  0.9010 -0.1725
 9339TIP3   OH249431   1.088   6.447  15.638  0.1417 -0.0591  0.3571
 9339TIP3    H149432   1.129   6.373  15.593  1.5818  0.4465  0.7855
 9339TIP3    H249433   1.078   6.514  15.570  1.5231  0.3876  0.5568
 9340TIP3   OH249434   5.546   1.467  14.605 -0.3419  0.8664  0.2026
 9340TIP3    H149435   5.515   1.396  14.661 -0.6383  0.2381 -0.7408
 9340TIP3    H249436   5.605   1.517  14.660  1.9197 -1.5607  0.1769
 9341TIP3   OH249437   4.991   1.453   0.268  0.1155 -0.2807 -0.3134
 9341TIP3    H149438   4.995   1.398   0.346  0.6644 -0.1615 -0.2590
 9341TIP3    H249439   4.897   1.456   0.246  0.0690 -1.2135 -0.3077
 9342TIP3   OH249440   0.858   4.888   6.393 -0.1759  0.2326 -0.1251
 9342TIP3    H149441   0.784   4.931   6.436  0.8230  0.1850  1.7844
 9342TIP3    H249442   0.924   4.958   6.385 -0.9853  0.7630 -3.5072
 9343TIP3   OH249443   6.492   1.825  13.151  0.2945 -0.3715  0.1353
 9343TIP3    H149444   6.457   1.911  13.170  1.0405 -0.2159  0.8980
 9343TIP3    H249445   6.536   1.834  13.067  0.7579  0.1166  0.4271
 9344TIP3   OH249446   1.936   5.081   2.297 -0.1498 -0.4010 -0.3429
 9344TIP3    H149447   1.899   5.033   2.224  0.9343  0.5636 -1.5827
 9344TIP3    H249448   1.924   5.173   2.274  0.3469 -0.0746  0.6168
 9345TIP3   OH249449   0.417   6.614   3.772  0.1239  0.4613 -0.2444
 9345TIP3    H149450   0.326   6.642   3.760 -0.2716  0.3125  1.9376
 9345TIP3    H249451   0.411   6.524   3.805  1.0454  0.5041  0.0828
 9346TIP3   OH249452   0.077   4.639  16.423 -1.1232  0.2216 -0.3806
 9346TIP3    H149453   0.062   4.712  16.363  0.9925 -0.4829 -1.9077
 9346TIP3    H249454   0.110   4.680  16.502 -0.0774  0.9612 -1.1715
 9347TIP3   OH249455   2.463   0.673  12.357  0.1183 -0.4660  0.0641
 9347TIP3    H149456   2.369   0.681  12.370  0.1214 -0.1862 -0.0762
 9347TIP3    H249457   2.498   0.656  12.445 -0.2015 -2.0517 -0.0880
 9348TIP3   OH249458   2.668   1.409   4.811  0.2618  0.2464  0.4950
 9348TIP3    H149459   2.628   1.409   4.898  0.1893 -1.4630  0.4894
 9348TIP3    H249460   2.759   1.386   4.826 -0.1821 -2.0288 -0.0131
 9349TIP3   OH249461   4.901   3.282  12.196  0.1017 -0.6729 -0.0381
 9349TIP3    H149462   4.871   3.224  12.266 -0.6530  0.1862  0.3718
 9349TIP3    H249463   4.962   3.229  12.146 -1.3550 -2.1830 -0.3022
 9350TIP3   OH249464   2.224   2.851  11.589 -0.3832  0.4418 -0.4971
 9350TIP3    H149465   2.200   2.781  11.649 -0.7679 -0.3706 -1.5719
 9350TIP3    H249466   2.306   2.822  11.550 -0.0726  1.0230 -0.2897
 9351TIP3   OH249467   5.705   5.577   5.821  0.2617  0.4413  0.2347
 9351TIP3    H149468   5.750   5.661   5.812  0.9425  0.0185 -0.3807
 9351TIP3    H249469   5.710   5.558   5.915  0.0863  1.0900  0.3822
 9352TIP3   OH249470   1.755   3.962  14.138  0.0842  0.0444 -0.2114
 9352TIP3    H149471   1.744   3.871  14.110  3.5711 -0.4618 -0.4124
 9352TIP3    H249472   1.751   4.012  14.056  1.4191 -0.3574 -0.5404
 9353TIP3   OH249473   2.137   6.481  15.760 -1.0148 -0.0894  0.0276
 9353TIP3    H149474   2.130   6.509  15.669 -0.6552  5.3009  1.3691
 9353TIP3    H249475   2.222   6.436  15.764 -1.0137 -0.3966 -2.2316
 9354TIP3   OH249476   1.936   5.860   3.927  0.0317  0.0528 -0.5310
 9354TIP3    H149477   1.858   5.807   3.910 -0.7931  0.2988  2.0666
 9354TIP3    H249478   2.009   5.800   3.918 -0.7077 -0.9589  0.0884
 9355TIP3   OH249479   3.099   0.374  15.103 -0.4316 -0.6103 -0.0010
 9355TIP3    H149480   3.040   0.304  15.078  0.0228 -0.8492 -0.4303
 9355TIP3    H249481   3.047   0.454  15.093 -0.2456 -0.6792 -1.8717
 9356TIP3   OH249482   0.127   3.529  14.168  0.2522 -0.3296 -0.5682
 9356TIP3    H149483   0.065   3.576  14.111  0.6813  0.7853 -0.1224
 9356TIP3    H249484   0.211   3.571  14.152  1.3280 -2.8679 -2.4016
 9357TIP3   OH249485   5.055   5.959  14.493 -0.5568  0.0250 -0.0518
 9357TIP3    H149486   5.109   5.886  14.523 -0.9627 -0.4142 -0.3679
 9357TIP3    H249487   5.046   5.944  14.399 -1.2918  0.0493  0.0117
 9358TIP3   OH249488   1.536   5.200   5.001 -0.1378 -0.4924 -0.3364
 9358TIP3    H149489   1.450   5.243   5.006  0.0618 -0.0421 -0.6271
 9358TIP3    H249490   1.516   5.107   4.995 -0.6144 -0.3788 -0.5786
 9359TIP3   OH249491   2.388   5.771   4.953 -0.5444  0.0677 -0.3548
 9359TIP3    H149492   2.404   5.825   5.030 -0.4231 -0.0990 -0.2612
 9359TIP3    H249493   2.442   5.693   4.968 -0.6058 -0.0123 -0.5567
 9360TIP3   OH249494   2.569   5.180  14.352  0.3412 -0.5157 -0.0680
 9360TIP3    H149495   2.502   5.246  14.371 -1.1166 -1.0786 -2.7351
 9360TIP3    H249496   2.645   5.230  14.322  1.4371  0.1566  3.3791
 9361TIP3   OH249497   3.081   2.308  11.828 -0.5834  0.5969 -0.4838
 9361TIP3    H149498   2.998   2.348  11.802 -1.8188 -0.4245  1.6453
 9361TIP3    H249499   3.074   2.217  11.798 -0.0458  0.6051 -0.6495
 9362TIP3   OH249500   2.921   3.642  13.010  0.3803 -0.4828 -0.0219
 9362TIP3    H149501   2.946   3.716  12.955  0.7792 -1.5032 -1.2479
 9362TIP3    H249502   3.000   3.588  13.013  0.0236 -0.9751  0.6998
 9363TIP3   OH249503   4.650   1.971   4.761 -0.1723 -0.0512 -0.1065
 9363TIP3    H149504   4.697   1.936   4.686 -0.4994  0.3361 -0.5021
 9363TIP3    H249505   4.711   1.964   4.834  0.8584  1.2927 -0.7960
 9364TIP3   OH249506   4.543   4.239  17.089  0.3495  0.2570 -0.0643
 9364TIP3    H149507   4.618   4.299  17.084 -0.0709  1.0114  1.8521
 9364TIP3    H249508   4.527   4.229  17.183 -2.0878  0.2993 -0.4084
 9365TIP3   OH249509   6.680   4.897  16.821  0.1254  0.0952 -0.5354
 9365TIP3    H149510   6.657   4.806  16.801  0.4539 -0.1592  0.2046
 9365TIP3    H249511   6.776   4.899  16.817  0.1753  0.1609  0.4332
 9366TIP3   OH249512   4.279   5.936   3.158  0.7854 -0.1240  0.1151
 9366TIP3    H149513   4.222   5.865   3.127  2.0841 -0.3821 -1.8388
 9366TIP3    H249514   4.302   5.910   3.247 -0.5994 -0.9639  0.2690
 9367TIP3   OH249515   5.800   1.521  16.972  0.2357  0.3342 -0.2504
 9367TIP3    H149516   5.857   1.527  16.896  0.1163  0.2719 -0.3448
 9367TIP3    H249517   5.808   1.430  17.001  0.7888  0.5235  0.2093
 9368TIP3   OH249518   3.223   0.030   1.065 -0.0487  0.1358  0.7671
 9368TIP3    H149519   3.147   0.088   1.061 -0.1939 -0.0780  0.3808
 9368TIP3    H249520   3.296   0.087   1.092  0.2098  0.8975 -1.3498
 9369TIP3   OH249521   4.665   5.407   0.814  0.0143 -0.0136 -0.1490
 9369TIP3    H149522   4.709   5.323   0.824 -0.9213 -0.5504 -0.4298
 9369TIP3    H249523   4.735   5.472   0.820  0.7541 -0.8150  0.0034
 9370TIP3   OH249524   0.232   5.020   3.960  0.1551 -0.1124 -0.1508
 9370TIP3    H149525   0.197   5.074   3.889 -1.4981 -0.1770  0.5669
 9370TIP3    H249526   0.285   4.953   3.916  1.4345  1.4587 -1.1071
 9371TIP3   OH249527   4.499   0.159   3.391 -0.2722 -0.1265  0.1270
 9371TIP3    H149528   4.538   0.077   3.421 -0.8699 -1.0234 -1.4388
 9371TIP3    H249529   4.408   0.137   3.372 -0.5896  1.0409  0.2028
 9372TIP3   OH249530   5.418   6.023   1.808 -0.1908 -0.4979  0.3391
 9372TIP3    H149531   5.390   6.108   1.773 -0.6372 -0.5481  0.5675
 9372TIP3    H249532   5.417   5.965   1.733 -0.2014 -0.3783  0.2458
 9373TIP3   OH249533   2.081   0.949   3.835  0.0033 -0.1631  0.3632
 9373TIP3    H149534   2.121   0.948   3.748  0.9009  1.2888  0.7445
 9373TIP3    H249535   1.989   0.924   3.818 -0.6081  2.7896 -1.4288
 9374TIP3   OH249536   2.345   2.292   4.102  0.0406 -0.3659 -0.3009
 9374TIP3    H149537   2.261   2.256   4.072  0.2528 -1.3893  0.2746
 9374TIP3    H249538   2.411   2.231   4.067  0.7107  1.2841 -2.1056
 9375TIP3   OH249539   6.083   2.226  12.033  0.6591 -0.1903  0.2170
 9375TIP3    H149540   6.021   2.285  11.991  0.7321 -1.0968 -1.2177
 9375TIP3    H249541   6.028   2.169  12.088  0.3724 -0.0694  0.0597
 9376TIP3   OH249542   2.904   5.485   1.015 -0.3959 -0.3393  0.5789
 9376TIP3    H149543   2.841   5.555   1.031 -0.2109  0.1574 -0.7380
 9376TIP3    H249544   2.986   5.530   0.998 -0.4505 -0.7980 -1.1173
 9377TIP3   OH249545   1.681   2.107  11.170  0.2650 -0.0650  0.0722
 9377TIP3    H149546   1.701   2.053  11.093 -0.1487 -0.9356  0.5654
 9377TIP3    H249547   1.586   2.101  11.179  0.3673 -0.4696  1.0014
 9378TIP3   OH249548   2.199   5.024   2.440  0.0994 -0.2104 -0.3254
 9378TIP3    H149549   2.180   5.069   2.358 -2.1596 -0.4920 -0.0043
 9378TIP3    H249550   2.228   5.093   2.499  1.0722  0.0976 -1.1267
 9379TIP3   OH249551   1.691   1.254   4.007 -0.0378 -0.0720 -0.4671
 9379TIP3    H149552   1.633   1.235   3.933  1.8903 -1.0103 -1.8199
 9379TIP3    H249553   1.755   1.183   4.007  0.6390  0.4579  1.5050
 9380TIP3   OH249554   1.911   2.173  12.224  0.3404 -0.2038 -0.9461
 9380TIP3    H149555   1.816   2.165  12.214  0.3123  0.4356 -1.2227
 9380TIP3    H249556   1.935   2.248  12.170  0.5947  1.5259  1.4071
 9381TIP3   OH249557   1.066   2.899   4.177 -0.1374  0.1991  0.2249
 9381TIP3    H149558   1.014   2.868   4.103  0.6076 -1.5481  0.3873
 9381TIP3    H249559   1.019   2.866   4.254  0.7223 -0.6661  0.3988
 9382TIP3   OH249560   5.409   4.349  13.622 -0.1598  0.5438  0.0828
 9382TIP3    H149561   5.332   4.371  13.568 -0.2506  0.3624  0.1390
 9382TIP3    H249562   5.461   4.291  13.567 -0.3873  0.1368  0.2910
 9383TIP3   OH249563   3.409   2.822   2.987  0.2801 -0.5689  0.1129
 9383TIP3    H149564   3.479   2.834   3.051  0.8397 -1.7622 -0.2464
 9383TIP3    H249565   3.375   2.734   3.006  1.3536 -1.5215 -2.0388
 9384TIP3   OH249566   5.452   1.524  15.977  0.2853 -0.2685  0.0834
 9384TIP3    H149567   5.405   1.518  16.060 -0.0132 -3.4016 -0.1946
 9384TIP3    H249568   5.519   1.591  15.992 -1.4179  1.1268  1.9270
 9385TIP3   OH249569   1.896   5.539   2.680  0.1929  0.3691  0.4568
 9385TIP3    H149570   1.867   5.450   2.662  2.0195 -0.1916  0.1391
 9385TIP3    H249571   1.869   5.589   2.603  1.1488 -0.3936 -0.3891
 9386TIP3   OH249572   0.251   2.839  13.663  0.7649 -0.4434  0.4022
 9386TIP3    H149573   0.229   2.885  13.582 -2.0037  0.1029  1.3483
 9386TIP3    H249574   0.228   2.748  13.646  4.3304 -1.2856 -0.7799
 9387TIP3   OH249575   6.509   1.235  13.292  0.6177  0.0010  0.3048
 9387TIP3    H149576   6.590   1.233  13.241  1.0542 -1.2056  1.0173
 9387TIP3    H249577   6.492   1.144  13.314  1.2574  0.5761  3.5936
 9388TIP3   OH249578   2.803   0.744  14.472 -0.4408 -0.7375 -0.6738
 9388TIP3    H149579   2.811   0.675  14.538 -0.0567 -0.2239 -0.1746
 9388TIP3    H249580   2.813   0.826  14.520  0.0711 -0.3582 -1.3915
 9389TIP3   OH249581   3.906   3.532  13.428 -0.5086 -0.5587  0.1947
 9389TIP3    H149582   3.887   3.626  13.428  0.7174 -0.2986 -0.0449
 9389TIP3    H249583   3.991   3.525  13.471  0.9985 -1.2024 -2.6635
 9390TIP3   OH249584   5.396   1.510   2.443  0.5699 -0.2730 -0.0309
 9390TIP3    H149585   5.408   1.419   2.413  2.1803  0.8527 -3.2897
 9390TIP3    H249586   5.319   1.541   2.396  1.7807  0.8721 -1.3437
 9391TIP3   OH249587   4.638   5.077   4.572 -0.2545 -0.2139  0.1764
 9391TIP3    H149588   4.692   5.022   4.515  1.6794  0.4520  1.2726
 9391TIP3    H249589   4.609   5.018   4.641  0.0412 -0.3256  0.2067
 9392TIP3   OH249590   5.660   5.188   4.822 -0.0848  0.2753 -0.2282
 9392TIP3    H149591   5.594   5.256   4.806 -0.8611 -0.4210 -0.0451
 9392TIP3    H249592   5.613   5.106   4.812  0.7980 -0.2415 -0.2337
 9393TIP3   OH249593   6.399   4.839   1.023  0.3977 -0.5492 -0.2553
 9393TIP3    H149594   6.478   4.871   1.067 -0.9706  0.2685  1.7802
 9393TIP3    H249595   6.346   4.917   1.010  0.2131 -0.9645 -2.3633
 9394TIP3   OH249596   1.681   3.733  13.263 -0.3985  0.0916 -0.2048
 9394TIP3    H149597   1.679   3.724  13.359 -1.9334 -0.9202 -0.2904
 9394TIP3    H249598   1.626   3.809  13.245  0.8529  1.0193 -0.2551
 9395TIP3   OH249599   4.047   2.797  12.562 -0.0719 -0.0670 -0.5338
 9395TIP3    H149600   4.061   2.871  12.620  0.2667 -0.9711  0.5853
 9395TIP3    H249601   4.132   2.753  12.557 -0.4556 -0.8339 -0.5172
 9396TIP3   OH249602   2.285   2.029   0.673 -0.3409 -0.2529 -0.3049
 9396TIP3    H149603   2.342   2.106   0.665 -0.6223  0.1063  0.9224
 9396TIP3    H249604   2.197   2.064   0.663 -0.5370 -0.2122  1.3538
 9397TIP3   OH249605   4.931   2.936  11.804  0.2987  0.1491  0.4138
 9397TIP3    H149606   4.859   2.873  11.800 -0.0323  0.5926 -1.2430
 9397TIP3    H249607   4.916   2.994  11.730  1.8427  0.8313  0.6001
 9398TIP3   OH249608   4.121   3.333   4.837 -0.0209  0.3292 -0.0580
 9398TIP3    H149609   4.126   3.299   4.926 -1.0619  2.4541  0.8635
 9398TIP3    H249610   4.035   3.306   4.805 -1.9432  3.8528  1.5716
 9399TIP3   OH249611   5.944   4.122   5.616  0.3226 -0.3779 -0.1936
 9399TIP3    H149612   5.850   4.105   5.614  0.4251 -0.9034 -0.6071
 9399TIP3    H249613   5.951   4.215   5.638 -0.2739 -0.4896  0.4949
 9400TIP3   OH249614   0.824   3.848  15.385 -0.8137  0.6398 -0.0062
 9400TIP3    H149615   0.873   3.870  15.464  0.9225  0.5262 -0.9833
 9400TIP3    H249616   0.836   3.925  15.328 -0.7062  0.0868 -0.7412
 9401TIP3   OH249617   2.167   2.818   3.266 -0.4065 -0.8664 -0.9149
 9401TIP3    H149618   2.196   2.905   3.292  1.7662 -1.3535 -1.4707
 9401TIP3    H249619   2.072   2.824   3.262 -0.3607  1.2175 -0.0802
 9402TIP3   OH249620   3.385   1.343  12.321  0.5672 -0.6555  0.0443
 9402TIP3    H149621   3.399   1.348  12.227 -2.8678  0.9729 -0.5261
 9402TIP3    H249622   3.302   1.296  12.331  0.1162  0.4319  2.1441
 9403TIP3   OH249623   3.560   1.337   0.673 -0.3586  0.5502 -0.0856
 9403TIP3    H149624   3.521   1.410   0.721 -2.3153 -1.7005  2.0067
 9403TIP3    H249625   3.490   1.307   0.615 -0.2258 -0.7737  0.4114
 9404TIP3   OH249626   2.925   4.266  16.574 -0.0816  0.3811 -0.1408
 9404TIP3    H149627   3.006   4.233  16.613  0.8251  1.6190 -0.9242
 9404TIP3    H249628   2.870   4.289  16.649  0.2491 -0.5061  0.3940
 9405TIP3   OH249629   1.413   1.919  13.841 -0.2314  0.2298  0.4946
 9405TIP3    H149630   1.403   1.860  13.916 -0.2784 -1.0883 -0.5158
 9405TIP3    H249631   1.324   1.927  13.806 -0.0962  0.2892  0.1685
 9406TIP3   OH249632   5.652   0.616  10.838 -0.0577  0.4734 -0.6752
 9406TIP3    H149633   5.677   0.680  10.771  0.1551  0.8956 -0.1996
 9406TIP3    H249634   5.683   0.654  10.920 -0.0109 -0.2029 -0.3771
 9407TIP3   OH249635   6.162   4.080  17.208  0.1177 -0.5027 -0.5814
 9407TIP3    H149636   6.117   4.110  17.287  1.3675  0.0925 -0.0795
 9407TIP3    H249637   6.095   4.032  17.160 -0.5913 -1.1353  0.9705
 9408TIP3   OH249638   2.983   6.439   3.894  0.3243  0.2026  0.3848
 9408TIP3    H149639   2.899   6.439   3.939  0.6836 -0.1184  1.0835
 9408TIP3    H249640   2.981   6.516   3.837 -0.5801 -0.0108  0.1150
 9409TIP3   OH249641   0.247   6.100  11.370  0.0951 -0.2022  0.5825
 9409TIP3    H149642   0.190   6.046  11.316 -0.0091  0.1913  0.2961
 9409TIP3    H249643   0.330   6.101  11.323  0.0267  0.0777  0.4645
 9410TIP3   OH249644   3.719   3.763  15.492 -0.7445 -0.3121  0.6243
 9410TIP3    H149645   3.774   3.686  15.498 -0.5926 -0.1584  1.3435
 9410TIP3    H249646   3.657   3.744  15.422 -1.0496 -1.3081  1.1534
 9411TIP3   OH249647   3.169   2.644   1.144  0.6545 -0.2853  0.0557
 9411TIP3    H149648   3.075   2.661   1.155  0.5391 -2.0156  2.4883
 9411TIP3    H249649   3.173   2.572   1.082  0.4720  0.4565 -0.8448
 9412TIP3   OH249650   1.606   6.628  15.435 -0.5674  0.2394  0.1144
 9412TIP3    H149651   1.603   6.533  15.445  0.9456  0.1178 -0.3344
 9412TIP3    H249652   1.684   6.655  15.485 -0.5737  1.1586 -0.3435
 9413TIP3   OH249653   1.397   5.102  12.639 -0.5882 -0.1622  0.1298
 9413TIP3    H149654   1.451   5.080  12.563  0.9882 -2.3029  1.7509
 9413TIP3    H249655   1.410   5.197  12.651 -0.5703  0.1490 -1.9878
 9414TIP3   OH249656   5.758   3.597   3.655 -0.1234 -0.1089  0.2999
 9414TIP3    H149657   5.828   3.662   3.663  0.4391 -0.4859 -1.2653
 9414TIP3    H249658   5.703   3.630   3.584 -1.6733  0.2549  1.5828
 9415TIP3   OH249659   0.684   4.976  12.343 -0.0638  0.5179 -0.3530
 9415TIP3    H149660   0.763   4.984  12.396 -0.4043 -0.8052  0.3945
 9415TIP3    H249661   0.699   5.033  12.268  2.6619 -1.5432 -1.5188
 9416TIP3   OH249662   1.397   2.925   5.815 -0.1735 -0.4419  0.6360
 9416TIP3    H149663   1.340   2.970   5.753  0.2077  3.0943  2.5878
 9416TIP3    H249664   1.471   2.895   5.762 -1.3771 -0.5084 -1.0876
 9417TIP3   OH249665   6.301   1.626  16.287 -0.0114  0.1245  0.2080
 9417TIP3    H149666   6.215   1.621  16.247  0.2409 -0.7481 -0.2432
 9417TIP3    H249667   6.354   1.563  16.238  1.0903  1.1918 -0.0359
 9418TIP3   OH249668   6.191   0.643   2.291 -0.3638 -0.1899 -0.3715
 9418TIP3    H149669   6.279   0.642   2.253 -0.6998  2.5300 -1.4455
 9418TIP3    H249670   6.140   0.586   2.234  0.3133 -0.4400 -0.7415
 9419TIP3   OH249671   5.561   2.235  15.110 -0.0361 -0.7110 -0.1625
 9419TIP3    H149672   5.594   2.301  15.049 -1.5888 -0.2077 -0.4874
 9419TIP3    H249673   5.633   2.222  15.172  0.6417  0.5866 -0.6411
 9420TIP3   OH249674   1.315   0.991  16.124 -0.3903  0.7614 -0.7351
 9420TIP3    H149675   1.380   0.954  16.183 -1.3567 -1.4788 -0.9888
 9420TIP3    H249676   1.365   1.025  16.050  0.5438 -0.5055 -0.7160
 9421TIP3   OH249677   3.196   3.325  16.962  0.3469 -0.0426  0.0055
 9421TIP3    H149678   3.190   3.276  17.044 -0.4906 -0.0780 -0.0752
 9421TIP3    H249679   3.168   3.264  16.895 -0.2360  0.3982 -0.1525
 9422TIP3   OH249680   2.433   3.589  14.903 -0.3683  0.7606  0.1271
 9422TIP3    H149681   2.493   3.625  14.837 -0.0888  0.1570  0.0484
 9422TIP3    H249682   2.355   3.563  14.854  0.4697 -1.2067 -0.2471
 9423TIP3   OH249683   3.524   6.264   1.819 -0.1691  0.5916  0.1101
 9423TIP3    H149684   3.557   6.276   1.730 -1.4757  1.4796 -0.2809
 9423TIP3    H249685   3.439   6.222   1.808 -0.0037 -0.0289  1.0071
 9424TIP3   OH249686   4.693   4.445  15.648  0.1416  0.0767  0.3753
 9424TIP3    H149687   4.606   4.452  15.607  0.2872 -1.8133 -0.3627
 9424TIP3    H249688   4.685   4.370  15.707  1.5867 -0.8869 -0.5976
 9425TIP3   OH249689   4.626   1.936  13.510  0.2773  0.0612 -0.5023
 9425TIP3    H149690   4.717   1.906  13.509 -0.1049 -1.2171  0.5663
 9425TIP3    H249691   4.588   1.899  13.430  0.5915  0.3330 -0.7869
 9426TIP3   OH249692   1.307   3.088  13.173 -0.3057  0.2966 -0.2736
 9426TIP3    H149693   1.371   3.147  13.133  0.7277 -0.0710  0.7644
 9426TIP3    H249694   1.335   3.082  13.265 -1.2546 -0.6611 -0.0319
 9427TIP3   OH249695   3.163   4.845  11.817 -0.1454  0.1476 -0.3244
 9427TIP3    H149696   3.140   4.902  11.744 -2.3645 -0.9596 -0.5925
 9427TIP3    H249697   3.148   4.756  11.784  0.0850 -0.4410  1.0636
 9428TIP3   OH249698   0.935   5.925   0.356  0.0296  0.5033  0.3943
 9428TIP3    H149699   0.999   5.869   0.313  0.1509  0.7737  0.2196
 9428TIP3    H249700   0.924   5.999   0.296  1.1015  1.4902  1.3490
 9429TIP3   OH249701   0.048   6.671   1.405 -0.1293  0.4222  0.3184
 9429TIP3    H149702  -0.035   6.653   1.361 -0.3174  2.8465 -0.4670
 9429TIP3    H249703   0.047   6.613   1.481 -1.9862 -0.4609 -0.3054
 9430TIP3   OH249704   5.527   6.597   3.775  0.3593  0.2274  0.1489
 9430TIP3    H149705   5.617   6.586   3.806  0.5166 -1.3606 -0.7935
 9430TIP3    H249706   5.478   6.622   3.854  1.1300 -1.6105  1.2646
 9431TIP3   OH249707   3.256   0.942  13.097  0.3070  0.2241  0.1410
 9431TIP3    H149708   3.269   1.021  13.149 -0.7951  1.1624 -0.9453
 9431TIP3    H249709   3.183   0.896  13.139 -0.8192  1.1615 -0.7373
 9432TIP3   OH249710   2.275   6.023  13.906 -0.0084 -0.2808 -0.3275
 9432TIP3    H149711   2.349   6.002  13.849  0.1416 -0.4618 -0.0655
 9432TIP3    H249712   2.250   5.940  13.946 -1.0326 -0.4202 -1.2135
 9433TIP3   OH249713   3.512   0.735  14.323 -0.3291 -0.3043  0.1845
 9433TIP3    H149714   3.495   0.727  14.417  0.8284  2.2854  0.6920
 9433TIP3    H249715   3.489   0.825  14.302  0.0062 -0.6660 -1.9067
 9434TIP3   OH249716   1.743   0.997  15.726  0.3978  0.1785  0.2880
 9434TIP3    H149717   1.737   0.904  15.750 -2.2239  0.2068 -0.0597
 9434TIP3    H249718   1.781   0.996  15.638  1.6427 -0.4480  0.8047
 9435TIP3   OH249719   5.907   0.078  12.314  0.3081  0.0366  0.2581
 9435TIP3    H149720   5.860   0.101  12.395 -0.4104 -0.0799 -0.1133
 9435TIP3    H249721   5.840   0.082  12.246 -0.0388 -3.5873  0.2157
 9436TIP3   OH249722   3.624   5.679   0.448  0.2084  0.0639 -0.6579
 9436TIP3    H149723   3.670   5.660   0.530  0.9640  1.3631 -0.7514
 9436TIP3    H249724   3.540   5.715   0.476  0.0636 -0.4254 -0.4614
 9437TIP3   OH249725   0.761   1.267  15.698  0.6009 -0.4047  0.5743
 9437TIP3    H149726   0.849   1.301  15.716  0.7241  0.0043 -0.6925
 9437TIP3    H249727   0.704   1.344  15.703  0.3812 -0.5917  0.9573
 9438TIP3   OH249728   0.119   5.488   4.150 -0.1336 -0.1786  0.5638
 9438TIP3    H149729   0.080   5.551   4.090 -1.5506  1.5408  3.1136
 9438TIP3    H249730   0.072   5.406   4.133  0.1285  0.0178 -1.2358
 9439TIP3   OH249731   4.765   6.052   3.322  0.4434  0.3201 -0.6662
 9439TIP3    H149732   4.695   6.048   3.387  0.3876  0.4877 -0.7158
 9439TIP3    H249733   4.732   6.000   3.249  1.2291 -1.3630  0.1182
 9440TIP3   OH249734   5.754   2.448  11.280  0.1263  0.3206  0.1951
 9440TIP3    H149735   5.667   2.482  11.301  0.5435  0.9990  0.9171
 9440TIP3    H249736   5.738   2.366  11.234 -0.9024  0.7942 -0.3119
 9441TIP3   OH249737   6.447   4.423   2.201  0.0346 -0.1251  0.2427
 9441TIP3    H149738   6.515   4.364   2.234  0.0910 -0.1906  0.0137
 9441TIP3    H249739   6.392   4.442   2.277 -0.4440 -1.1006  0.1471
 9442TIP3   OH249740   3.241   6.223  15.183 -0.0098  0.2229  0.4791
 9442TIP3    H149741   3.233   6.166  15.260  2.6378  2.2737  2.4630
 9442TIP3    H249742   3.154   6.262  15.173 -1.1697 -2.1504  0.6196
 9443TIP3   OH249743   1.489   3.239  17.176  0.2148 -0.1924  0.3458
 9443TIP3    H149744   1.439   3.195  17.107  0.9616  0.6790 -0.8078
 9443TIP3    H249745   1.580   3.214  17.159  0.4569  0.4013  0.7451
 9444TIP3   OH249746   1.970   1.294  13.012  0.3178  0.7985  0.6644
 9444TIP3    H149747   1.892   1.346  12.993  0.5052  1.0994  0.7116
 9444TIP3    H249748   1.986   1.244  12.932 -1.4143 -1.2194  1.4839
 9445TIP3   OH249749   2.471   0.586   5.491 -0.3746 -0.4351 -0.0234
 9445TIP3    H149750   2.559   0.610   5.463 -0.7599  0.5540 -0.4525
 9445TIP3    H249751   2.474   0.585   5.586 -0.1499  0.6303 -0.0130
 9446TIP3   OH249752   1.958   1.355  15.591  0.2923 -0.6771 -0.3745
 9446TIP3    H149753   2.004   1.423  15.642 -1.2638  0.3672 -0.3037
 9446TIP3    H249754   1.998   1.273  15.620  1.4536  0.1158  0.3674
 9447TIP3   OH249755   3.648   2.900  14.584  0.1495  0.1718  0.0987
 9447TIP3    H149756   3.734   2.858  14.578  0.5710  1.1969 -1.7385
 9447TIP3    H249757   3.666   2.993  14.571 -1.2925  0.3439 -0.8353
 9448TIP3   OH249758   6.223   2.724  14.643  0.3010  0.0816 -0.4770
 9448TIP3    H149759   6.251   2.816  14.638  1.0218 -0.2016 -2.4223
 9448TIP3    H249760   6.304   2.673  14.641 -0.0891 -0.6318  0.6942
 9449TIP3   OH249761   5.076   5.671  16.740  0.3872  0.6565  0.2937
 9449TIP3    H149762   5.142   5.688  16.806  2.2263 -0.6363 -1.1061
 9449TIP3    H249763   5.046   5.758  16.713  0.1951  1.2139  2.1658
 9450TIP3   OH249764   6.758   3.553  10.560  0.1395 -0.3574  0.1928
 9450TIP3    H149765   6.781   3.507  10.640  0.3198 -0.1732  0.2450
 9450TIP3    H249766   6.799   3.501  10.490 -0.6209 -0.9317  0.1529
 9451TIP3   OH249767   4.680   1.371  10.699 -0.2246 -0.8864 -0.4700
 9451TIP3    H149768   4.720   1.341  10.618 -0.0304 -1.5953 -0.1265
 9451TIP3    H249769   4.656   1.462  10.683 -1.7527 -1.4912 -1.9006
 9452TIP3   OH249770   6.752   4.787   2.430 -0.0178  0.1191  0.7554
 9452TIP3    H149771   6.706   4.703   2.432 -0.9545  0.6232  0.5032
 9452TIP3    H249772   6.739   4.821   2.342  1.0145  0.1824  0.6135
 9453TIP3   OH249773   3.616   6.112  13.431  0.0943 -0.1304 -0.5093
 9453TIP3    H149774   3.701   6.153  13.413  0.6103 -0.7986  0.3136
 9453TIP3    H249775   3.621   6.027  13.388  0.1515 -0.4794  0.1619
 9454TIP3   OH249776   1.532   2.162  15.999 -0.0454  0.6480 -0.1564
 9454TIP3    H149777   1.613   2.186  15.954  0.5215  0.3241  0.6574
 9454TIP3    H249778   1.507   2.078  15.962  0.1996  0.5725 -0.1539
 9455TIP3   OH249779   2.625   1.960   2.825 -0.3576 -0.4858 -0.1111
 9455TIP3    H149780   2.693   1.910   2.870 -0.6834 -2.5916 -1.8066
 9455TIP3    H249781   2.585   1.898   2.765 -4.0426  0.5594  1.0080
 9456TIP3   OH249782   0.237   2.075  17.021 -0.1909 -0.9184 -0.0285
 9456TIP3    H149783   0.315   2.116  17.058 -0.2515 -1.0409  0.2397
 9456TIP3    H249784   0.218   2.002  17.080 -0.5691 -0.8239 -0.0299
 9457TIP3   OH249785   3.772   3.006   1.471 -0.2548 -0.5980  0.3689
 9457TIP3    H149786   3.850   2.993   1.417 -1.6036  1.8384 -2.5025
 9457TIP3    H249787   3.736   2.919   1.484  1.0849 -1.4405 -1.2525
 9458TIP3   OH249788   0.642   6.219  14.058  0.0439  0.2388  0.5859
 9458TIP3    H149789   0.705   6.254  13.996 -0.8947 -1.4581 -1.4511
 9458TIP3    H249790   0.694   6.195  14.134  1.6926 -0.1882 -0.6268
 9459TIP3   OH249791   5.341   0.449  16.148 -0.6963  0.5918 -0.2830
 9459TIP3    H149792   5.319   0.523  16.205 -0.5869 -0.6970  1.5125
 9459TIP3    H249793   5.355   0.376  16.208 -1.7374 -1.1456 -2.0445
 9460TIP3   OH249794   5.591   0.820   0.020  0.0356  0.0051 -0.4844
 9460TIP3    H149795   5.584   0.913   0.043  1.2187 -0.0554  0.1982
 9460TIP3    H249796   5.673   0.813  -0.027  1.2116 -1.0679  1.5984
 9461TIP3   OH249797   3.413   3.287  16.714 -0.3162  0.5601 -0.9198
 9461TIP3    H149798   3.387   3.371  16.677 -4.3005 -0.7880 -1.7555
 9461TIP3    H249799   3.403   3.298  16.809  0.6200  1.3934 -0.9105
 9462TIP3   OH249800   4.170   6.457   5.330 -0.2177  0.2356 -0.4713
 9462TIP3    H149801   4.095   6.444   5.388  0.2738  0.4887  0.2359
 9462TIP3    H249802   4.218   6.530   5.370 -0.2767  0.9237 -1.6144
 9463TIP3   OH249803   5.511   2.000   2.792 -0.3509 -0.0098 -0.1941
 9463TIP3    H149804   5.462   2.075   2.827  0.5289  0.4374  0.1042
 9463TIP3    H249805   5.446   1.929   2.788 -1.8363  1.3395 -2.6773
 9464TIP3   OH249806   3.220   2.373  12.778 -0.3977  0.2188  0.4427
 9464TIP3    H149807   3.268   2.455  12.788 -1.0379  0.4696  1.6719
 9464TIP3    H249808   3.238   2.345  12.688  0.2718  1.4131  0.1858
 9465TIP3   OH249809   5.723   6.243  16.124 -0.0396 -0.6710  0.6183
 9465TIP3    H149810   5.700   6.203  16.040  2.9001 -0.1384 -0.5625
 9465TIP3    H249811   5.678   6.190  16.190 -1.2097 -2.0259 -1.1877
 9466TIP3   OH249812   1.183   4.146   4.625 -0.2589  0.9484 -0.2919
 9466TIP3    H149813   1.135   4.088   4.685 -0.6836  1.1930 -0.3929
 9466TIP3    H249814   1.238   4.200   4.683 -0.7315  1.2413 -0.1087
 9467TIP3   OH249815   6.266   3.894   1.242  0.3213 -0.2006  0.3778
 9467TIP3    H149816   6.322   3.920   1.315 -1.1478  1.4931  0.9962
 9467TIP3    H249817   6.213   3.823   1.276  0.1999  0.0471  0.7117
 9468TIP3   OH249818   0.198   6.711  10.897  0.0996  0.1015  0.3434
 9468TIP3    H149819   0.143   6.738  10.971 -0.3342 -0.2847  0.1707
 9468TIP3    H249820   0.148   6.738  10.820 -0.3413 -1.1478  0.1660
 9469TIP3   OH249821   1.834   2.967   0.123 -0.9641 -0.4359  0.5056
 9469TIP3    H149822   1.795   3.041   0.076  0.6427 -0.6802 -1.3621
 9469TIP3    H249823   1.821   2.892   0.064  2.4061 -0.4763 -0.3708
 9470TIP3   OH249824   1.425   5.721   5.640 -0.4554  0.3205  0.0114
 9470TIP3    H149825   1.507   5.672   5.647  0.2784  1.0729 -2.2968
 9470TIP3    H249826   1.390   5.697   5.554 -1.9033  1.1573  0.3278
 9471TIP3   OH249827   3.988   6.657  13.198 -0.1980  0.7749 -0.4547
 9471TIP3    H149828   4.039   6.606  13.135  0.2521 -0.4446  0.8688
 9471TIP3    H249829   3.897   6.637  13.177 -0.1208  1.6493 -1.7398
 9472TIP3   OH249830   5.963   2.449  10.527  0.4027 -0.2417 -0.2048
 9472TIP3    H149831   5.909   2.369  10.521 -1.1676  0.6886  0.7420
 9472TIP3    H249832   5.960   2.472  10.619 -1.3522  2.3167 -0.8100
 9473TIP3   OH249833   1.562   2.014  11.852 -0.2614 -0.5136  0.2207
 9473TIP3    H149834   1.582   2.043  11.763 -2.0652 -0.6996 -0.2906
 9473TIP3    H249835   1.644   1.979  11.886  0.9193  1.2353 -0.6986
 9474TIP3   OH249836   5.834   0.405  11.167 -0.2543 -0.3740 -0.1415
 9474TIP3    H149837   5.909   0.401  11.227  0.5876  0.2005 -1.1247
 9474TIP3    H249838   5.799   0.494  11.179 -0.5426 -0.5106  0.0358
 9475TIP3   OH249839   3.291   1.932   4.304  0.6461 -0.1220  0.3190
 9475TIP3    H149840   3.368   1.956   4.253  0.0361  0.9931 -0.1029
 9475TIP3    H249841   3.306   1.971   4.390  0.6031  0.0039  0.2697
 9476TIP3   OH249842   5.239   4.292  14.742 -0.2213 -0.6163  0.1908
 9476TIP3    H149843   5.191   4.356  14.795 -1.4292  0.0137 -1.5546
 9476TIP3    H249844   5.331   4.313  14.756 -0.5774  1.2742 -0.0020
 9477TIP3   OH249845   4.681   1.795  15.009  0.3156 -0.1289 -0.5179
 9477TIP3    H149846   4.642   1.770  15.092  3.3728 -0.5061  0.9291
 9477TIP3    H249847   4.644   1.881  14.990 -2.0520 -0.9277  0.0271
 9478TIP3   OH249848   5.594   2.154   5.114 -0.1903  0.3440  0.1981
 9478TIP3    H149849   5.536   2.135   5.041  2.1116 -0.3879 -1.5316
 9478TIP3    H249850   5.593   2.075   5.168 -0.5700  0.2307  0.0244
 9479TIP3   OH249851   1.017   1.052  15.932 -0.0885  0.1272  0.4366
 9479TIP3    H149852   1.097   1.013  15.899 -0.2862  1.4542 -1.8560
 9479TIP3    H249853   0.989   1.111  15.862 -2.5439  0.4369  1.5773
 9480TIP3   OH249854   1.776   4.193  17.020 -0.5194 -0.1160  0.1619
 9480TIP3    H149855   1.794   4.229  17.107 -0.6753 -0.7838  0.4783
 9480TIP3    H249856   1.863   4.179  16.982 -0.4536  0.6824 -0.0163
 9481TIP3   OH249857   4.432   2.469  12.035  0.3344  0.1844 -0.3877
 9481TIP3    H149858   4.401   2.392  11.988  1.5993 -0.0697 -0.8358
 9481TIP3    H249859   4.439   2.537  11.968  1.1292  0.1189 -0.3819
 9482TIP3   OH249860   4.644   6.633   2.868 -0.2042 -0.3069 -0.1113
 9482TIP3    H149861   4.582   6.593   2.807  1.8844 -2.4474 -0.9617
 9482TIP3    H249862   4.593   6.646   2.949 -1.9019 -1.3778 -0.9597
 9483TIP3   OH249863   4.100   2.310  13.548  0.4769  0.7988  0.0941
 9483TIP3    H149864   4.111   2.317  13.453  1.0894  0.6696  0.1459
 9483TIP3    H249865   4.083   2.399  13.577  2.0545  1.1547  0.0506
 9484TIP3   OH249866   5.175   2.696  14.242  0.4237 -0.3382 -0.0654
 9484TIP3    H149867   5.246   2.759  14.247 -0.7589  1.0456 -0.1248
 9484TIP3    H249868   5.187   2.639  14.319  0.7812  0.7576  0.7116
 9485TIP3   OH249869   2.759   0.402   5.298 -0.3385  0.4091 -0.0615
 9485TIP3    H149870   2.817   0.440   5.232 -0.1130  0.1022 -0.0455
 9485TIP3    H249871   2.745   0.473   5.361 -0.1206  0.5422 -0.1598
 9486TIP3   OH249872   1.493   5.367  12.615 -0.2035 -0.2115  0.3251
 9486TIP3    H149873   1.503   5.413  12.532 -0.2585 -1.3512 -0.3336
 9486TIP3    H249874   1.554   5.411  12.674  1.3238 -0.6652 -0.8576
 9487TIP3   OH249875   2.663   1.563  13.422 -0.0988 -0.2446  0.8262
 9487TIP3    H149876   2.711   1.493  13.468  1.9045  1.5055  1.6085
 9487TIP3    H249877   2.637   1.623  13.492 -0.7823  0.3463  0.0747
 9488TIP3   OH249878   1.399   0.696   1.414  0.1461  0.0094  0.0993
 9488TIP3    H149879   1.304   0.681   1.421 -0.1104  2.0155  2.2393
 9488TIP3    H249880   1.437   0.609   1.420 -1.5462 -0.7596  0.4335
 9489TIP3   OH249881   0.810   4.178   1.028 -0.1918  0.2381  0.1678
 9489TIP3    H149882   0.880   4.223   1.075 -0.1524 -0.2421  0.5775
 9489TIP3    H249883   0.784   4.107   1.086  0.2881 -0.7511 -0.7877
 9490TIP3   OH249884   5.933   5.740   4.780 -0.0114  0.3839 -0.1885
 9490TIP3    H149885   5.924   5.795   4.703 -2.4393 -1.1755 -1.1276
 9490TIP3    H249886   5.957   5.801   4.850  1.5632  1.9381 -1.9726
 9491TIP3   OH249887   5.072   4.113   3.466 -0.1379  0.4821  0.3376
 9491TIP3    H149888   4.982   4.142   3.456  0.5766  2.4055 -1.1518
 9491TIP3    H249889   5.087   4.053   3.394  0.1279  1.2161 -0.2358
 9492TIP3   OH249890   1.213   3.011  12.842  0.0636 -0.2432  0.0650
 9492TIP3    H149891   1.296   3.055  12.862 -0.7204  0.8496  1.0216
 9492TIP3    H249892   1.147   3.080  12.850 -1.1293 -1.4619  0.9628
 9493TIP3   OH249893   3.363   1.765  11.165 -0.0091 -0.2422  0.3639
 9493TIP3    H149894   3.314   1.683  11.168 -0.7056  0.1930  1.2848
 9493TIP3    H249895   3.316   1.819  11.101 -1.2206  0.4379  1.7490
 9494TIP3   OH249896   6.446   1.804   6.329  0.0595  0.6627  0.5652
 9494TIP3    H149897   6.465   1.881   6.277  0.0450  1.2972  1.4769
 9494TIP3    H249898   6.531   1.777   6.363  0.0362  0.3958  0.4149
 9495TIP3   OH249899   3.458   4.468  14.612  0.1871  0.0326  1.1568
 9495TIP3    H149900   3.546   4.480  14.647  1.1741 -0.4297 -0.9828
 9495TIP3    H249901   3.427   4.386  14.652  0.2836  0.7127  2.6936
 9496TIP3   OH249902   6.285   6.442  14.979  0.5548 -0.0751  0.0640
 9496TIP3    H149903   6.218   6.454  15.046  1.6444  0.2777  1.1287
 9496TIP3    H249904   6.248   6.482  14.900 -1.1129 -1.2693  0.1837
 9497TIP3   OH249905   5.773   1.268   3.799  0.3945  0.2754  0.1727
 9497TIP3    H149906   5.755   1.346   3.747  0.6603 -0.5225 -1.1669
 9497TIP3    H249907   5.800   1.202   3.735  1.3803 -0.5624  1.3923
 9498TIP3   OH249908   4.065   0.944  14.534  0.1892 -0.2055  0.1879
 9498TIP3    H149909   4.075   1.033  14.498 -0.4514 -0.6662 -1.1943
 9498TIP3    H249910   3.989   0.909  14.488  0.4719 -1.5024  0.6905
 9499TIP3   OH249911   1.825   5.911  11.896 -0.1088 -0.3857  0.6973
 9499TIP3    H149912   1.853   5.821  11.880 -0.9061 -0.9203  2.1442
 9499TIP3    H249913   1.906   5.959  11.914  0.6722 -0.0862 -2.9566
 9500TIP3   OH249914   4.142   0.239  13.339 -0.2405 -0.4362  0.0919
 9500TIP3    H149915   4.140   0.223  13.245  0.0962 -0.6847  0.1251
 9500TIP3    H249916   4.061   0.200  13.372 -1.2038  1.1260 -0.3149
 9501TIP3   OH249917   3.112   0.830   5.908 -0.0824 -1.2056 -0.0575
 9501TIP3    H149918   3.118   0.807   6.001  1.3285  1.1739  0.5658
 9501TIP3    H249919   3.197   0.805   5.872 -0.7685 -2.4818 -0.8339
 9502TIP3   OH249920   6.275   1.855  14.085 -0.1037  0.2854  0.1074
 9502TIP3    H149921   6.316   1.939  14.063  1.2566  0.0622  1.5794
 9502TIP3    H249922   6.218   1.836  14.011  1.4057  1.3237 -1.3996
 9503TIP3   OH249923   2.137   4.140  15.436  0.4836 -0.1123 -0.4769
 9503TIP3    H149924   2.147   4.079  15.363  1.3406 -0.6982  0.0995
 9503TIP3    H249925   2.101   4.219  15.397 -0.8055 -1.0391 -1.2215
 9504TIP3   OH249926   4.163   5.553   1.261 -0.4016  0.3867 -0.6403
 9504TIP3    H149927   4.218   5.632   1.255  0.1472  0.0580 -0.0048
 9504TIP3    H249928   4.188   5.513   1.344  0.1857 -1.0960 -1.5001
 9505TIP3   OH249929   4.272   3.202  10.548  0.2878  0.0032 -0.3450
 9505TIP3    H149930   4.364   3.221  10.565 -0.0161  2.5111 -1.1762
 9505TIP3    H249931   4.233   3.286  10.526 -2.3355 -0.9037  0.4136
 9506TIP3   OH249932   0.875   5.130   4.525  0.6942  0.2454 -0.3340
 9506TIP3    H149933   0.887   5.221   4.552 -0.0573  0.2502 -0.0088
 9506TIP3    H249934   0.917   5.125   4.439  0.1151  1.0840 -0.6805
 9507TIP3   OH249935   6.624   6.080  14.542  0.1191 -0.3004 -0.1553
 9507TIP3    H149936   6.540   6.057  14.502  0.7190  1.0419 -2.3698
 9507TIP3    H249937   6.664   5.997  14.565 -1.2978 -1.0136 -0.1627
 9508TIP3   OH249938   4.655   3.357   4.156  0.2267  0.7751  0.7739
 9508TIP3    H149939   4.701   3.326   4.234  0.4112  0.0597  0.3883
 9508TIP3    H249940   4.691   3.305   4.084  0.0425  1.4107  0.2097
 9509TIP3   OH249941   3.922   2.986   2.161 -0.3786 -0.1141 -0.4478
 9509TIP3    H149942   3.957   3.028   2.239 -1.0943  1.2117 -0.8144
 9509TIP3    H249943   3.990   2.925   2.134  0.5778  0.6080  0.2772
 9510TIP3   OH249944   5.468   4.374   3.276  0.5203 -0.0102 -0.0076
 9510TIP3    H149945   5.413   4.337   3.345  1.2272 -1.2208 -0.0671
 9510TIP3    H249946   5.446   4.324   3.198 -0.0714  1.1686 -0.6340
 9511TIP3   OH249947   3.896   1.135  14.363  0.1998 -0.1242 -0.6227
 9511TIP3    H149948   3.886   1.228  14.385 -0.7200 -0.1447 -0.9144
 9511TIP3    H249949   3.807   1.100  14.366  0.6572 -1.2752  0.6781
 9512TIP3   OH249950   4.661   0.151   1.533 -0.6077  0.1025 -0.4217
 9512TIP3    H149951   4.722   0.170   1.604 -1.0994  0.6459 -0.1311
 9512TIP3    H249952   4.576   0.145   1.577 -0.7914 -0.4694 -0.8420
 9513TIP3   OH249953   6.636   1.329  10.625 -0.4668 -0.2865 -0.1247
 9513TIP3    H149954   6.701   1.281  10.574 -0.8850 -0.1680 -0.7741
 9513TIP3    H249955   6.582   1.374  10.560 -1.3052 -0.5087  0.3996
 9514TIP3   OH249956   2.923   2.991  15.835 -0.4269 -0.3246 -0.2159
 9514TIP3    H149957   2.834   3.009  15.865 -0.4089 -1.0660  0.3272
 9514TIP3    H249958   2.915   2.908  15.787  0.0414 -0.6462  0.2517
 9515TIP3   OH249959   4.756   0.489  13.357 -0.6024  0.0295  0.2222
 9515TIP3    H149960   4.797   0.526  13.435  0.7642  0.4355 -0.6356
 9515TIP3    H249961   4.698   0.558  13.325  0.8789  0.9732 -0.5835
 9516TIP3   OH249962   3.234   3.167  11.130 -0.2001  0.0713  0.6276
 9516TIP3    H149963   3.142   3.169  11.155 -0.2793 -0.2538  0.3729
 9516TIP3    H249964   3.254   3.256  11.102 -0.4210  0.1588  0.7518
 9517TIP3   OH249965   5.380   5.264   5.073  0.2176  0.3383  0.0061
 9517TIP3    H149966   5.416   5.344   5.111 -0.0619 -0.3329  1.8062
 9517TIP3    H249967   5.452   5.227   5.022  1.2428  0.3697  1.3735
 9518TIP3   OH249968   6.207   3.077   1.906 -0.1112  0.7757  0.0683
 9518TIP3    H149969   6.271   3.146   1.888 -0.8431  1.3345 -0.4423
 9518TIP3    H249970   6.148   3.079   1.831 -0.3255 -0.1975  0.2067
 9519TIP3   OH249971   6.239   5.775  12.989 -0.1608 -0.5653  0.1288
 9519TIP3    H149972   6.143   5.782  12.987 -0.1330 -0.3497 -1.1978
 9519TIP3    H249973   6.259   5.707  12.925  0.7459  1.8609 -2.3298
 9520TIP3   OH249974   3.403   1.020   3.122  0.1180 -0.0864 -0.1657
 9520TIP3    H149975   3.383   1.015   3.029 -0.5826 -0.6111  0.0021
 9520TIP3    H249976   3.418   0.929   3.148 -0.4657 -0.0360  0.3909
 9521TIP3   OH249977   5.984   3.665   4.555  0.7277 -0.4792 -0.2717
 9521TIP3    H149978   5.979   3.667   4.459  1.8369  1.1617 -0.3276
 9521TIP3    H249979   6.065   3.617   4.573  0.4768 -0.8581 -0.1397
 9522TIP3   OH249980   3.189   6.144  13.759  0.2404 -0.5718  0.1851
 9522TIP3    H149981   3.272   6.189  13.777 -1.0567  1.2010  2.2581
 9522TIP3    H249982   3.136   6.210  13.713 -1.1055 -0.4968  1.7530
 9523TIP3   OH249983   4.605   2.944   0.604 -0.0760  0.2735  0.5651
 9523TIP3    H149984   4.529   2.919   0.657 -0.3069  1.4192  0.8187
 9523TIP3    H249985   4.585   2.912   0.516 -0.2898 -0.4972  0.8868
 9524TIP3   OH249986   2.131   2.637  15.049 -0.1702  0.6177 -0.4104
 9524TIP3    H149987   2.219   2.675  15.053  0.7506 -1.3131 -0.9326
 9524TIP3    H249988   2.094   2.670  14.968  0.1446  1.2970 -0.2825
 9525TIP3   OH249989   0.328   6.035   4.958  0.1091 -0.2753  0.3113
 9525TIP3    H149990   0.367   5.954   4.993  2.2212  0.8180  0.6484
 9525TIP3    H249991   0.397   6.073   4.903 -1.4485  0.4870 -1.1994
 9526TIP3   OH249992   6.618   6.107   0.110 -0.3351  0.1619 -0.6802
 9526TIP3    H149993   6.685   6.106   0.042  0.1076  1.0720 -0.2701
 9526TIP3    H249994   6.642   6.036   0.169  0.0870  0.2797 -0.7083
 9527TIP3   OH249995   6.146   0.137  15.810 -0.3403  0.4846  0.1032
 9527TIP3    H149996   6.160   0.111  15.901 -0.7859  2.3112  0.7514
 9527TIP3    H249997   6.209   0.086  15.760 -0.2196 -0.7055  1.4132
 9528TIP3   OH249998   2.037   3.897   2.531 -0.2380 -0.2123  0.0329
 9528TIP3    H149999   1.989   3.848   2.465  0.9967  0.0185 -1.0915
 9528TIP3    H250000   2.118   3.924   2.487  1.3285 -1.2750  2.0693
 9529TIP3   OH250001   5.462   5.217   3.290 -0.1026 -0.3994 -0.1777
 9529TIP3    H150002   5.449   5.173   3.374  0.0576 -0.3972 -0.1526
 9529TIP3    H250003   5.474   5.309   3.312  0.8215 -0.5264 -0.1349
 9530TIP3   OH250004   3.349   1.403   3.934 -0.2844 -0.6516  0.0876
 9530TIP3    H150005   3.430   1.403   3.883  0.1824  0.6611  0.7613
 9530TIP3    H250006   3.279   1.417   3.870  0.3637  1.8713 -0.1555
 9531TIP3   OH250007   6.751   2.630  15.519  0.0864 -0.2556 -0.0776
 9531TIP3    H150008   6.783   2.544  15.545 -0.3277 -0.7423 -1.1002
 9531TIP3    H250009   6.662   2.634  15.552 -0.6156 -1.0750 -1.7345
 9532TIP3   OH250010   4.830   1.489   4.787 -0.1726 -0.3683  0.5111
 9532TIP3    H150011   4.897   1.556   4.774 -0.0334 -0.4328  0.8915
 9532TIP3    H250012   4.748   1.538   4.789 -0.3213 -0.4310 -1.5133
 9533TIP3   OH250013   4.389   2.239  11.471  0.9590  0.4326 -0.2788
 9533TIP3    H150014   4.423   2.327  11.453  0.7909  0.2795 -1.4320
 9533TIP3    H250015   4.383   2.198  11.384 -0.1374 -0.2806  0.1148
 9534TIP3   OH250016   2.945   3.939  12.534  0.5161 -0.3611 -0.2705
 9534TIP3    H150017   2.954   3.943  12.438  1.2653 -0.5760 -0.2162
 9534TIP3    H250018   2.912   4.026  12.558  2.8359  0.6665 -0.4934
 9535TIP3   OH250019   2.979   3.278   6.278 -0.2569  0.5694 -0.4925
 9535TIP3    H150020   2.883   3.273   6.283 -0.3763 -2.2436 -2.8251
 9535TIP3    H250021   2.997   3.362   6.237 -2.0837 -0.3418 -3.5120
 9536TIP3   OH250022   6.259   6.452   4.475 -0.1917 -0.7243  0.3843
 9536TIP3    H150023   6.286   6.543   4.461 -1.3090 -0.2681  1.0747
 9536TIP3    H250024   6.206   6.431   4.398 -0.7148 -0.4665  0.6680
 9537TIP3   OH250025   0.988   4.205   0.031  0.2008  0.1560 -0.3226
 9537TIP3    H150026   1.059   4.217  -0.031  0.2977  1.6821  0.0481
 9537TIP3    H250027   0.928   4.277   0.013 -0.9340 -0.7277 -0.1888
 9538TIP3   OH250028   5.743   6.228  15.409 -0.7206  0.1533  0.0739
 9538TIP3    H150029   5.670   6.236  15.348 -0.1166 -0.8111 -0.8027
 9538TIP3    H250030   5.801   6.301  15.386 -2.1070  1.9277  1.8418
 9539TIP3   OH250031   6.203   1.038  13.828 -0.2639  0.5159 -0.0196
 9539TIP3    H150032   6.290   1.030  13.790 -0.8962 -0.2917 -1.3552
 9539TIP3    H250033   6.216   1.022  13.921  1.0969  1.0539 -0.0907
 9540TIP3   OH250034   6.681   0.735  14.773 -0.9895 -0.4522  0.4308
 9540TIP3    H150035   6.657   0.823  14.745  0.0497 -0.4248 -0.4169
 9540TIP3    H250036   6.727   0.697  14.698 -0.4521 -1.3211  1.1803
 9541TIP3   OH250037   0.850   2.768   0.056 -0.4499  0.5956 -0.3618
 9541TIP3    H150038   0.825   2.714  -0.019  1.1962 -0.7249 -0.0052
 9541TIP3    H250039   0.794   2.845   0.049 -2.5804 -0.9288 -1.1322
 9542TIP3   OH250040   4.180   3.354  15.882  0.2710  0.5806 -0.3258
 9542TIP3    H150041   4.101   3.371  15.830 -1.6350  1.9815  2.7179
 9542TIP3    H250042   4.147   3.339  15.970  3.3588 -0.8099  0.7321
 9543TIP3   OH250043   6.116   1.550   5.523  0.2355 -0.2348  0.9513
 9543TIP3    H150044   6.073   1.480   5.572  0.4152  0.0129  1.4682
 9543TIP3    H250045   6.150   1.609   5.590  0.3051  0.2176  0.5234
 9544TIP3   OH250046   4.940   0.038   2.291 -0.4118  0.1396  0.0604
 9544TIP3    H150047   4.860   0.053   2.341  0.5820  0.8590  1.4996
 9544TIP3    H250048   4.918  -0.033   2.230 -2.3181  0.7709 -0.0450
 9545TIP3   OH250049   6.666   4.059  16.834  0.0024 -0.2506 -0.3927
 9545TIP3    H150050   6.700   4.084  16.919  0.3571  0.5122 -0.7474
 9545TIP3    H250051   6.700   4.126  16.774  0.8198 -1.4745 -1.3389
 9546TIP3   OH250052   0.568   0.869   3.006 -0.1048 -0.2764  0.4130
 9546TIP3    H150053   0.619   0.806   3.056  0.2363 -0.8994 -0.6746
 9546TIP3    H250054   0.560   0.830   2.919 -3.6772 -0.9349  0.8729
 9547TIP3   OH250055   4.866   0.401   3.865  0.3484 -0.2239  0.5235
 9547TIP3    H150056   4.794   0.457   3.894 -0.1995 -0.3457 -0.5413
 9547TIP3    H250057   4.942   0.432   3.914 -0.2120  0.5745  0.9161
 9548TIP3   OH250058   3.740   1.165   5.654 -0.2945 -0.2353 -0.6586
 9548TIP3    H150059   3.686   1.205   5.586 -0.9485  0.1661  0.0856
 9548TIP3    H250060   3.810   1.228   5.669 -1.3936  0.7356  0.6014
 9549TIP3   OH250061   3.023   1.625   1.821  0.4476  0.4876 -0.0506
 9549TIP3    H150062   2.934   1.592   1.815  0.5754  0.1484 -0.1176
 9549TIP3    H250063   3.016   1.706   1.870  0.1330  0.3459  0.1367
 9550TIP3   OH250064   2.188   3.502  16.192 -0.6500  0.1482  0.5991
 9550TIP3    H150065   2.138   3.458  16.261  1.0978 -1.0314  1.1780
 9550TIP3    H250066   2.257   3.548  16.238  1.6149 -2.0565 -0.3568
 9551TIP3   OH250067   6.496   2.962   1.527 -0.3823  0.0736 -0.3685
 9551TIP3    H150068   6.491   2.974   1.621  0.4752  0.1735 -0.3356
 9551TIP3    H250069   6.407   2.935   1.502 -0.3012 -1.2109  0.6424
 9552TIP3   OH250070   6.173   6.697   5.307 -0.4703  0.2012  0.0373
 9552TIP3    H150071   6.204   6.673   5.394 -1.4490  0.6824  0.5449
 9552TIP3    H250072   6.245   6.677   5.249 -0.8173 -2.8817  0.5365
 9553TIP3   OH250073   1.541   1.472  16.384  1.1800 -0.1508  0.5616
 9553TIP3    H150074   1.496   1.391  16.408 -0.2507 -0.0998 -1.6605
 9553TIP3    H250075   1.522   1.532  16.457  0.6449 -1.2286  1.3264
 9554TIP3   OH250076   1.633   1.947   5.240  0.3013 -0.2961 -0.1517
 9554TIP3    H150077   1.599   1.987   5.159 -0.1136  1.1894  0.7024
 9554TIP3    H250078   1.587   1.864   5.247  1.1867 -0.9901 -2.0102
 9555TIP3   OH250079   5.855   1.232  12.990  0.3092 -0.4990  0.4704
 9555TIP3    H150080   5.877   1.306  12.934  1.0804 -1.2803 -0.2842
 9555TIP3    H250081   5.762   1.245  13.011 -0.0620 -0.2787 -1.1501
 9556TIP3   OH250082   2.154   5.521  13.637  0.1049  0.5100 -0.2232
 9556TIP3    H150083   2.113   5.515  13.723  0.7410 -0.9597  0.0053
 9556TIP3    H250084   2.231   5.577  13.651  0.5575 -0.2291  0.3197
 9557TIP3   OH250085   3.495   5.905   1.863 -0.1918 -0.0863  0.1024
 9557TIP3    H150086   3.588   5.929   1.862  0.0648 -1.0681 -0.4417
 9557TIP3    H250087   3.490   5.826   1.917 -0.8342  0.3728  0.7460
 9558TIP3   OH250088   0.705   2.678  14.411  0.0692 -0.1024  0.1006
 9558TIP3    H150089   0.664   2.660  14.496  0.8664 -1.2228  0.2664
 9558TIP3    H250090   0.799   2.671  14.427  0.1958 -2.0777 -1.2327
 9559TIP3   OH250091   4.732   4.816  14.434 -0.0184 -0.3697 -0.0332
 9559TIP3    H150092   4.736   4.853  14.522 -1.2132  2.2397 -0.9928
 9559TIP3    H250093   4.655   4.759  14.436  0.6331 -1.2603  0.8880
 9560TIP3   OH250094   1.914   5.888  13.667 -0.4116 -0.0927  0.1704
 9560TIP3    H150095   2.001   5.858  13.694  0.4985  2.5047  0.4658
 9560TIP3    H250096   1.899   5.966  13.720 -1.8839  0.8695 -1.5612
 9561TIP3   OH250097   2.899   4.600   4.266 -0.0660  0.0258  0.4206
 9561TIP3    H150098   2.878   4.536   4.198 -0.4497 -1.4527  1.8711
 9561TIP3    H250099   2.816   4.643   4.285  0.1098  0.6830 -0.2674
 9562TIP3   OH250100   1.711   3.121   3.578  0.2084  0.5536 -0.2940
 9562TIP3    H150101   1.622   3.158   3.576  0.6771  1.7149 -0.3561
 9562TIP3    H250102   1.744   3.144   3.665  1.4103  2.5404 -1.2093
 9563TIP3   OH250103   4.349   5.836   3.660  0.0263 -0.3863 -0.4469
 9563TIP3    H150104   4.282   5.847   3.593 -0.7530 -0.0265  0.3769
 9563TIP3    H250105   4.432   5.850   3.613 -0.3519 -2.3877 -1.7971
 9564TIP3   OH250106   1.822   2.903  12.334 -0.7005  1.1336  0.0248
 9564TIP3    H150107   1.877   2.977  12.310  0.9242  0.0983  0.3626
 9564TIP3    H250108   1.860   2.829  12.287 -1.4661  0.2752  0.7146
 9565TIP3   OH250109   1.531   0.203  10.863 -0.0416  0.3804 -0.2159
 9565TIP3    H150110   1.597   0.135  10.873  0.3583  0.5742 -1.4476
 9565TIP3    H250111   1.453   0.166  10.904  0.4175 -0.4345 -0.0478
 9566TIP3   OH250112   1.790   5.576  10.907  0.1879  0.0312 -0.1719
 9566TIP3    H150113   1.797   5.485  10.876  0.8965  0.5193 -1.5273
 9566TIP3    H250114   1.783   5.628  10.827  0.9927  1.2723  0.5261
 9567TIP3   OH250115   2.143   0.989   4.230  0.0633 -0.4314  0.0140
 9567TIP3    H150116   2.148   1.069   4.177  1.5528 -0.1476  0.5155
 9567TIP3    H250117   2.167   0.919   4.169  1.2552 -0.1668  0.1355
 9568TIP3   OH250118   3.345   1.929   5.561 -0.8781 -0.7237 -0.7253
 9568TIP3    H150119   3.269   1.948   5.507 -0.0939  1.1494 -1.2515
 9568TIP3    H250120   3.325   1.969   5.646 -0.1908  0.4850 -1.1079
 9569TIP3   OH250121   4.598   4.568  11.576 -0.1526 -0.1728  0.0912
 9569TIP3    H150122   4.609   4.659  11.547 -0.2521 -0.7524 -1.9344
 9569TIP3    H250123   4.650   4.561  11.656  1.9764  1.0085 -1.1179
 9570TIP3   OH250124   1.247   0.859   0.167 -0.2313  0.3144 -0.2587
 9570TIP3    H150125   1.163   0.883   0.206 -0.6271  0.4698 -1.1747
 9570TIP3    H250126   1.306   0.846   0.242 -1.5383 -1.6165  0.4941
 9571TIP3   OH250127   6.612   2.367  15.856 -0.3266 -0.0192  0.3647
 9571TIP3    H150128   6.693   2.381  15.906 -0.4098 -0.0183  0.5001
 9571TIP3    H250129   6.601   2.272  15.854 -0.8322  0.0149  1.1707
 9572TIP3   OH250130   4.500   4.870  11.044  0.4518 -0.5042 -0.3438
 9572TIP3    H150131   4.510   4.959  11.009  1.0175 -1.1038 -1.7582
 9572TIP3    H250132   4.589   4.834  11.043  0.4675 -0.6236  1.5636
 9573TIP3   OH250133   4.411   0.779   2.286  0.2629  0.2080  0.1680
 9573TIP3    H150134   4.450   0.830   2.214  1.6895 -0.7594  0.2110
 9573TIP3    H250135   4.344   0.726   2.244  0.6036  0.1745 -0.3505
 9574TIP3   OH250136   0.928   1.355  13.190  0.1061 -0.3100  0.6473
 9574TIP3    H150137   0.928   1.446  13.221  1.4807 -0.4173  1.0474
 9574TIP3    H250138   0.835   1.333  13.181 -0.2638  0.9892  0.9633
 9575TIP3   OH250139   1.048   5.192   0.703 -0.3676 -0.0680  0.3994
 9575TIP3    H150140   1.130   5.153   0.673 -0.3169 -0.8723  1.5151
 9575TIP3    H250141   0.987   5.118   0.708 -1.0178  0.4399  0.0430
 9576TIP3   OH250142   0.974   2.428   0.967 -0.3679  0.4920 -0.1413
 9576TIP3    H150143   1.032   2.362   0.930 -1.3335 -0.0558 -0.7195
 9576TIP3    H250144   1.026   2.469   1.037 -0.4185 -2.3309  1.7233
 9577TIP3   OH250145   6.482   6.374   5.974 -0.1779 -0.7781 -0.3487
 9577TIP3    H150146   6.408   6.360   5.915 -0.5474  0.8366 -0.3089
 9577TIP3    H250147   6.546   6.423   5.922 -0.3065  0.2327  0.4087
 9578TIP3   OH250148   2.149   5.909   4.434 -0.2820 -0.2599  0.1618
 9578TIP3    H150149   2.165   5.842   4.500 -0.2833 -1.3982 -0.9745
 9578TIP3    H250150   2.063   5.888   4.399 -1.7006  2.1514  1.8730
 9579TIP3   OH250151   5.308   4.082  14.228 -0.2590 -0.0757  0.5823
 9579TIP3    H150152   5.310   4.018  14.158  3.0522  2.2290 -1.6992
 9579TIP3    H250153   5.217   4.114  14.228 -0.7677 -1.3249 -1.5184
 9580TIP3   OH250154   5.365   5.068   2.210  0.7905 -0.3079 -0.3576
 9580TIP3    H150155   5.356   5.066   2.306  1.7941 -0.0038 -0.2475
 9580TIP3    H250156   5.293   5.124   2.181  2.3240  2.2509  0.4927
 9581TIP3   OH250157   5.226   1.375  17.001 -0.4252 -0.6215 -0.3154
 9581TIP3    H150158   5.317   1.353  16.978 -0.7517  0.9411 -3.5884
 9581TIP3    H250159   5.234   1.444  17.067  0.7311 -0.8174 -0.2266
 9582TIP3   OH250160   4.235   1.475  13.001 -0.4585 -0.5990  0.6575
 9582TIP3    H150161   4.152   1.518  12.979 -0.7204 -0.7689  1.2970
 9582TIP3    H250162   4.215   1.422  13.078  0.7349  1.0465  2.2054
 9583TIP3   OH250163   1.749   1.911   4.841  0.6468  0.4698  0.1274
 9583TIP3    H150164   1.667   1.923   4.888 -0.6371  0.8769 -2.1022
 9583TIP3    H250165   1.745   1.974   4.769  1.6426 -1.4107 -1.6781
 9584TIP3   OH250166   6.494   1.809  14.587  0.3018 -0.3021 -0.1579
 9584TIP3    H150167   6.478   1.717  14.610  0.2872 -0.3208 -0.2420
 9584TIP3    H250168   6.429   1.828  14.519 -0.1275 -0.0371  0.3268
 9585TIP3   OH250169   2.721   3.223   0.916 -0.3920  0.2897  0.5571
 9585TIP3    H150170   2.693   3.132   0.923  0.4266  0.0985  1.7232
 9585TIP3    H250171   2.689   3.252   0.830  0.4937 -1.5138 -0.4387
 9586TIP3   OH250172   5.045   3.252  11.044 -0.3762 -0.2603  0.2155
 9586TIP3    H150173   5.006   3.177  11.000 -0.1429  0.1209 -0.6828
 9586TIP3    H250174   5.090   3.216  11.120 -0.0945 -1.0607 -0.3145
 9587TIP3   OH250175   1.749   4.118   1.298  0.7235 -0.1393 -0.3105
 9587TIP3    H150176   1.801   4.140   1.220  1.1527  0.3327  0.1008
 9587TIP3    H250177   1.722   4.203   1.333 -0.0018 -0.3693 -0.2923
 9588TIP3   OH250178   4.562   6.712   5.404  0.5605  0.2326 -0.1392
 9588TIP3    H150179   4.620   6.657   5.456 -0.5515 -1.5440 -0.7028
 9588TIP3    H250180   4.617   6.741   5.330  1.0797 -0.3589  0.0111
 9589TIP3   OH250181   2.294   3.333   1.050 -0.2678  0.2962  0.2171
 9589TIP3    H150182   2.242   3.319   0.970  1.6421  2.8611 -1.6448
 9589TIP3    H250183   2.324   3.246   1.075 -1.2050 -0.6261 -1.6796
 9590TIP3   OH250184   6.398   0.167   1.375  0.2798 -0.5548 -0.0041
 9590TIP3    H150185   6.305   0.159   1.393  0.3142  1.7493  1.7276
 9590TIP3    H250186   6.402   0.215   1.292 -0.1782  1.1962  0.9305
 9591TIP3   OH250187   1.502   2.768   3.451  0.1950  0.7832 -0.3386
 9591TIP3    H150188   1.552   2.735   3.525 -0.6106 -1.2783 -0.6522
 9591TIP3    H250189   1.412   2.738   3.467 -0.0083  0.3467 -2.1126
 9592TIP3   OH250190   5.306   3.926  12.221 -0.0453 -0.6443  0.2263
 9592TIP3    H150191   5.367   3.898  12.153 -1.6615  0.1567 -1.6410
 9592TIP3    H250192   5.227   3.875  12.204 -0.6372 -0.0884  1.2414
 9593TIP3   OH250193   1.054   5.889  11.960  0.2567 -0.1636  0.0845
 9593TIP3    H150194   1.063   5.798  11.986  0.6513 -1.2206 -3.2595
 9593TIP3    H250195   0.967   5.894  11.920  0.6805  0.6224 -0.7841
 9594TIP3   OH250196   1.924   3.432   0.304  0.2519 -0.0211 -0.1162
 9594TIP3    H150197   1.984   3.377   0.254  0.1179 -1.2664  1.0385
 9594TIP3    H250198   1.980   3.490   0.354  0.3864  2.0005 -2.4187
 9595TIP3   OH250199   4.411   5.964  12.529  0.1736 -0.4002 -0.0304
 9595TIP3    H150200   4.493   6.006  12.554  0.0287 -0.3728  0.4153
 9595TIP3    H250201   4.372   6.023  12.466 -0.2971  0.4405  1.0113
 9596TIP3   OH250202   4.306   2.692  17.227 -0.3843  0.3252  0.0320
 9596TIP3    H150203   4.350   2.773  17.202 -0.9092 -0.5741 -4.7597
 9596TIP3    H250204   4.214   2.706  17.204 -0.9413 -0.8665  1.3497
 9597TIP3   OH250205   0.288   1.395   3.607 -0.2294  0.3343 -0.3521
 9597TIP3    H150206   0.245   1.363   3.687  1.7571 -0.3827  0.4738
 9597TIP3    H250207   0.248   1.343   3.537 -0.4904 -0.5467  0.4267
 9598TIP3   OH250208   6.167   2.308  13.625  0.3642  0.0560  0.1172
 9598TIP3    H150209   6.238   2.363  13.594  0.3461 -0.3656 -0.7071
 9598TIP3    H250210   6.090   2.338  13.577  0.4578 -1.0187 -0.7488
 9599TIP3   OH250211   0.297   3.507  12.253 -0.3187 -0.1969 -0.3652
 9599TIP3    H150212   0.218   3.480  12.207 -1.0249  1.3072 -0.0961
 9599TIP3    H250213   0.270   3.515  12.344  1.0728 -3.1871  0.4419
 9600TIP3   OH250214   6.610   4.605   0.429  0.2298  0.2233  0.0788
 9600TIP3    H150215   6.672   4.533   0.421  0.5081  0.1550  2.2397
 9600TIP3    H250216   6.581   4.622   0.339  1.9781 -0.9509 -0.7716
 9601TIP3   OH250217   5.664   5.084  12.867 -0.3078 -0.1633 -0.2860
 9601TIP3    H150218   5.587   5.128  12.831  0.1338  1.1588  0.3391
 9601TIP3    H250219   5.737   5.113  12.813  0.2178  1.1037  1.0445
 9602TIP3   OH250220   2.393   5.125   3.265  0.1854  0.0266 -0.3894
 9602TIP3    H150221   2.371   5.043   3.310  1.8106 -0.0465  0.3510
 9602TIP3    H250222   2.488   5.123   3.258  0.0480 -0.2309 -4.4396
 9603TIP3   OH250223   4.587   2.161   1.484 -0.2593 -0.4699  0.1529
 9603TIP3    H150224   4.583   2.072   1.517 -0.6308 -1.1208 -1.5016
 9603TIP3    H250225   4.499   2.196   1.500 -0.1881 -0.4834  0.5814
 9604TIP3   OH250226   4.353   0.248  14.414 -0.7825  0.3679  0.2474
 9604TIP3    H150227   4.405   0.186  14.363  1.0649  1.0260  1.2300
 9604TIP3    H250228   4.338   0.204  14.498  1.0429  1.4074  1.1719
 9605TIP3   OH250229   1.862   0.460   0.056  0.1936 -0.7307 -0.2121
 9605TIP3    H150230   1.863   0.484   0.148  0.5364 -2.5796  0.3201
 9605TIP3    H250231   1.950   0.482   0.025  0.0125  0.0818 -0.1552
 9606TIP3   OH250232   0.148   4.997   3.547 -0.2200  0.8950 -0.0904
 9606TIP3    H150233   0.103   4.966   3.468 -1.9140 -0.4553  1.3245
 9606TIP3    H250234   0.235   4.957   3.542 -0.7863 -0.3432 -0.6133
 9607TIP3   OH250235   2.036   5.567   1.737  0.3158  0.0044 -0.6438
 9607TIP3    H150236   1.968   5.559   1.670 -0.5650  1.1410  0.0686
 9607TIP3    H250237   1.995   5.619   1.806  1.3400 -0.7612  0.5883
 9608TIP3   OH250238   1.726   1.660  12.482  0.3780  0.4171  0.1503
 9608TIP3    H150239   1.690   1.579  12.518  1.3677 -0.3528 -0.5373
 9608TIP3    H250240   1.669   1.729  12.516  0.9907 -0.2866  2.8376
 9609TIP3   OH250241   6.225   4.705   4.120 -0.7064  0.2436  0.3776
 9609TIP3    H150242   6.247   4.673   4.033  0.4266 -0.2176  0.8152
 9609TIP3    H250243   6.215   4.799   4.110 -0.9681  0.1427 -0.3236
 9610TIP3   OH250244   6.447   3.506  14.406 -0.2229  0.1503 -0.6656
 9610TIP3    H150245   6.535   3.480  14.376  0.5543  2.1739 -0.2749
 9610TIP3    H250246   6.438   3.597  14.378 -2.2461 -0.0165 -0.7244
 9611TIP3   OH250247   4.420   6.408   1.207 -0.0444  0.3765  0.2576
 9611TIP3    H150248   4.458   6.343   1.266  0.0285  0.4550  0.2982
 9611TIP3    H250249   4.437   6.374   1.119  0.2903  0.5034  0.2706
 9612TIP3   OH250250   4.016   5.455   6.704 -0.3280  0.0394  0.2245
 9612TIP3    H150251   3.965   5.526   6.665 -0.1557  0.8926  1.4602
 9612TIP3    H250252   3.950   5.397   6.744 -0.4416 -0.1730 -0.2706
 9613TIP3   OH250253   6.384   1.824  11.140 -0.3676  0.5885 -0.0331
 9613TIP3    H150254   6.420   1.834  11.229 -1.1274 -0.5903  0.4347
 9613TIP3    H250255   6.452   1.777  11.092  0.4857  2.1410 -0.3971
 9614TIP3   OH250256   5.716   3.160   5.070  0.0659 -0.2965  0.0651
 9614TIP3    H150257   5.697   3.066   5.075  0.5291 -0.3645  0.6081
 9614TIP3    H250258   5.798   3.164   5.020  2.4776 -0.5219  3.6907
 9615TIP3   OH250259   5.877   5.635  16.152  0.0782 -0.3244  0.0419
 9615TIP3    H150260   5.947   5.588  16.197 -0.6403 -0.2698  1.2468
 9615TIP3    H250261   5.870   5.719  16.198 -1.8979 -0.9934  1.0778
 9616TIP3   OH250262   0.977   4.546   6.034  0.1956 -0.5010  0.1033
 9616TIP3    H150263   0.907   4.508   5.982  1.6775 -0.3701 -2.1402
 9616TIP3    H250264   0.946   4.634   6.057 -0.5395 -0.5977 -0.4994
 9617TIP3   OH250265   0.791   6.668  15.950  0.5432 -0.3396 -0.0725
 9617TIP3    H150266   0.877   6.708  15.935  0.4563 -0.1975 -0.1942
 9617TIP3    H250267   0.810   6.586  15.996  0.7676 -0.4800 -0.4126
 9618TIP3   OH250268   2.046   3.990  14.869 -0.6277 -0.9366  0.6593
 9618TIP3    H150269   2.082   3.978  14.782  1.2809  1.4398  1.0264
 9618TIP3    H250270   2.093   3.926  14.924  2.7345  1.5439  0.9708
 9619TIP3   OH250271   3.666   1.332  15.024  0.0113 -0.4002  0.3764
 9619TIP3    H150272   3.688   1.425  15.018  1.0971 -0.6209  0.7116
 9619TIP3    H250273   3.676   1.299  14.935 -2.0447  0.1309 -0.0992
 9620TIP3   OH250274   5.220   3.821   2.886  0.1042  0.2821 -0.5715
 9620TIP3    H150275   5.169   3.897   2.858 -0.5098  0.4993  0.9885
 9620TIP3    H250276   5.284   3.808   2.817 -2.2645 -0.2306 -2.8258
 9621TIP3   OH250277   4.584   0.972   4.325  0.3922  0.0742  0.1715
 9621TIP3    H150278   4.630   1.034   4.268 -0.1763  0.9932  0.6828
 9621TIP3    H250279   4.644   0.957   4.398 -0.1716  1.4802  0.9751
 9622TIP3   OH250280   5.972   2.471  15.395  0.6455 -0.5904 -0.4997
 9622TIP3    H150281   5.961   2.469  15.300 -0.8465 -0.3431 -0.3580
 9622TIP3    H250282   5.974   2.380  15.422 -0.9186 -0.6892 -0.6031
 9623TIP3   OH250283   6.727   0.801  15.047 -0.6119  0.1842 -0.4560
 9623TIP3    H150284   6.684   0.883  15.020 -0.9831 -0.1349 -0.8433
 9623TIP3    H250285   6.732   0.749  14.966  0.2355  0.0943 -0.3525
 9624TIP3   OH250286   4.883   5.188  13.123 -0.1305  0.0737 -0.0593
 9624TIP3    H150287   4.912   5.097  13.131 -0.1012  0.1497  0.7913
 9624TIP3    H250288   4.946   5.228  13.063  0.6011 -0.1558  0.5444
 9625TIP3   OH250289   2.368   4.308   2.716 -0.1820  0.0813  0.2987
 9625TIP3    H150290   2.352   4.290   2.624 -0.7641 -0.7842  0.5581
 9625TIP3    H250291   2.463   4.319   2.723 -0.2343  1.3130 -0.5870
 9626TIP3   OH250292   4.499   6.484  10.712 -0.0982  0.1650 -0.0195
 9626TIP3    H150293   4.473   6.411  10.656 -1.0379  0.4202  0.0688
 9626TIP3    H250294   4.534   6.549  10.650  0.6486 -0.2964 -0.1075
 9627TIP3   OH250295   4.165   5.518   4.626  0.3538 -0.1029  0.1949
 9627TIP3    H150296   4.188   5.534   4.535 -1.6315  2.2895  0.0008
 9627TIP3    H250297   4.176   5.604   4.669  0.8044 -1.0638  2.1274
 9628TIP3   OH250298   2.923   3.607  11.174 -0.2135 -0.2117 -0.2873
 9628TIP3    H150299   2.947   3.699  11.187  0.7143 -0.6661  1.6009
 9628TIP3    H250300   2.883   3.604  11.087 -0.7103  2.0575 -0.1816
 9629TIP3   OH250301   0.594   5.067  11.624 -0.3071  0.5387 -0.2328
 9629TIP3    H150302   0.686   5.079  11.647 -0.2892  1.1600 -0.6035
 9629TIP3    H250303   0.563   5.155  11.602 -0.6696  0.1616 -1.3023
 9630TIP3   OH250304   2.757   5.551   5.921  0.2228  0.1263  0.2594
 9630TIP3    H150305   2.720   5.473   5.880 -0.7142  0.5780  0.2224
 9630TIP3    H250306   2.774   5.610   5.848  0.7233  0.0542  0.3108
 9631TIP3   OH250307   0.291   4.621   1.672 -0.4257 -0.0087 -0.3883
 9631TIP3    H150308   0.318   4.601   1.761 -0.2579 -0.0567 -0.4492
 9631TIP3    H250309   0.238   4.701   1.680 -1.2070 -0.5480 -0.1345
 9632TIP3   OH250310   4.130   2.656  14.296 -0.5855  0.2792 -0.2181
 9632TIP3    H150311   4.086   2.722  14.243 -0.6242  1.0688  0.7587
 9632TIP3    H250312   4.216   2.692  14.314 -1.2368  0.9768  1.8691
 9633TIP3   OH250313   3.261   1.714  11.815 -0.3938  0.2458 -0.1799
 9633TIP3    H150314   3.341   1.720  11.762 -0.0341  0.4701  0.3754
 9633TIP3    H250315   3.284   1.652  11.885 -0.4752  0.8438  0.3825
 9634TIP3   OH250316   6.335   4.689   4.900 -0.1280  0.1200  0.4839
 9634TIP3    H150317   6.375   4.763   4.855  3.0439 -1.0127  1.2074
 9634TIP3    H250318   6.295   4.638   4.830  1.8885  0.0683 -0.6979
 9635TIP3   OH250319   1.498   4.586   1.618 -0.4199 -0.0592 -0.7033
 9635TIP3    H150320   1.468   4.649   1.683 -0.6108  0.5522 -1.3716
 9635TIP3    H250321   1.478   4.500   1.657  1.9208  0.1613  1.2417
 9636TIP3   OH250322   2.653   1.607  13.914  0.8198  1.0055  0.4731
 9636TIP3    H150323   2.604   1.615  13.832 -0.1685  0.3015  0.9920
 9636TIP3    H250324   2.665   1.513  13.926 -0.3046  1.0153  1.8677
 9637TIP3   OH250325   6.129   1.675  12.500 -0.3596  0.6206  0.2928
 9637TIP3    H150326   6.167   1.741  12.442  0.9084  1.7497  2.2722
 9637TIP3    H250327   6.141   1.592  12.454  1.1257  1.3955 -0.8050
 9638TIP3   OH250328   1.139   0.972  11.730 -0.2725  0.0677  0.2654
 9638TIP3    H150329   1.220   0.922  11.725  0.3506  1.0428  0.2423
 9638TIP3    H250330   1.161   1.049  11.783 -1.7211 -0.6385  2.0003
 9639TIP3   OH250331   4.540   4.979  14.067  0.5767  0.2120 -0.1655
 9639TIP3    H150332   4.456   4.957  14.108  0.2407 -1.1428 -1.4897
 9639TIP3    H250333   4.584   4.895  14.055  1.6179  0.7889 -0.5777
 9640TIP3   OH250334   0.784   0.593   3.719 -0.2202  0.1021  0.3841
 9640TIP3    H150335   0.856   0.616   3.661  1.0712 -2.4781  0.8422
 9640TIP3    H250336   0.706   0.596   3.663  0.0381  3.4435  0.0103
 9641TIP3   OH250337   5.715   2.602  14.701 -0.0871 -0.9463  0.0822
 9641TIP3    H150338   5.776   2.615  14.628  2.3238  1.2166  2.2851
 9641TIP3    H250339   5.747   2.524  14.746 -0.6860 -1.4294 -0.3146
 9642TIP3   OH250340   5.120   3.361  12.409 -0.2882  0.2477  0.6184
 9642TIP3    H150341   5.201   3.346  12.360  0.9594  2.8988  1.6585
 9642TIP3    H250342   5.050   3.331  12.351  1.3400 -0.7174 -0.9328
 9643TIP3   OH250343   0.371   0.194  10.760 -0.6551 -0.4223  0.7279
 9643TIP3    H150344   0.364   0.241  10.677 -0.0072  2.9106  2.3829
 9643TIP3    H250345   0.281   0.192  10.794 -0.5255  0.7226  1.1673
 9644TIP3   OH250346   6.594   1.088   5.434 -0.1996  0.0316  0.2757
 9644TIP3    H150347   6.673   1.034   5.433 -0.5741 -0.5324  0.2208
 9644TIP3    H250348   6.577   1.107   5.342  0.1951  0.6463  0.3259
 9645TIP3   OH250349   2.038   6.446  11.237  0.0910  0.1799 -0.4151
 9645TIP3    H150350   2.013   6.538  11.232  0.5359  0.4183  1.1011
 9645TIP3    H250351   1.956   6.398  11.230 -0.4902  0.8249  1.3773
 9646TIP3   OH250352   4.098   4.447  16.805 -0.3156 -0.1137 -0.6755
 9646TIP3    H150353   4.155   4.502  16.859 -0.8605  1.9293 -2.0638
 9646TIP3    H250354   4.048   4.395  16.868  0.3179  0.8912  0.7061
 9647TIP3   OH250355   4.638   6.597  16.193  0.2914  0.3841 -0.1462
 9647TIP3    H150356   4.621   6.507  16.165 -1.7084  1.2440 -1.9028
 9647TIP3    H250357   4.583   6.608  16.271  1.1120 -0.1079  0.5221
 9648TIP3   OH250358   2.063   6.025   3.712  0.0613 -0.1796  0.3243
 9648TIP3    H150359   1.984   6.007   3.764 -0.2986 -0.4905 -0.3214
 9648TIP3    H250360   2.135   6.017   3.775 -0.4105 -0.0077  0.8941
 9649TIP3   OH250361   1.225   5.301  14.042 -0.1389 -0.3049 -0.0551
 9649TIP3    H150362   1.176   5.221  14.060 -1.3075  0.1354 -1.0805
 9649TIP3    H250363   1.315   5.272  14.026 -0.4065 -1.3289  0.2721
 9650TIP3   OH250364   2.215   3.511  14.008  0.3671 -0.6093  0.1115
 9650TIP3    H150365   2.202   3.570  14.082  1.1446 -2.2395  1.6399
 9650TIP3    H250366   2.301   3.536  13.972 -0.4333  0.8100 -0.9028
 9651TIP3   OH250367   3.578   0.331  15.710  0.3153 -0.3524 -0.1911
 9651TIP3    H150368   3.513   0.308  15.644 -0.0731 -1.2061  0.4580
 9651TIP3    H250369   3.636   0.255  15.714 -0.7576 -1.1423  1.7281
 9652TIP3   OH250370   2.582   2.101   5.055  0.2388  0.0264  0.2494
 9652TIP3    H150371   2.581   2.126   5.147  2.3657  2.3726 -0.2644
 9652TIP3    H250372   2.666   2.058   5.042  0.0392 -0.1301 -0.6387
 9653TIP3   OH250373   4.019   1.045  16.196 -0.7754 -0.0858 -0.5807
 9653TIP3    H150374   4.051   0.972  16.142  0.0056  0.2194 -0.5412
 9653TIP3    H250375   4.065   1.036  16.279 -0.0851  0.8841 -0.8387
 9654TIP3   OH250376   4.326   1.947  12.570 -0.4858  0.2719  0.8932
 9654TIP3    H150377   4.284   1.992  12.497  0.9386 -0.9542 -0.7721
 9654TIP3    H250378   4.278   1.864  12.577  1.1369 -0.8780 -0.6360
 9655TIP3   OH250379   4.474   0.610   1.973 -0.2593  0.7483  0.0144
 9655TIP3    H150380   4.471   0.603   1.878  2.3808 -0.4117 -0.0495
 9655TIP3    H250381   4.550   0.665   1.991 -1.2008  1.6375  1.4704
 9656TIP3   OH250382   3.495   6.371  11.372 -0.1085  0.1282 -0.5725
 9656TIP3    H150383   3.475   6.350  11.463 -0.9595 -1.1619 -1.0324
 9656TIP3    H250384   3.429   6.435  11.347  0.4136  0.8472 -0.1693
 9657TIP3   OH250385   5.508   5.462  11.952  0.8442 -0.0565  0.2273
 9657TIP3    H150386   5.531   5.411  12.029 -1.7547 -0.5575  0.7454
 9657TIP3    H250387   5.506   5.399  11.880 -3.2633 -1.0942  1.0233
 9658TIP3   OH250388   4.217   3.804   4.392  0.5871 -0.2100 -0.1799
 9658TIP3    H150389   4.185   3.785   4.304 -1.8697  0.1371  0.5661
 9658TIP3    H250390   4.211   3.720   4.438 -1.7095  0.3300  0.6302
 9659TIP3   OH250391   4.601   5.373  12.552 -0.3026 -0.3339 -0.1978
 9659TIP3    H150392   4.684   5.355  12.509  0.0045  0.4602  0.0465
 9659TIP3    H250393   4.555   5.432  12.492 -0.3015 -0.0440  0.0805
 9660TIP3   OH250394   2.221   6.705  14.356  0.5569 -0.1667 -0.0563
 9660TIP3    H150395   2.228   6.722  14.450  1.2556  0.2898 -0.1781
 9660TIP3    H250396   2.168   6.625  14.350 -0.4386  0.4162  0.6627
 9661TIP3   OH250397   6.771   4.167   3.634  0.2264 -0.2192 -0.6626
 9661TIP3    H150398   6.756   4.257   3.662  1.5006  0.3649 -1.7386
 9661TIP3    H250399   6.798   4.174   3.542 -0.1699 -1.7466 -0.9296
 9662TIP3   OH250400   0.130   5.401   1.737 -0.2071  0.3190  0.2113
 9662TIP3    H150401   0.071   5.444   1.800  0.1470 -1.2945  1.7240
 9662TIP3    H250402   0.077   5.331   1.699 -0.6209  1.6871 -1.8474
 9663TIP3   OH250403   1.505   1.199   4.869  0.3895 -0.5838  0.0726
 9663TIP3    H150404   1.591   1.159   4.858 -0.3901 -2.0857 -0.9828
 9663TIP3    H250405   1.479   1.176   4.958  1.4688  0.7510  0.7678
 9664TIP3   OH250406   6.681   2.478  16.814 -0.2911  0.7083 -0.1274
 9664TIP3    H150407   6.594   2.507  16.841  0.8377  3.3584  0.9725
 9664TIP3    H250408   6.733   2.558  16.808  1.8039 -0.6538 -1.9435
 9665TIP3   OH250409   6.702   0.346  14.275  0.1125 -0.3096 -0.2209
 9665TIP3    H150410   6.619   0.298  14.279  0.4193 -0.7855  0.5016
 9665TIP3    H250411   6.769   0.279  14.288  0.6514 -0.0287 -1.4229
 9666TIP3   OH250412   4.563   3.218  12.204 -0.5139  0.0089  0.0668
 9666TIP3    H150413   4.560   3.123  12.188 -1.8025  0.0531 -0.0229
 9666TIP3    H250414   4.599   3.255  12.123  0.2639 -0.4083  0.2039
 9667TIP3   OH250415   0.311   3.670  12.861  0.2007  0.2205 -0.2899
 9667TIP3    H150416   0.290   3.683  12.769 -1.2166  0.1413  0.0097
 9667TIP3    H250417   0.274   3.746  12.906 -0.3341 -0.4152  0.3783
 9668TIP3   OH250418   4.733   0.976   5.758 -0.0543 -0.4553 -0.4370
 9668TIP3    H150419   4.703   1.067   5.757  1.2176 -0.0183 -1.1982
 9668TIP3    H250420   4.757   0.959   5.850 -2.4918 -0.8216  0.1972
 9669TIP3   OH250421   4.454   3.994   1.672 -0.2605 -0.4131 -0.1818
 9669TIP3    H150422   4.455   4.079   1.716 -1.8149  0.3513 -1.4845
 9669TIP3    H250423   4.450   3.930   1.743 -0.0842  0.6334  0.8075
 9670TIP3   OH250424   2.599   1.271   0.350  0.0277 -0.5989  0.3812
 9670TIP3    H150425   2.549   1.217   0.411 -0.4266  0.0429  0.5860
 9670TIP3    H250426   2.677   1.219   0.330 -0.7103 -1.6024  0.0617
 9671TIP3   OH250427   1.714   6.264  11.826  0.0980  0.0890  0.3968
 9671TIP3    H150428   1.674   6.285  11.910 -0.0411 -1.9334  0.8862
 9671TIP3    H250429   1.803   6.299  11.831  0.3933 -0.8086  1.7566
 9672TIP3   OH250430   1.650   4.473  11.573  0.2395  0.1186 -0.5817
 9672TIP3    H150431   1.689   4.463  11.486 -1.5963  0.3822 -1.4794
 9672TIP3    H250432   1.702   4.415  11.629  2.6579  1.3530 -1.4131
 9673TIP3   OH250433   4.673   4.347  14.559  0.5892  0.4541 -0.2856
 9673TIP3    H150434   4.670   4.402  14.637 -1.5843 -2.0916  1.5730
 9673TIP3    H250435   4.726   4.271  14.584 -2.0677 -1.5467 -0.3205
 9674TIP3   OH250436   5.021   6.078   3.870 -0.0559 -0.6120  0.0002
 9674TIP3    H150437   4.960   6.050   3.938 -0.8755  2.5376  0.7354
 9674TIP3    H250438   4.965   6.118   3.803  0.9934 -0.3484 -0.7468
 9675TIP3   OH250439   2.587   1.977   0.751  0.0521  0.1293  0.1356
 9675TIP3    H150440   2.493   1.978   0.732  0.1807  2.1585 -0.6735
 9675TIP3    H250441   2.596   2.026   0.833  0.5757  2.5097 -1.2362
 9676TIP3   OH250442   0.823   1.977  12.246 -0.2373  0.9635  0.2082
 9676TIP3    H150443   0.909   1.948  12.217  0.5445 -1.6250  4.3955
 9676TIP3    H250444   0.818   2.068  12.216  3.4313  0.9081 -1.1210
 9677TIP3   OH250445   6.540   5.153   5.332 -0.0840 -0.3942  0.1556
 9677TIP3    H150446   6.630   5.122   5.331 -0.5577 -1.9021  0.2623
 9677TIP3    H250447   6.541   5.231   5.387  1.3429  0.3272 -0.8336
 9678TIP3   OH250448   3.554   0.451  15.959  0.3083 -0.1229  0.8210
 9678TIP3    H150449   3.527   0.395  15.887  0.1741 -0.0742  0.8321
 9678TIP3    H250450   3.511   0.414  16.036 -0.1700  0.2723  0.7522
 9679TIP3   OH250451   4.038   0.005   3.018 -0.1881  0.6960  0.0830
 9679TIP3    H150452   4.097   0.072   3.052  1.6595 -0.2228 -1.2232
 9679TIP3    H250453   4.013  -0.045   3.096 -0.1828  1.7771  0.8098
 9680TIP3   OH250454   3.052   4.985   3.855 -0.5914  0.0404 -0.0395
 9680TIP3    H150455   3.045   4.896   3.889  0.0827 -0.6365 -1.5625
 9680TIP3    H250456   3.120   4.980   3.788 -2.8501  0.8792 -2.5860
 9681TIP3   OH250457   2.063   6.239   3.036 -0.2350 -0.5002  0.4435
 9681TIP3    H150458   2.003   6.210   3.104 -0.1837  0.2087  0.8009
 9681TIP3    H250459   2.078   6.162   2.982  0.2530 -1.2423  1.6227
 9682TIP3   OH250460   3.932   1.945   2.753  0.6748 -0.2863 -0.2707
 9682TIP3    H150461   3.935   1.901   2.669  1.3910  1.2553 -1.1081
 9682TIP3    H250462   3.895   1.881   2.813  0.4867 -1.5445 -1.6752
 9683TIP3   OH250463   5.035   0.623  10.955  0.7086  0.1104 -0.4252
 9683TIP3    H150464   5.021   0.710  10.917  2.8008  0.5719 -0.2591
 9683TIP3    H250465   5.052   0.567  10.879  1.4716  0.3066 -0.4042
 9684TIP3   OH250466   6.419   0.193   3.673 -0.2243 -0.1605  0.5156
 9684TIP3    H150467   6.460   0.160   3.593  0.9334 -0.1590  1.0906
 9684TIP3    H250468   6.401   0.285   3.655 -1.1022 -0.4414 -0.1642
 9685TIP3   OH250469   2.496   6.196   5.822 -0.1212  0.0472 -0.0341
 9685TIP3    H150470   2.497   6.203   5.917 -0.0459  0.1413 -0.0419
 9685TIP3    H250471   2.413   6.153   5.802  0.5497 -1.3667  0.1638
 9686TIP3   OH250472   4.181   0.816   4.610 -0.1098  0.5785 -0.5621
 9686TIP3    H150473   4.269   0.851   4.618 -0.0210  0.7135 -1.8749
 9686TIP3    H250474   4.193   0.721   4.608 -0.1644  0.5189  0.9149
 9687TIP3   OH250475   1.722   1.444   3.000  0.9953 -0.6355  0.1747
 9687TIP3    H150476   1.719   1.536   3.025  1.4251 -0.6349  0.2281
 9687TIP3    H250477   1.656   1.402   3.056 -0.6433 -0.0523 -1.2226
 9688TIP3   OH250478   2.567   5.898  15.223  0.5611 -0.5129 -0.2135
 9688TIP3    H150479   2.519   5.836  15.169  1.3235 -0.4140 -1.0237
 9688TIP3    H250480   2.585   5.972  15.165  1.8327 -0.6222 -0.0035
 9689TIP3   OH250481   5.988   6.347  13.177 -0.9459  0.2093  0.3875
 9689TIP3    H150482   5.927   6.312  13.243 -0.6209 -1.7317 -0.2828
 9689TIP3    H250483   6.062   6.379  13.228 -1.3269  0.0465  1.0577
 9690TIP3   OH250484   1.491   3.170   3.134  0.0685  0.3081 -0.1245
 9690TIP3    H150485   1.484   3.159   3.039  0.1267  2.2302 -0.3954
 9690TIP3    H250486   1.411   3.131   3.168 -0.3797  0.3844 -1.0410
 9691TIP3   OH250487   1.889   0.408  12.063 -0.0724 -0.2537 -0.3453
 9691TIP3    H150488   1.900   0.482  12.003 -0.9430  1.0292  1.0046
 9691TIP3    H250489   1.796   0.386  12.055  0.2683 -1.5286 -1.0558
 9692TIP3   OH250490   2.206   4.490  10.865  0.5453 -0.0006 -0.2016
 9692TIP3    H150491   2.123   4.492  10.817 -0.0180 -1.5581  0.6169
 9692TIP3    H250492   2.266   4.443  10.808  1.4939  2.6448 -1.5875
 9693TIP3   OH250493   0.506   1.897  16.232  0.0415 -0.0077  0.3567
 9693TIP3    H150494   0.515   1.949  16.312 -0.8888  0.5342  0.1261
 9693TIP3    H250495   0.585   1.918  16.182  0.9441 -0.8298  1.3724
 9694TIP3   OH250496   1.211   2.840  13.114 -0.1987 -0.1802 -0.1011
 9694TIP3    H150497   1.147   2.861  13.046 -2.0087 -0.1318  1.5113
 9694TIP3    H250498   1.267   2.918  13.120 -1.4685  0.7527  0.0061
 9695TIP3   OH250499   2.185   3.623  10.569 -0.0124 -0.8005 -0.3889
 9695TIP3    H150500   2.103   3.629  10.617  0.3429 -1.6041  0.3505
 9695TIP3    H250501   2.237   3.697  10.600 -0.4157 -0.3448 -0.7884
 9696TIP3   OH250502   4.994   6.179  10.631  0.4472  0.5568 -0.4939
 9696TIP3    H150503   4.936   6.114  10.671  1.0569  0.6426  0.5780
 9696TIP3    H250504   4.935   6.247  10.599 -0.0503  0.8854  1.0324
 9697TIP3   OH250505   2.839   3.029  13.819  0.3918  0.2078  0.0050
 9697TIP3    H150506   2.901   3.101  13.809  0.8374  0.1740  2.0881
 9697TIP3    H250507   2.883   2.967  13.877 -0.4110 -1.2500 -0.9048
 9698TIP3   OH250508   2.043   4.642  15.328  0.2587 -0.3507  0.1784
 9698TIP3    H150509   1.992   4.665  15.251 -0.7448  1.9891  1.4149
 9698TIP3    H250510   1.990   4.674  15.402  2.0600 -0.7451  1.7167
 9699TIP3   OH250511   2.526   3.752   4.762 -0.5682 -0.2616  0.1097
 9699TIP3    H150512   2.457   3.816   4.741  1.1620  2.5475  2.1606
 9699TIP3    H250513   2.480   3.681   4.805 -2.4385  0.3356 -0.7757
 9700TIP3   OH250514   0.262   3.042   2.018 -0.0839  0.3146 -0.1462
 9700TIP3    H150515   0.285   3.135   2.021 -1.1625  0.5977 -0.2271
 9700TIP3    H250516   0.331   2.999   2.069  0.3633  1.1665 -0.0041
 9701TIP3   OH250517   4.667   0.775   2.070 -0.2604  0.2100 -0.1789
 9701TIP3    H150518   4.689   0.825   2.149 -1.3047 -0.5115  0.5979
 9701TIP3    H250519   4.733   0.706   2.067 -0.1560  0.2990  0.0103
 9702TIP3   OH250520   4.655   3.785  15.480 -0.3113 -0.0463 -0.1906
 9702TIP3    H150521   4.608   3.757  15.559  2.1460 -1.0466  1.0397
 9702TIP3    H250522   4.591   3.777  15.410 -1.9490 -1.3488  1.3518
 9703TIP3   OH250523   5.322   1.645  14.730  0.1992  0.2138 -0.2085
 9703TIP3    H150524   5.377   1.566  14.738 -0.4432 -0.1745  0.6070
 9703TIP3    H250525   5.323   1.683  14.818 -0.3144  0.5561 -0.3457
 9704TIP3   OH250526   6.708   4.984   2.240  0.7557  0.7208 -0.3048
 9704TIP3    H150527   6.750   5.026   2.165 -1.3713 -1.3716 -2.8715
 9704TIP3    H250528   6.645   5.049   2.272 -0.7144  0.5695 -2.6067
 9705TIP3   OH250529   2.375   2.263  12.562 -0.1287  0.2236 -0.2433
 9705TIP3    H150530   2.450   2.243  12.618  2.1062  2.7259 -2.0255
 9705TIP3    H250531   2.343   2.178  12.532  0.9308 -0.9977  1.8602
 9706TIP3   OH250532   1.845   6.278  15.416 -0.5188  0.0658  0.2336
 9706TIP3    H150533   1.932   6.239  15.408 -0.6349  0.0219 -0.9639
 9706TIP3    H250534   1.786   6.203  15.419 -0.5235  0.0958  1.0508
 9707TIP3   OH250535   2.044   4.984  14.816 -0.5688  0.6741 -0.1782
 9707TIP3    H150536   1.993   4.979  14.735  1.0958  0.5869 -1.2730
 9707TIP3    H250537   2.081   4.896  14.826 -0.3789  0.8199  0.4312
 9708TIP3   OH250538   6.494   1.360  14.958  0.3086 -0.0749 -0.2735
 9708TIP3    H150539   6.425   1.366  14.892  0.3496  0.2084 -0.2900
 9708TIP3    H250540   6.574   1.388  14.913  0.6493 -1.4446 -0.5674
 9709TIP3   OH250541   2.357   4.544   2.364  0.3020 -0.4178  0.0853
 9709TIP3    H150542   2.282   4.601   2.351  1.2725  1.0745  0.7653
 9709TIP3    H250543   2.432   4.603   2.368  1.4087 -1.7829  0.3940
 9710TIP3   OH250544   2.179   0.492  16.058 -0.3371  0.3110  0.4835
 9710TIP3    H150545   2.229   0.509  15.979 -0.5988 -0.5644  0.1161
 9710TIP3    H250546   2.161   0.398  16.056 -0.2847  0.2570  1.6204
 9711TIP3   OH250547   6.245   4.929   6.160 -0.5798 -0.1485  0.3793
 9711TIP3    H150548   6.190   4.985   6.214 -0.2210  1.9819 -1.3480
 9711TIP3    H250549   6.331   4.931   6.202 -0.0251  2.3488 -0.7522
 9712TIP3   OH250550   0.344   0.432   4.609  0.4940  0.2421 -0.0911
 9712TIP3    H150551   0.388   0.472   4.684 -0.2189  1.2947 -0.2145
 9712TIP3    H250552   0.315   0.506   4.556  0.2489 -0.4732 -0.9824
 9713TIP3   OH250553   3.402   3.452  16.399  0.5972  0.4478 -0.2134
 9713TIP3    H150554   3.447   3.531  16.368 -1.0542  1.0678 -1.1564
 9713TIP3    H250555   3.371   3.474  16.486 -1.8580  1.7638 -1.3308
 9714TIP3   OH250556   3.114   3.788   4.980  0.4787 -0.1245  0.4651
 9714TIP3    H150557   3.200   3.808   5.015  0.2605 -0.4796  1.2160
 9714TIP3    H250558   3.132   3.743   4.897  1.0188 -0.4904  0.7755
 9715TIP3   OH250559   6.536   1.257  10.021 -0.1202  0.0364  0.0263
 9715TIP3    H150560   6.510   1.341   9.983  1.3436  0.3270 -0.4262
 9715TIP3    H250561   6.469   1.238  10.086 -2.1662  0.0153 -1.9909
 9716TIP3   OH250562   2.523   1.025  16.699  0.5012 -0.0603  0.0739
 9716TIP3    H150563   2.478   0.945  16.672 -1.1826  0.2911  1.6389
 9716TIP3    H250564   2.453   1.084  16.726  1.8014  1.3814  0.4229
 9717TIP3   OH250565   3.367   0.875  12.393  0.5955  0.1346  0.4975
 9717TIP3    H150566   3.420   0.831  12.326  1.3772  1.0061  0.5227
 9717TIP3    H250567   3.277   0.864  12.364  0.8220 -0.9336  0.1824
 9718TIP3   OH250568   1.377   4.897   0.987 -0.0241 -0.5213  0.0315
 9718TIP3    H150569   1.318   4.889   1.062  0.7904 -0.7348  0.6740
 9718TIP3    H250570   1.434   4.821   0.994 -0.2254 -0.7869 -1.0807
 9719TIP3   OH250571   6.725   3.445   0.579 -0.0659  0.1260  0.2817
 9719TIP3    H150572   6.722   3.374   0.644  1.2270 -0.3442 -0.1236
 9719TIP3    H250573   6.690   3.521   0.625 -0.0676 -0.4257  1.2286
 9720TIP3   OH250574   4.787   0.186  10.335 -0.0534  0.4182  0.0595
 9720TIP3    H150575   4.714   0.226  10.380 -0.9078  0.0630 -0.9646
 9720TIP3    H250576   4.793   0.232  10.251  2.2409  1.8679  0.9093
 9721TIP3   OH250577   2.501   4.348   4.231  0.3962 -0.5678  0.5741
 9721TIP3    H150578   2.409   4.373   4.222  0.1894 -1.2809  0.5997
 9721TIP3    H250579   2.546   4.396   4.162 -0.1668 -1.0273 -0.1231
 9722TIP3   OH250580   6.224   4.885  16.033 -0.8815 -0.5962 -0.0881
 9722TIP3    H150581   6.276   4.939  16.093 -1.3362 -0.8492  0.5469
 9722TIP3    H250582   6.283   4.815  16.007 -0.8247 -0.7512  0.4458
 9723TIP3   OH250583   4.278   5.726  13.569  0.7870 -0.3630  0.1389
 9723TIP3    H150584   4.187   5.732  13.598  0.7624 -0.2138  0.0280
 9723TIP3    H250585   4.325   5.788  13.624  0.8947 -0.7513  0.4927
 9724TIP3   OH250586   3.619   3.252   4.212  0.3733  0.3786 -0.1286
 9724TIP3    H150587   3.523   3.247   4.215  0.4390 -1.5603 -0.1913
 9724TIP3    H250588   3.637   3.345   4.201 -1.5160  0.7077 -0.8794
 9725TIP3   OH250589   3.548   2.462  14.092 -0.2250  0.6402 -0.0468
 9725TIP3    H150590   3.591   2.409  14.159  2.6756  1.7087 -0.8992
 9725TIP3    H250591   3.530   2.401  14.020 -0.9805 -0.0008  0.6682
 9726TIP3   OH250592   3.998   2.940  11.102 -0.1784 -0.3395 -0.0806
 9726TIP3    H150593   4.071   2.880  11.115 -1.6021 -2.1529 -0.0512
 9726TIP3    H250594   3.928   2.906  11.157 -1.2379  1.0181 -0.5226
 9727TIP3   OH250595   2.054   4.716   2.037 -0.0664  0.5744  0.1895
 9727TIP3    H150596   1.968   4.688   2.069 -0.3757 -1.2493 -1.9892
 9727TIP3    H250597   2.083   4.781   2.101 -2.3053  0.0158  1.9190
 9728TIP3   OH250598   4.457   4.767  12.687  0.1105  0.4381 -0.2939
 9728TIP3    H150599   4.372   4.776  12.645 -0.5965  1.6396  1.2962
 9728TIP3    H250600   4.475   4.853  12.725  1.0798 -0.3302  1.1126
 9729TIP3   OH250601   3.395   3.101  17.107  0.3743 -0.0518 -0.4561
 9729TIP3    H150602   3.392   3.100  17.202  0.2797  0.9337 -0.4336
 9729TIP3    H250603   3.467   3.161  17.086 -0.9344  1.4389 -0.9768
 9730TIP3   OH250604   4.373   0.771   2.557  0.4139  0.2875  0.6567
 9730TIP3    H150605   4.279   0.784   2.542  0.1630 -0.4928  1.4363
 9730TIP3    H250606   4.411   0.765   2.469 -0.2320  0.8025  0.3332
 9731TIP3   OH250607   6.284   2.573   4.207 -0.2383  0.5836 -0.3481
 9731TIP3    H150608   6.191   2.578   4.230  0.2877  0.4904  1.9923
 9731TIP3    H250609   6.299   2.650   4.152 -2.2145 -0.7863 -3.0151
 9732TIP3   OH250610   3.965   2.818  14.151 -0.3634  0.0935  0.1883
 9732TIP3    H150611   3.960   2.837  14.058 -1.2868  0.7877  0.3572
 9732TIP3    H250612   3.959   2.904  14.193  0.9050 -0.1256  0.8805
 9733TIP3   OH250613   4.852   3.435   0.380  0.1450 -0.5053 -0.1286
 9733TIP3    H150614   4.804   3.355   0.357  0.5189 -0.2463 -1.9211
 9733TIP3    H250615   4.785   3.495   0.413 -0.3441 -1.0760 -0.0679
 9734TIP3   OH250616   0.198   6.348  11.785  0.6069  0.2407 -0.1978
 9734TIP3    H150617   0.230   6.363  11.696  0.4800 -2.1318 -0.7137
 9734TIP3    H250618   0.267   6.381  11.842  0.8314  1.4962 -1.1507
 9735TIP3   OH250619   5.253   1.487  13.808  0.2130  1.0166  0.7140
 9735TIP3    H150620   5.160   1.478  13.786  0.5622  0.8490 -0.8171
 9735TIP3    H250621   5.276   1.405  13.851  0.1922  0.0177 -1.0793
 9736TIP3   OH250622   5.593   3.765   3.495 -0.2442  0.5433  0.1766
 9736TIP3    H150623   5.676   3.813   3.498 -0.1196  0.3089  0.6382
 9736TIP3    H250624   5.526   3.833   3.486 -0.0597  0.8001  0.6984
 9737TIP3   OH250625   4.834   1.836   4.935  0.0576  0.0103 -0.4756
 9737TIP3    H150626   4.756   1.805   4.980 -1.0728  1.5783 -1.2558
 9737TIP3    H250627   4.837   1.785   4.854 -0.9672  0.8729 -1.0821
 9738TIP3   OH250628   6.363   2.704   4.807 -0.2432 -0.0314 -0.6241
 9738TIP3    H150629   6.364   2.634   4.872 -1.5902  0.3099 -0.1994
 9738TIP3    H250630   6.324   2.664   4.729 -3.2732  0.7438  0.3352
 9739TIP3   OH250631   1.870   6.335   3.707  0.0649 -0.0939 -0.1908
 9739TIP3    H150632   1.800   6.401   3.703  0.9054  0.8421  0.0989
 9739TIP3    H250633   1.886   6.325   3.801  0.7238  0.1437 -0.2765
 9740TIP3   OH250634   4.810   1.057  12.475  0.6182 -0.1866  0.6533
 9740TIP3    H150635   4.821   1.071  12.381 -2.1673 -3.1860 -0.2988
 9740TIP3    H250636   4.891   1.014  12.503  0.6517 -1.1664 -0.8728
 9741TIP3   OH250637   4.887   3.622  15.308  0.0450 -0.1621  0.2202
 9741TIP3    H150638   4.795   3.594  15.317  0.3536 -1.4673 -0.4055
 9741TIP3    H250639   4.886   3.687  15.238 -0.3383 -0.5250 -0.1167
 9742TIP3   OH250640   3.314   3.293   0.819 -1.0303  0.3097  0.2550
 9742TIP3    H150641   3.333   3.326   0.731  0.0943  1.3050  0.8484
 9742TIP3    H250642   3.276   3.206   0.804 -1.2355  0.6263 -1.2218
 9743TIP3   OH250643   1.288   2.240   5.961  0.1351  0.7114 -0.0863
 9743TIP3    H150644   1.314   2.297   5.888  0.6847  1.3826  0.6225
 9743TIP3    H250645   1.200   2.269   5.984 -0.1344  0.3436 -0.6196
 9744TIP3   OH250646   6.245   6.160  14.911  0.1537  0.2906 -0.3578
 9744TIP3    H150647   6.296   6.241  14.905  2.2659 -1.0401 -4.2319
 9744TIP3    H250648   6.295   6.103  14.969 -0.5822  1.2123  1.2247
 9745TIP3   OH250649   3.560   0.159  11.767  0.5865  0.1883 -0.0878
 9745TIP3    H150650   3.521   0.118  11.690  1.7685 -1.2289  0.0108
 9745TIP3    H250651   3.563   0.089  11.832  0.0373  1.2343  1.1172
 9746TIP3   OH250652   0.926   1.937  16.566  1.1211 -0.4245  0.2681
 9746TIP3    H150653   0.944   2.001  16.634 -0.2328 -0.3753  0.6157
 9746TIP3    H250654   0.855   1.883  16.601  0.1332 -0.1695 -1.2080
 9747TIP3   OH250655   0.428   3.921  12.686  0.1815  0.4010  0.4014
 9747TIP3    H150656   0.403   3.902  12.595  1.0714  1.5080 -0.1091
 9747TIP3    H250657   0.477   3.845  12.714  0.7734  0.4679 -0.4150
 9748TIP3   OH250658   4.655   1.513   0.927  0.1384 -0.3934  0.6352
 9748TIP3    H150659   4.561   1.530   0.926  0.0878 -0.6460 -0.3357
 9748TIP3    H250660   4.684   1.544   1.012 -0.3223  2.4517 -0.1085
 9749TIP3   OH250661   4.618   2.713   3.517  0.5246 -0.2849  0.1358
 9749TIP3    H150662   4.619   2.618   3.507 -0.8089 -0.7331  3.1338
 9749TIP3    H250663   4.525   2.737   3.512  0.6069  0.4940  1.6501
 9750TIP3   OH250664   4.254   3.098  13.049  0.5439  0.1355 -0.2592
 9750TIP3    H150665   4.275   3.014  13.090 -1.2928 -0.2430  0.0144
 9750TIP3    H250666   4.158   3.099  13.046  0.5645  1.6946 -1.3844
 9751TIP3   OH250667   3.224   4.370   6.375  0.0257 -0.7724 -0.1216
 9751TIP3    H150668   3.304   4.372   6.428 -0.4927  0.7098  0.6533
 9751TIP3    H250669   3.172   4.444   6.406  0.6049  1.5865 -4.0506
 9752TIP3   OH250670   3.204   1.934  15.434 -0.1460  0.0611 -0.4211
 9752TIP3    H150671   3.299   1.936  15.426  0.2923 -3.0003  2.2792
 9752TIP3    H250672   3.175   1.877  15.363  0.0146  0.8276 -1.1158
 9753TIP3   OH250673   0.562   1.695  12.573  0.1337 -1.1505 -0.1905
 9753TIP3    H150674   0.619   1.686  12.497  1.5346 -0.3496  0.7167
 9753TIP3    H250675   0.612   1.655  12.645 -1.2816 -2.1558  0.2676
 9754TIP3   OH250676   1.964   1.523  16.728  1.1263  0.1932  0.6109
 9754TIP3    H150677   1.925   1.438  16.747 -1.2150  0.8221 -0.8935
 9754TIP3    H250678   1.889   1.581  16.715  2.6440  2.4229  1.2222
 9755TIP3   OH250679   5.558   1.130  16.504  0.7866  0.0778  0.1694
 9755TIP3    H150680   5.602   1.119  16.420 -1.2068 -1.7969 -0.7272
 9755TIP3    H250681   5.480   1.182  16.484  0.7703  0.4058  1.0414
 9756TIP3   OH250682   1.065   5.702   0.840 -0.2525 -0.2203 -0.1373
 9756TIP3    H150683   0.983   5.749   0.823 -0.3486 -0.5496 -0.5873
 9756TIP3    H250684   1.042   5.610   0.836  0.0171 -0.3096  0.3582
 9757TIP3   OH250685   4.436   3.532   1.713  0.4973  0.2462 -0.7378
 9757TIP3    H150686   4.512   3.555   1.766 -0.5125  0.5783  0.6160
 9757TIP3    H250687   4.458   3.564   1.625  1.6750  0.8491 -0.2493
 9758TIP3   OH250688   3.688   3.997  15.257 -0.1987 -0.5008  0.1426
 9758TIP3    H150689   3.594   3.983  15.253 -0.2003 -1.5439  2.1630
 9758TIP3    H250690   3.726   3.924  15.208 -0.4213 -3.0772  3.4729
 9759TIP3   OH250691   3.747   3.409  15.569  0.5643 -0.2936 -0.1996
 9759TIP3    H150692   3.660   3.369  15.571 -0.3542  1.6343  0.1343
 9759TIP3    H250693   3.774   3.403  15.478  0.3709 -1.4412 -0.2007
 9760TIP3   OH250694   5.099   1.306   1.523  0.3059  0.3627 -0.0181
 9760TIP3    H150695   5.091   1.394   1.560  0.2436 -0.3258  1.7008
 9760TIP3    H250696   5.193   1.291   1.518  0.3160  0.4063  0.0273
 9761TIP3   OH250697   2.963   4.924   2.260  0.2974 -0.0037  0.5632
 9761TIP3    H150698   3.028   4.940   2.191  0.1479  0.3969  0.5179
 9761TIP3    H250699   3.010   4.872   2.325  0.2050 -1.1136 -0.2311
 9762TIP3   OH250700   3.849   5.715  14.684 -0.5119  0.8956  0.7851
 9762TIP3    H150701   3.936   5.704  14.646 -1.7947 -0.4717 -2.0279
 9762TIP3    H250702   3.831   5.809  14.675 -0.4514  0.7543 -1.5146
 9763TIP3   OH250703   4.352   5.204  13.013  0.4109  0.0218  0.4078
 9763TIP3    H150704   4.266   5.166  12.998  1.4204 -2.0267 -0.7024
 9763TIP3    H250705   4.358   5.276  12.950 -0.4184  0.0800  0.3885
 9764TIP3   OH250706   4.104   5.121  14.134  0.0501  0.2885  0.4881
 9764TIP3    H150707   4.194   5.148  14.114  0.2124  1.0036  2.0605
 9764TIP3    H250708   4.114   5.041  14.185 -0.3199 -0.9703 -1.3338
 9765TIP3   OH250709   4.886   1.600   0.562 -0.2284  0.3007 -0.2353
 9765TIP3    H150710   4.955   1.611   0.497 -1.0868 -0.3871 -1.2934
 9765TIP3    H250711   4.815   1.656   0.531 -1.6070 -1.8977 -1.3383
 9766TIP3   OH250712   1.498   1.038   6.285  0.9410 -0.4447  0.2315
 9766TIP3    H150713   1.525   0.948   6.301  2.0471 -0.1223  0.2376
 9766TIP3    H250714   1.404   1.038   6.303  0.4426 -2.1088 -1.8779
 9767TIP3   OH250715   5.416   2.332  15.332 -0.4117 -0.0203  0.4055
 9767TIP3    H150716   5.409   2.424  15.306 -2.2554 -0.3357 -0.3543
 9767TIP3    H250717   5.457   2.288  15.257 -0.2938  0.0353  0.4371
 9768TIP3   OH250718   6.519   3.020  13.854  0.4193 -0.2290  0.1326
 9768TIP3    H150719   6.508   3.062  13.769 -0.2241 -0.5161  0.0666
 9768TIP3    H250720   6.487   3.085  13.917  1.1075  0.0703  0.1736
 9769TIP3   OH250721   6.699   2.434  13.092 -0.1022  0.0644  0.1608
 9769TIP3    H150722   6.624   2.458  13.037  0.3270  0.1867 -0.3744
 9769TIP3    H250723   6.693   2.494  13.167 -1.5410 -1.0753  1.0207
 9770TIP3   OH250724   2.250   2.468  14.743 -0.2238  0.0935 -0.2761
 9770TIP3    H150725   2.199   2.442  14.666 -1.6022  1.2267  0.1913
 9770TIP3    H250726   2.216   2.555  14.765  2.0747  0.9971 -0.0288
 9771TIP3   OH250727   2.626   3.119  13.322  0.3428 -0.4858  0.1690
 9771TIP3    H150728   2.543   3.071  13.319 -0.3078  0.4876  1.6059
 9771TIP3    H250729   2.612   3.195  13.265 -0.4137  0.5995  1.7257
 9772TIP3   OH250730   3.560   5.928  16.767 -0.3627 -0.3834  0.6810
 9772TIP3    H150731   3.508   5.962  16.694  0.0281 -0.7654  0.2225
 9772TIP3    H250732   3.539   5.987  16.840  1.0942  1.5319 -0.3390
 9773TIP3   OH250733   2.986   1.790   7.001  0.2632 -0.1184 -0.1636
 9773TIP3    H150734   3.053   1.730   7.034 -2.2156 -3.8830 -1.2459
 9773TIP3    H250735   3.021   1.820   6.917  0.8109 -1.7244 -0.5553
 9774TIP3   OH250736   0.078   6.250  13.473  0.0909  0.4046 -0.2787
 9774TIP3    H150737   0.049   6.199  13.397 -1.3382 -1.3810  1.3662
 9774TIP3    H250738   0.131   6.189  13.524  0.7319  1.4579  0.3525
 9775TIP3   OH250739   2.540   4.081  16.596 -0.6215  0.6494 -0.0566
 9775TIP3    H150740   2.585   4.152  16.549 -0.7261  0.3158 -0.6666
 9775TIP3    H250741   2.466   4.124  16.639  0.0564  1.1379  0.6440
 9776TIP3   OH250742   2.827   6.587   5.593  0.0637 -0.1225  0.3253
 9776TIP3    H150743   2.740   6.547   5.599  0.1110 -0.2310  0.2954
 9776TIP3    H250744   2.831   6.648   5.667  0.2097 -0.5987  0.7136
 9777TIP3   OH250745   4.983   2.933  14.281  0.1718 -0.0880 -0.5110
 9777TIP3    H150746   4.975   2.853  14.229  2.1775  1.0642 -2.7618
 9777TIP3    H250747   5.052   2.914  14.344 -1.8855 -1.2932  1.5627
 9778TIP3   OH250748   4.691   1.921  11.889 -0.1388  0.7168  0.0449
 9778TIP3    H150749   4.622   1.855  11.900  0.0557  0.6022  0.5925
 9778TIP3    H250750   4.656   1.999  11.931 -0.1320  0.8030 -0.1073
 9779TIP3   OH250751   3.800   5.859  11.588  0.8386 -0.0118 -0.1097
 9779TIP3    H150752   3.804   5.948  11.554 -0.0981  0.6872  1.4907
 9779TIP3    H250753   3.713   5.853  11.628  1.7951 -0.7968  1.9811
 9780TIP3   OH250754   5.122   6.511   2.167  0.0050 -0.0040  0.2904
 9780TIP3    H150755   5.085   6.546   2.086  1.4815  1.3861  0.1762
 9780TIP3    H250756   5.140   6.419   2.147 -1.0962 -0.0843 -0.4262
 9781TIP3   OH250757   0.008   5.845  13.136 -0.3512  0.0524 -0.0494
 9781TIP3    H150758   0.034   5.927  13.178 -0.5008  0.3769 -0.5696
 9781TIP3    H250759   0.091   5.804  13.110 -0.2586 -0.1596  0.5665
 9782TIP3   OH250760   0.259   5.832   3.574 -0.0592  0.3330  0.1996
 9782TIP3    H150761   0.325   5.899   3.555  0.7351  0.0167  1.6604
 9782TIP3    H250762   0.303   5.749   3.558 -0.8474  0.1267 -1.0102
 9783TIP3   OH250763   4.488   3.009  15.770 -0.2164 -0.1942 -0.2099
 9783TIP3    H150764   4.406   3.050  15.801  1.1573  1.0247  2.1280
 9783TIP3    H250765   4.537   3.082  15.732  0.0761 -0.7828 -0.9660
 9784TIP3   OH250766   5.920   1.909  11.367 -0.3681  0.1468  0.1051
 9784TIP3    H150767   5.949   1.979  11.426  0.7658  0.9092 -1.2650
 9784TIP3    H250768   5.986   1.840  11.377  0.3766  0.6745 -0.9047
 9785TIP3   OH250769   3.839   5.468   5.805  0.8842 -0.6382  0.2401
 9785TIP3    H150770   3.832   5.396   5.867 -2.0397 -0.7923 -0.1360
 9785TIP3    H250771   3.869   5.542   5.857  0.5212 -1.2796  1.3891
 9786TIP3   OH250772   0.948   3.491  16.544 -0.0205 -0.0548  0.7090
 9786TIP3    H150773   0.991   3.549  16.482  0.6468  1.2377  2.3063
 9786TIP3    H250774   0.881   3.546  16.585 -1.1181 -1.1660  0.4526
 9787TIP3   OH250775   5.901   6.635  15.067  0.2932 -0.1861 -0.2049
 9787TIP3    H150776   5.950   6.647  14.986  0.2340  0.2519 -0.1789
 9787TIP3    H250777   5.809   6.635  15.040  0.2531  0.4272 -0.0894
 9788TIP3   OH250778   5.775   4.928  12.062  0.1564  0.0937 -0.1780
 9788TIP3    H150779   5.841   4.900  12.126  1.0407  1.4680 -0.4440
 9788TIP3    H250780   5.826   4.961  11.988 -0.8370  0.3650 -0.7533
 9789TIP3   OH250781   1.533   4.472   1.968 -0.4654  0.1478 -0.1773
 9789TIP3    H150782   1.515   4.416   2.044 -1.1937 -0.6292 -0.8979
 9789TIP3    H250783   1.626   4.494   1.975 -0.6036  0.3750  1.1196
 9790TIP3   OH250784   0.088   2.723  16.753  0.2886  0.7359  0.6092
 9790TIP3    H150785   0.152   2.708  16.684 -0.8348 -0.8378 -0.1592
 9790TIP3    H250786   0.028   2.789  16.717 -0.2529 -0.0289  0.0783
 9791TIP3   OH250787   4.041   5.577  15.187  0.1909  0.2494 -0.1074
 9791TIP3    H150788   4.085   5.526  15.120  0.1008 -0.0019  0.0248
 9791TIP3    H250789   3.988   5.513  15.235  2.7842 -0.2413  2.3668
 9792TIP3   OH250790   0.373   0.843  12.198  0.0237  0.3240 -0.2481
 9792TIP3    H150791   0.407   0.755  12.209  2.1785  0.7968 -2.4273
 9792TIP3    H250792   0.421   0.896  12.262  0.6115  0.3199 -0.6756
 9793TIP3   OH250793   1.557   0.320   6.179 -0.8460  0.1473  0.1933
 9793TIP3    H150794   1.508   0.400   6.162 -0.3580  0.0459 -2.0204
 9793TIP3    H250795   1.501   0.251   6.143  0.0368 -0.1818 -0.5600
 9794TIP3   OH250796   3.505   3.180  12.746 -0.0806 -0.0705 -0.2067
 9794TIP3    H150797   3.514   3.176  12.841 -1.5476  0.2335 -0.0406
 9794TIP3    H250798   3.517   3.272  12.724 -0.4066 -0.0398 -0.2499
 9795TIP3   OH250799   6.452   5.753  12.688 -0.3383  0.0837  0.0910
 9795TIP3    H150800   6.479   5.668  12.653  0.5466  1.3044 -2.3712
 9795TIP3    H250801   6.356   5.751  12.684 -0.2805 -0.1818 -1.5385
 9796TIP3   OH250802   3.134   3.172  11.469 -0.3486  0.3920 -0.0102
 9796TIP3    H150803   3.056   3.133  11.431  0.9739 -0.7208 -1.7265
 9796TIP3    H250804   3.139   3.259  11.428  0.6990 -0.5427 -2.0359
 9797TIP3   OH250805   5.212   2.004   2.331  0.0551 -0.2966  0.5934
 9797TIP3    H150806   5.230   2.098   2.343 -0.2547 -0.2165  0.4474
 9797TIP3    H250807   5.278   1.960   2.384  1.5325 -0.0311 -0.9177
 9798TIP3   OH250808   0.740   5.666   4.894 -0.0947  0.1464 -0.3657
 9798TIP3    H150809   0.686   5.596   4.930  1.4720 -2.7536 -3.0993
 9798TIP3    H250810   0.678   5.736   4.871 -1.8725 -0.7268  1.4890
 9799TIP3   OH250811   2.151   5.038  16.890  0.1357 -0.3135 -0.0359
 9799TIP3    H150812   2.168   5.128  16.918 -1.7403  0.1127 -0.1165
 9799TIP3    H250813   2.074   5.045  16.832 -0.7566 -2.0853  0.8492
 9800TIP3   OH250814   1.451   4.125   3.490 -0.1605 -0.1128 -0.4063
 9800TIP3    H150815   1.489   4.121   3.402 -1.8938 -0.1505 -1.1923
 9800TIP3    H250816   1.407   4.041   3.502 -0.1323 -0.0196  0.4125
 9801TIP3   OH250817   2.858   5.784  12.529 -0.0776  0.1742  0.3403
 9801TIP3    H150818   2.846   5.792  12.434 -0.2670  1.7210  0.4725
 9801TIP3    H250819   2.953   5.780  12.540 -0.0657 -0.5134  0.0664
 9802TIP3   OH250820   1.330   5.953  15.089  0.8078 -0.3183  0.3436
 9802TIP3    H150821   1.297   5.946  14.999 -1.7640  0.7109  1.1195
 9802TIP3    H250822   1.301   5.873  15.131  0.6593 -0.1007  0.6548
 9803TIP3   OH250823   3.174   3.453  13.516 -0.4890 -0.7707  0.8017
 9803TIP3    H150824   3.161   3.382  13.453 -1.2019  1.2807 -1.5435
 9803TIP3    H250825   3.268   3.452  13.534  0.1557 -0.1893 -2.0226
 9804TIP3   OH250826   6.706   1.546   1.647  0.6927  0.2109 -0.0794
 9804TIP3    H150827   6.695   1.564   1.554  0.1635  1.3691  0.1798
 9804TIP3    H250828   6.773   1.608   1.676  0.3490  0.3460  0.4427
 9805TIP3   OH250829   5.666   1.987  10.924  0.3185 -0.0763  0.1498
 9805TIP3    H150830   5.634   2.076  10.908 -0.3244 -0.0660  1.3347
 9805TIP3    H250831   5.731   1.998  10.994  1.0479 -0.4124 -0.4704
 9806TIP3   OH250832   4.245   6.710  15.987 -0.3461 -0.8272  0.2257
 9806TIP3    H150833   4.244   6.777  16.056  1.3876 -0.8532  0.3136
 9806TIP3    H250834   4.228   6.628  16.033 -0.1731 -0.7271  0.4678
 9807TIP3   OH250835   5.520   6.753   5.492  0.2992 -0.3126  0.2267
 9807TIP3    H150836   5.427   6.772   5.480  0.4619  0.0542 -0.4522
 9807TIP3    H250837   5.525   6.720   5.582 -0.5946 -1.0193  0.0411
 9808TIP3   OH250838   4.173   1.986   3.778 -0.0443 -0.4000  0.0855
 9808TIP3    H150839   4.218   1.946   3.853 -0.0529  0.0894  0.3559
 9808TIP3    H250840   4.200   1.934   3.703  2.2680  0.8253 -0.0275
 9809TIP3   OH250841   0.400   5.545   2.910 -0.6936 -0.3961  0.1725
 9809TIP3    H150842   0.363   5.492   2.839 -0.0965 -1.0520  0.3452
 9809TIP3    H250843   0.482   5.578   2.874  0.1254 -1.5704  0.8988
 9810TIP3   OH250844   5.102   4.381   0.274 -0.0896  0.0439  0.0533
 9810TIP3    H150845   5.092   4.476   0.275  0.5858  0.1342  1.5353
 9810TIP3    H250846   5.197   4.367   0.273 -0.1794 -0.6084  0.0006
 9811TIP3   OH250847   0.495   1.209   0.794 -0.1162 -0.1372  0.1953
 9811TIP3    H150848   0.430   1.260   0.745  0.3510  0.0610 -0.2281
 9811TIP3    H250849   0.444   1.139   0.835 -0.6006  0.0215 -0.1181
 9812TIP3   OH250850   6.045   4.063   3.888 -0.6395 -0.1298  0.0112
 9812TIP3    H150851   6.023   4.010   3.964 -0.0605  0.7672  0.8355
 9812TIP3    H250852   5.961   4.081   3.845 -0.8825 -1.3124 -0.0350
 9813TIP3   OH250853   6.289   3.522  11.817  0.2626  0.4090 -0.5203
 9813TIP3    H150854   6.347   3.596  11.833 -0.8003  1.2317 -0.3478
 9813TIP3    H250855   6.330   3.449  11.864  0.6732  1.1873  0.3696
 9814TIP3   OH250856   3.569   0.975  13.323  0.0206 -0.3911  0.2457
 9814TIP3    H150857   3.614   0.915  13.263 -1.0415  0.4585 -1.4896
 9814TIP3    H250858   3.514   1.030  13.266 -2.4208 -0.6823  2.1326
 9815TIP3   OH250859   0.171   5.153  15.367  0.2820  0.4345 -0.2493
 9815TIP3    H150860   0.211   5.204  15.296  1.8087 -1.2729 -0.6810
 9815TIP3    H250861   0.109   5.096  15.322  2.1349 -1.5253 -0.4349
 9816TIP3   OH250862   4.874   6.314  12.607 -0.3983 -0.0731 -0.1261
 9816TIP3    H150863   4.912   6.393  12.645 -2.2326  0.0969  1.5056
 9816TIP3    H250864   4.934   6.244  12.632 -0.3396  0.3873  1.0728
 9817TIP3   OH250865   4.239   3.556   4.507 -0.1277  0.3818  0.0537
 9817TIP3    H150866   4.251   3.489   4.439  0.6691  0.2759  0.2855
 9817TIP3    H250867   4.287   3.522   4.582 -0.5643  0.7486  0.5047
 9818TIP3   OH250868   2.776   0.083  15.558 -0.1146  0.1872  0.2722
 9818TIP3    H150869   2.706   0.113  15.616 -1.9185  0.3712 -1.8618
 9818TIP3    H250870   2.838   0.155  15.555 -1.9730  1.8294 -1.0331
 9819TIP3   OH250871   5.101   0.304   4.999 -0.5547 -0.3384  0.5990
 9819TIP3    H150872   5.058   0.386   4.974 -0.7404 -0.6944 -0.3123
 9819TIP3    H250873   5.191   0.315   4.969 -0.4817 -0.3221  0.8228
 9820TIP3   OH250874   4.469   2.188   4.099 -0.0801  0.3376  0.4356
 9820TIP3    H150875   4.448   2.129   4.172 -1.7522  1.5881  1.0365
 9820TIP3    H250876   4.518   2.260   4.140 -1.0961  1.0863  0.3796
 9821TIP3   OH250877   5.817   6.361  16.802 -0.4425 -0.0232 -0.3312
 9821TIP3    H150878   5.847   6.452  16.793 -1.2962  0.4297  1.0766
 9821TIP3    H250879   5.788   6.354  16.893 -1.4082 -1.3982 -0.7112
 9822TIP3   OH250880   6.040   1.770   3.762 -0.2262 -0.5012  0.4866
 9822TIP3    H150881   6.067   1.853   3.723  1.3387 -0.2374  2.0179
 9822TIP3    H250882   6.100   1.705   3.727 -0.7714 -0.8225  0.1210
 9823TIP3   OH250883   3.670   5.811   4.288  0.0474  0.0664  0.0338
 9823TIP3    H150884   3.604   5.862   4.241  0.1761  0.3919  0.2064
 9823TIP3    H250885   3.726   5.776   4.219 -0.5266 -0.5397 -0.1470
 9824TIP3   OH250886   6.524   2.709   5.818  0.1023  0.5635  0.1689
 9824TIP3    H150887   6.502   2.725   5.909  1.1900 -0.6888  0.6830
 9824TIP3    H250888   6.608   2.754   5.805  0.4185 -0.0500  0.0597
 9825TIP3   OH250889   0.486   0.606   1.128 -0.3642 -0.3254 -0.1612
 9825TIP3    H150890   0.407   0.660   1.134 -0.8163 -0.9742 -0.1945
 9825TIP3    H250891   0.454   0.516   1.126  0.4019 -0.6221  0.3497
 9826TIP3   OH250892   5.466   2.627   2.965  0.1090  0.1246 -0.1223
 9826TIP3    H150893   5.411   2.700   2.994  0.3233 -0.1848  1.1200
 9826TIP3    H250894   5.547   2.667   2.936 -0.7818  0.6061 -2.1336
 9827TIP3   OH250895   0.927   3.604  15.253 -0.0804 -0.5562 -0.0553
 9827TIP3    H150896   1.019   3.579  15.252  0.3407  0.8686 -1.3181
 9827TIP3    H250897   0.925   3.688  15.298 -0.8400 -0.8081  0.4013
 9828TIP3   OH250898   5.248   2.822  12.966 -0.0947  0.3130  0.4954
 9828TIP3    H150899   5.340   2.846  12.977 -0.0462  0.8519 -0.9201
 9828TIP3    H250900   5.240   2.740  13.014  0.8518  0.8225  1.5646
 9829TIP3   OH250901   4.155   4.082  14.665 -0.4592  0.3736 -0.7090
 9829TIP3    H150902   4.128   4.125  14.745  2.2456  0.4272  0.2868
 9829TIP3    H250903   4.117   3.994  14.671 -2.7629  1.2858 -0.8940
 9830TIP3   OH250904   6.281   5.568   4.268  0.2000  0.8269 -0.0684
 9830TIP3    H150905   6.235   5.592   4.348 -0.2302 -0.4969  0.1087
 9830TIP3    H250906   6.238   5.619   4.199 -1.4280 -0.2051  0.1226
 9831TIP3   OH250907   6.719   1.182  16.388 -0.5342  0.0556 -0.6872
 9831TIP3    H150908   6.690   1.095  16.416  2.1916 -0.8170 -0.3282
 9831TIP3    H250909   6.742   1.171  16.296 -0.7095  0.5503 -0.7926
 9832TIP3   OH250910   2.552   4.409  14.352  0.4176 -0.3907 -0.6609
 9832TIP3    H150911   2.514   4.423  14.439  0.2887 -2.4198 -0.3548
 9832TIP3    H250912   2.550   4.496  14.312  1.3351  0.8279  1.6759
 9833TIP3   OH250913   4.422   2.165   0.901 -0.7344  0.2878  0.0733
 9833TIP3    H150914   4.432   2.227   0.829  0.8600 -0.9043 -0.8057
 9833TIP3    H250915   4.432   2.079   0.860  1.8892 -0.4005  1.8615
 9834TIP3   OH250916   2.750   6.348   6.031 -0.2282 -0.5761 -0.3771
 9834TIP3    H150917   2.656   6.347   6.049 -0.2014  2.2497  0.4096
 9834TIP3    H250918   2.791   6.326   6.115 -0.1937 -0.1211 -0.2713
 9835TIP3   OH250919   4.505   2.334   0.717 -0.1443 -0.3920  0.1208
 9835TIP3    H150920   4.560   2.392   0.770  0.4834 -1.4563  0.6851
 9835TIP3    H250921   4.511   2.369   0.628 -0.1878  0.6857  0.5266
 9836TIP3   OH250922   3.018   2.592   5.663 -0.4529 -0.4321  0.3123
 9836TIP3    H150923   2.952   2.661   5.666  0.6103  0.6403 -0.1957
 9836TIP3    H250924   3.011   2.548   5.748 -1.3053  0.1355  0.5442
 9837TIP3   OH250925   2.027   4.224  13.423 -0.1518 -0.1190  0.2212
 9837TIP3    H150926   2.122   4.214  13.434 -0.1546 -0.1000  0.2617
 9837TIP3    H250927   1.989   4.150  13.471 -0.2634  1.1776  2.2846
 9838TIP3   OH250928   6.690   1.405   0.954 -0.4926  0.1851 -0.1343
 9838TIP3    H150929   6.701   1.365   0.868 -0.2511 -0.2844  0.1109
 9838TIP3    H250930   6.681   1.331   1.014 -0.4891  0.5045  0.2680
 9839TIP3   OH250931   5.679   1.700  12.819  0.1657  0.2758 -0.0851
 9839TIP3    H150932   5.645   1.664  12.737 -0.5619 -0.4727  0.5252
 9839TIP3    H250933   5.771   1.718  12.801  0.1236 -0.3124 -0.9316
 9840TIP3   OH250934   3.561   0.490   4.166  0.0381 -0.1622  0.3225
 9840TIP3    H150935   3.610   0.448   4.096 -0.4748 -2.1272  1.0938
 9840TIP3    H250936   3.563   0.428   4.239  0.3256  1.6842  1.9960
 9841TIP3   OH250937   5.098   6.157   2.814 -0.3490 -0.2328 -0.5454
 9841TIP3    H150938   5.187   6.177   2.845 -0.8528 -2.0194  2.5708
 9841TIP3    H250939   5.051   6.240   2.820  0.7038  0.3822 -0.5594
 9842TIP3   OH250940   6.068   4.143  16.778 -0.0656  0.0141  0.1832
 9842TIP3    H150941   6.161   4.123  16.785  0.2427  1.6634  1.3291
 9842TIP3    H250942   6.065   4.222  16.725 -0.5664  1.4710  2.2776
 9843TIP3   OH250943   5.066   2.013   1.153  0.4765  0.3881  0.4496
 9843TIP3    H150944   4.986   2.042   1.109  0.3012 -0.8895 -0.1018
 9843TIP3    H250945   5.100   2.092   1.194 -1.6001  0.7843  1.5612
 9844TIP3   OH250946   2.858   5.281   1.714  0.3364 -0.1483 -0.7017
 9844TIP3    H150947   2.917   5.260   1.786 -0.2776 -0.2342 -0.2196
 9844TIP3    H250948   2.902   5.353   1.668 -0.3679  1.5605  1.1507
 9845TIP3   OH250949   6.430   0.478   4.359 -0.1616  0.7255  0.5184
 9845TIP3    H150950   6.408   0.444   4.272 -1.8357 -0.9724  1.5296
 9845TIP3    H250951   6.436   0.573   4.347 -2.4667  0.7589 -1.0625
 9846TIP3   OH250952   4.061   1.084   4.375 -0.0033  0.2909  0.0806
 9846TIP3    H150953   3.984   1.052   4.423  0.3165 -0.7205 -0.0457
 9846TIP3    H250954   4.046   1.178   4.365  0.2739  0.7030  2.8511
 9847TIP3   OH250955   6.201   0.184   2.920 -0.3292 -0.1695  0.9097
 9847TIP3    H150956   6.137   0.181   2.849  0.5982 -2.1443  0.0955
 9847TIP3    H250957   6.262   0.254   2.894  0.0915 -0.9730 -0.3533
 9848TIP3   OH250958   1.301   5.732   1.243  0.5681  0.1378 -0.6107
 9848TIP3    H150959   1.212   5.709   1.216  0.5001 -1.4427  0.7953
 9848TIP3    H250960   1.354   5.719   1.164 -0.3279  0.4261 -1.2769
 9849TIP3   OH250961   2.912   1.963  14.763 -0.4075 -0.2476  0.0179
 9849TIP3    H150962   2.842   2.017  14.799 -2.3199 -1.5944 -1.4503
 9849TIP3    H250963   2.948   2.015  14.691 -0.3495  0.1538  0.3289
 9850TIP3   OH250964   6.279   1.767   0.840  0.3926  0.0943 -0.2324
 9850TIP3    H150965   6.248   1.690   0.792 -0.5903 -0.0756  0.6457
 9850TIP3    H250966   6.374   1.768   0.825  0.4142 -1.2527 -0.3033
 9851TIP3   OH250967   6.588   5.730  12.420  0.7955 -0.0291 -0.1569
 9851TIP3    H150968   6.645   5.708  12.346 -1.5495 -1.7124 -1.6125
 9851TIP3    H250969   6.504   5.751  12.380 -0.6257 -1.1654  2.0134
 9852TIP3   OH250970   5.732   3.856  14.076  0.3180  0.1737 -0.2195
 9852TIP3    H150971   5.660   3.867  14.014  0.0918 -0.3992 -0.0649
 9852TIP3    H250972   5.751   3.762  14.074  1.7715  0.4512 -1.0653
 9853TIP3   OH250973   3.587   0.408   1.858 -0.3886  0.8795 -0.1896
 9853TIP3    H150974   3.653   0.460   1.813  0.1394 -0.5213 -1.1138
 9853TIP3    H250975   3.610   0.317   1.838 -1.1563  0.2644  1.5154
 9854TIP3   OH250976   0.904   2.927   5.283  0.1910 -0.2451 -0.7727
 9854TIP3    H150977   0.839   2.933   5.353  0.7945  0.8699 -0.2854
 9854TIP3    H250978   0.946   2.842   5.297 -0.2192 -0.3663 -0.2506
 9855TIP3   OH250979   5.976   6.172   2.638 -0.2119  0.2239 -0.4405
 9855TIP3    H150980   5.904   6.110   2.638  0.4368 -0.6110  1.4407
 9855TIP3    H250981   5.937   6.255   2.611 -1.6040 -0.4639 -0.6256
 9856TIP3   OH250982   6.387   1.096  15.363 -0.4753 -0.9199  0.2828
 9856TIP3    H150983   6.403   1.014  15.408 -1.8325 -1.3404  0.0335
 9856TIP3    H250984   6.471   1.118  15.323  0.2965 -1.3950  1.5927
 9857TIP3   OH250985   6.128   2.798  13.883 -0.2414 -0.1039 -0.4648
 9857TIP3    H150986   6.036   2.775  13.891  0.2065 -1.5609  1.1832
 9857TIP3    H250987   6.175   2.723  13.919  1.4836  1.8875  1.7348
 9858TIP3   OH250988   6.179   1.829   4.366  0.0557 -0.0996 -0.9583
 9858TIP3    H150989   6.127   1.903   4.335  0.1070 -0.0073 -0.8257
 9858TIP3    H250990   6.115   1.761   4.385  0.0724 -0.3922 -1.9011
 9859TIP3   OH250991   5.560   2.656  13.143  0.7385 -0.5988 -0.2006
 9859TIP3    H150992   5.630   2.679  13.203 -0.3215  1.3862  0.3592
 9859TIP3    H250993   5.546   2.734  13.090 -1.4685 -0.6864  0.1610
 9860TIP3   OH250994   0.009   6.482  12.814  0.0232  0.1696 -0.3790
 9860TIP3    H150995  -0.042   6.483  12.895 -0.5911  0.3239 -0.7602
 9860TIP3    H250996   0.019   6.389  12.793 -1.4654  0.1379 -1.1240
 9861TIP3   OH250997   4.420   4.867  12.042  0.1337 -0.0571 -0.4575
 9861TIP3    H150998   4.474   4.868  12.121  0.1045  1.6404 -0.4316
 9861TIP3    H250999   4.448   4.944  11.992 -0.8494 -0.2914 -1.4193
 9862TIP3   OH251000   3.773   4.517   6.355  0.1786 -0.2031  0.1139
 9862TIP3    H151001   3.736   4.588   6.408 -0.5111 -0.9746  0.7104
 9862TIP3    H251002   3.823   4.464   6.417  1.0606  0.0072 -0.4116
 9863TIP3   OH251003   5.625   3.777  13.704  0.0704  0.4730 -0.0336
 9863TIP3    H151004   5.586   3.785  13.617 -0.2243  2.8590  0.2611
 9863TIP3    H251005   5.719   3.766  13.687 -0.3310 -3.2429 -0.6754
 9864TIP3   OH251006   2.036   3.344  11.106  0.0220 -0.2433 -0.0119
 9864TIP3    H151007   2.016   3.251  11.098  2.5106 -0.7971 -0.5549
 9864TIP3    H251008   2.032   3.378  11.017 -1.2600  0.2972  0.2268
 9865TIP3   OH251009   5.963   5.904   4.216 -0.0467 -0.4685 -0.3139
 9865TIP3    H151010   6.002   5.817   4.209 -0.4222 -0.6811  0.1780
 9865TIP3    H251011   5.936   5.911   4.307 -0.0427  0.1548 -0.3567
 9866TIP3   OH251012   2.224   3.318  13.591  0.1873 -0.0291 -0.2257
 9866TIP3    H151013   2.235   3.372  13.513  0.1553 -1.6833 -1.4446
 9866TIP3    H251014   2.313   3.303  13.623  0.2027  0.6433  0.0476
 9867TIP3   OH251015   0.214   0.550  13.104  0.1115 -0.0203 -0.1182
 9867TIP3    H151016   0.261   0.632  13.094  0.2078 -0.2013 -1.2774
 9867TIP3    H251017   0.271   0.495  13.158 -0.6114  1.1585  1.9532
 9868TIP3   OH251018   5.581   4.544  17.223 -0.2742 -0.5112 -0.0186
 9868TIP3    H151019   5.621   4.515  17.141  0.7142  0.0783  0.2355
 9868TIP3    H251020   5.561   4.463  17.270  0.6843 -0.8316 -0.1406
 9869TIP3   OH251021   5.125   4.148   5.692  0.4052 -0.2907  0.3905
 9869TIP3    H151022   5.107   4.054   5.696 -0.7206 -0.1262 -0.3837
 9869TIP3    H251023   5.040   4.189   5.674  1.1517  0.7244 -1.0803
 9870TIP3   OH251024   4.246   3.770   2.267  0.2955  0.1087  0.4246
 9870TIP3    H151025   4.319   3.730   2.220 -0.9936  0.1911 -1.7855
 9870TIP3    H251026   4.168   3.728   2.231 -0.9060  2.0018  0.6608
 9871TIP3   OH251027   0.655   1.793  14.768 -0.3201 -0.3540 -0.1054
 9871TIP3    H151028   0.749   1.805  14.776 -0.2243 -1.1958  0.1190
 9871TIP3    H251029   0.629   1.851  14.696  0.5131 -0.8329 -0.8071
 9872TIP3   OH251030   2.551   3.524  15.414  0.5072 -0.2083 -0.2383
 9872TIP3    H151031   2.471   3.575  15.403 -1.1739 -2.8977 -1.9354
 9872TIP3    H251032   2.618   3.574  15.368 -0.0113  2.3160  1.5718
 9873TIP3   OH251033   5.522   3.531  14.426 -0.1978 -0.5408  0.5645
 9873TIP3    H151034   5.564   3.453  14.390  0.7956  0.8953 -1.6410
 9873TIP3    H251035   5.584   3.602  14.408 -1.9924  1.0946  0.4771
 9874TIP3   OH251036   2.734   2.813  13.634 -0.2303 -0.1442  0.1257
 9874TIP3    H151037   2.753   2.870  13.559 -0.3576 -0.0780  0.1433
 9874TIP3    H251038   2.760   2.865  13.710 -0.7018  0.0388  0.1639
 9875TIP3   OH251039   6.563   1.382  16.703  0.6629  0.0850 -0.5033
 9875TIP3    H151040   6.488   1.430  16.670 -0.3083 -0.1318  1.2691
 9875TIP3    H251041   6.624   1.449  16.734 -0.8184  0.2912  2.2456
 9876TIP3   OH251042   4.919   2.505  17.015 -0.2900 -0.1504 -0.1450
 9876TIP3    H151043   4.901   2.573  16.949 -0.6708  0.5984  0.7139
 9876TIP3    H251044   5.005   2.471  16.990 -0.4326  0.1041 -1.0441
 9877TIP3   OH251045   4.930   2.106   4.970  0.1514  0.3277  0.4621
 9877TIP3    H151046   4.915   2.012   4.966 -2.4443  0.7254 -1.2920
 9877TIP3    H251047   4.960   2.122   5.059  1.4876 -2.2252  0.5578
 9878TIP3   OH251048   2.935   3.578   5.494 -0.3294  0.3698  0.3754
 9878TIP3    H151049   2.861   3.639   5.499  0.2237  1.1139 -0.2366
 9878TIP3    H251050   3.008   3.632   5.464  0.3104 -0.4855  0.3692
 9879TIP3   OH251051   5.000   1.965  15.224 -0.3159  0.2599 -0.5302
 9879TIP3    H151052   5.023   1.983  15.316 -0.8679  0.5662 -0.4498
 9879TIP3    H251053   4.909   1.937  15.227 -0.0498 -0.6827 -0.8818
 9880TIP3   OH251054   0.231   5.368   3.123  0.4136 -0.2248  0.1777
 9880TIP3    H151055   0.193   5.445   3.165 -0.8273 -0.4718 -0.4623
 9880TIP3    H251056   0.310   5.350   3.175 -1.1117 -0.5960  2.5185
 9881TIP3   OH251057   3.413   5.055  15.207  0.0419  0.0030  0.0739
 9881TIP3    H151058   3.411   4.968  15.246  0.0319 -0.4633 -0.9404
 9881TIP3    H251059   3.326   5.067  15.170  0.7322 -0.5063 -1.7933
 9882TIP3   OH251060   1.821   0.917   0.497 -0.1557 -0.0957 -0.4029
 9882TIP3    H151061   1.871   0.842   0.529 -0.6468 -0.3508 -0.2379
 9882TIP3    H251062   1.877   0.992   0.517  0.9656 -0.5089 -1.8011
 9883TIP3   OH251063   2.668   4.567   1.136 -0.2424  0.1428 -0.0688
 9883TIP3    H151064   2.761   4.549   1.150  0.0669  1.7965  0.1480
 9883TIP3    H251065   2.664   4.608   1.050 -0.6235  1.0407  0.3679
 9884TIP3   OH251066   2.934   5.263   2.321  0.4496  0.0843  0.0199
 9884TIP3    H151067   2.868   5.200   2.292  2.2489 -1.2194 -1.4966
 9884TIP3    H251068   2.985   5.215   2.387  1.1558  0.3056 -0.3524
 9885TIP3   OH251069   0.102   4.158  13.769 -0.0497 -0.4131 -0.0599
 9885TIP3    H151070   0.169   4.101  13.806 -1.6807 -3.4395 -1.4579
 9885TIP3    H251071   0.149   4.238  13.746  2.3299 -1.0508  2.0938
 9886TIP3   OH251072   3.515   5.797  12.239 -0.0819 -0.4802  0.2434
 9886TIP3    H151073   3.457   5.721  12.243 -1.0669  0.2835  1.0524
 9886TIP3    H251074   3.601   5.764  12.265 -1.1942 -0.7086  4.3146
 9887TIP3   OH251075   0.303   5.700  12.629  0.7225 -0.1700 -0.2349
 9887TIP3    H151076   0.269   5.782  12.663  0.6493  0.3547 -1.5253
 9887TIP3    H251077   0.241   5.675  12.560  1.1381 -0.9224 -0.3480
 9888TIP3   OH251078   4.554   4.516   4.942 -0.6672 -0.2493 -0.1556
 9888TIP3    H151079   4.508   4.573   5.004  1.7342  0.2032  1.3360
 9888TIP3    H251080   4.578   4.439   4.993 -1.5301 -1.4210 -1.4593
 9889TIP3   OH251081   3.031   1.936   1.188 -0.5909  0.2106 -0.4594
 9889TIP3    H151082   3.126   1.921   1.181 -0.3634  1.7268 -0.9366
 9889TIP3    H251083   2.997   1.855   1.227  1.1347  0.2761  1.3691
 9890TIP3   OH251084   2.084   2.569  17.212  0.4093 -0.0326  0.3395
 9890TIP3    H151085   2.145   2.603  17.146 -0.1902 -0.1437 -0.2852
 9890TIP3    H251086   2.058   2.483  17.179  0.1135 -0.0949  0.7233
 9891TIP3   OH251087   0.177   6.204   1.591 -0.0923  0.6419  0.1881
 9891TIP3    H151088   0.235   6.146   1.542 -1.0020 -0.6349  0.5935
 9891TIP3    H251089   0.089   6.180   1.562 -0.6514 -0.0582  2.3101
 9892TIP3   OH251090   4.795   2.469  15.272  1.0481  0.3059  0.0961
 9892TIP3    H151091   4.853   2.544  15.282 -0.1370  1.3924 -0.8718
 9892TIP3    H251092   4.711   2.498  15.309  0.2971 -0.1778 -1.1715
 9893TIP3   OH251093   1.971   0.119  12.343 -0.0813  0.0222  0.0304
 9893TIP3    H151094   2.053   0.091  12.384  0.2181  0.6361 -0.1361
 9893TIP3    H251095   1.992   0.204  12.304 -1.0614  0.6494  0.8334
 9894TIP3   OH251096   0.075   1.063  12.302 -0.1198  0.2545  0.2912
 9894TIP3    H151097   0.156   1.099  12.266  0.6074 -1.9693 -0.4595
 9894TIP3    H251098   0.082   1.077  12.396  0.2678  1.6905  0.0752
 9895TIP3   OH251099   2.119   4.056  16.102  0.0066  0.1948 -0.3708
 9895TIP3    H151100   2.182   4.054  16.030  2.0929 -1.6144  1.3483
 9895TIP3    H251101   2.158   4.117  16.165 -1.7842  1.7471 -0.6979
 9896TIP3   OH251102   5.359   4.529  16.551 -0.0475 -0.0656  0.0637
 9896TIP3    H151103   5.372   4.599  16.487 -2.5556  0.1406 -0.3188
 9896TIP3    H251104   5.437   4.474  16.542  0.4309  0.8410 -2.0190
 9897TIP3   OH251105   2.326   5.324  14.760  0.6717  0.0734  0.3521
 9897TIP3    H151106   2.255   5.381  14.792  1.4528  0.0426  2.2435
 9897TIP3    H251107   2.309   5.239  14.800  0.5250 -0.5752 -1.0271
 9898TIP3   OH251108   3.638   2.452   3.424 -0.5415 -0.6631 -0.1742
 9898TIP3    H151109   3.717   2.417   3.382 -1.0773 -1.9014 -0.1858
 9898TIP3    H251110   3.623   2.394   3.499 -0.6731  0.3972  0.6350
 9899TIP3   OH251111   1.957   2.662  12.069 -0.2267  0.2638 -0.0900
 9899TIP3    H151112   2.045   2.694  12.089 -0.5842  0.0080  2.1891
 9899TIP3    H251113   1.966   2.567  12.065 -0.2520  0.2862 -0.6553
 9900TIP3   OH251114   5.251   3.833   6.603 -0.1382 -0.1049 -0.0327
 9900TIP3    H151115   5.330   3.819   6.654  0.6059  0.0643 -1.0958
 9900TIP3    H251116   5.181   3.793   6.654  0.3092  1.3962  1.8602
 9901TIP3   OH251117   5.883   1.113  10.195  0.8920 -0.1696  0.4592
 9901TIP3    H151118   5.958   1.136  10.141  0.2497  1.3404  0.1478
 9901TIP3    H251119   5.813   1.170  10.164 -0.0218 -0.6121  1.6223
 9902TIP3   OH251120   6.045   5.376  15.956  0.1079  0.0332 -0.1541
 9902TIP3    H151121   5.959   5.417  15.957  0.4321  0.7248 -0.2443
 9902TIP3    H251122   6.034   5.296  16.008 -0.8756 -0.5069 -1.1594
 9903TIP3   OH251123   1.065   5.864  16.015  0.4403  0.0913  0.1976
 9903TIP3    H151124   1.005   5.924  15.969 -1.9283 -0.2808  2.5794
 9903TIP3    H251125   1.131   5.922  16.053  0.7799  0.6800 -1.2176
 9904TIP3   OH251126   2.832   0.095   2.874 -0.3755  0.6021  0.3425
 9904TIP3    H151127   2.859   0.006   2.849  0.5015  1.3833 -1.7187
 9904TIP3    H251128   2.736   0.094   2.867 -0.3098  0.0847 -0.7785
 9905TIP3   OH251129   1.181   3.365   1.142 -0.1819  0.4127 -0.4179
 9905TIP3    H151130   1.194   3.459   1.131 -0.3315  0.4654 -0.1645
 9905TIP3    H251131   1.099   3.346   1.096 -0.0267  0.3630 -0.6744
 9906TIP3   OH251132   2.326   1.697   4.012 -0.0592  0.4403  0.1667
 9906TIP3    H151133   2.254   1.658   4.062  0.7112  1.6659  2.4029
 9906TIP3    H251134   2.308   1.675   3.921 -1.4330 -2.1559  0.9874
 9907TIP3   OH251135   1.507   1.847   0.008  0.3739 -0.2924 -0.0159
 9907TIP3    H151136   1.439   1.781   0.019  0.3378 -0.1340  0.7546
 9907TIP3    H251137   1.513   1.859  -0.087 -1.8311  0.8568 -0.0918
 9908TIP3   OH251138   6.524   1.809  15.369  0.1796  0.0490 -0.5252
 9908TIP3    H151139   6.539   1.896  15.405  1.3544 -0.6040  0.6495
 9908TIP3    H251140   6.564   1.810  15.283 -0.7462  0.9735 -0.9643
 9909TIP3   OH251141   5.249   5.548   2.742 -0.1809 -0.1447  0.4423
 9909TIP3    H151142   5.231   5.518   2.831  1.1059  0.2248  0.8413
 9909TIP3    H251143   5.287   5.635   2.753  0.3014 -0.2311 -0.4463
 9910TIP3   OH251144   3.883   5.165   2.984  0.4754  1.0788 -0.7627
 9910TIP3    H151145   3.797   5.195   3.011  0.7733  2.2394 -1.0326
 9910TIP3    H251146   3.866   5.092   2.925 -0.2151 -0.6412  1.4547
 9911TIP3   OH251147   5.593   1.436   1.650  0.1607 -0.6632 -0.1484
 9911TIP3    H151148   5.660   1.467   1.590  1.9201 -1.8886  1.1085
 9911TIP3    H251149   5.638   1.376   1.709 -2.1541 -2.0120  0.3954
 9912TIP3   OH251150   1.595   1.474   1.580  0.0766  0.2292  0.0663
 9912TIP3    H151151   1.584   1.419   1.503  0.5769 -0.4249  0.4553
 9912TIP3    H251152   1.580   1.563   1.548  0.2208 -0.0412 -0.7713
 9913TIP3   OH251153   2.171   6.269  13.087 -0.9311 -0.7539 -0.1452
 9913TIP3    H151154   2.235   6.335  13.115 -0.4670 -1.0186 -0.5793
 9913TIP3    H251155   2.183   6.197  13.148 -0.9249 -0.7387 -0.1281
 9914TIP3   OH251156   0.631   1.026   5.649  0.6835 -0.0037 -0.2606
 9914TIP3    H151157   0.624   0.933   5.666  0.2155 -0.0464 -0.6862
 9914TIP3    H251158   0.595   1.038   5.561 -1.0764  0.8500  0.5386
 9915TIP3   OH251159   5.558   3.225  12.312 -0.0188  0.3401 -0.0479
 9915TIP3    H151160   5.471   3.195  12.289  0.0347  0.2418 -0.1182
 9915TIP3    H251161   5.616   3.190  12.244  0.4246 -1.5456  1.2225
 9916TIP3   OH251162   6.166   2.342  17.186  0.6776  0.0490  0.3520
 9916TIP3    H151163   6.156   2.248  17.198  1.3575 -0.2334 -0.9763
 9916TIP3    H251164   6.173   2.353  17.091  2.2566  1.2380  0.5489
 9917TIP3   OH251165   6.773   2.415  17.193 -0.0078 -0.1359 -0.6064
 9917TIP3    H151166   6.703   2.477  17.171 -0.0089 -0.4300 -1.4596
 9917TIP3    H251167   6.790   2.368  17.111 -0.2362 -1.5012  0.1037
 9918TIP3   OH251168   3.153   0.163   5.886 -0.5628  0.0899 -0.0227
 9918TIP3    H151169   3.059   0.171   5.899 -0.5948  0.4601 -0.4777
 9918TIP3    H251170   3.191   0.191   5.969 -0.8426  0.2925  0.0388
 9919TIP3   OH251171   2.688   6.234  12.460 -0.0831  0.4639 -0.2363
 9919TIP3    H151172   2.738   6.303  12.505 -1.4500  1.0002  0.5022
 9919TIP3    H251173   2.608   6.277  12.430  0.5362  0.0057 -2.8256
 9920TIP3   OH251174   0.124   4.220   5.660  0.2867 -0.2486 -0.2179
 9920TIP3    H151175   0.187   4.149   5.661 -0.5613 -1.0481 -1.2293
 9920TIP3    H251176   0.114   4.245   5.752  1.9026 -0.2263 -0.0231
 9921TIP3   OH251177   0.400   4.978   5.754  0.1178  0.1166  0.5862
 9921TIP3    H151178   0.412   4.894   5.798 -1.7618  0.1673  1.3181
 9921TIP3    H251179   0.488   5.007   5.733  0.8598 -1.6546  1.0400
 9922TIP3   OH251180   5.629   3.833   2.586 -0.1200  0.9562  0.3822
 9922TIP3    H151181   5.714   3.815   2.546 -0.8421  1.1135 -1.3448
 9922TIP3    H251182   5.631   3.786   2.669  1.4336  0.5093  0.1331
 9923TIP3   OH251183   4.944   2.502  11.245 -0.8880  0.2692 -0.2331
 9923TIP3    H151184   4.953   2.551  11.164  0.5721 -1.9372 -1.5233
 9923TIP3    H251185   4.999   2.549  11.308 -1.7467  1.7970 -0.5819
 9924TIP3   OH251186   1.556   2.630  14.151 -0.1721 -0.7157 -0.6605
 9924TIP3    H151187   1.582   2.664  14.236 -1.5412  0.9977 -0.8850
 9924TIP3    H251188   1.607   2.549  14.141  0.6376 -0.5094  1.3874
 9925TIP3   OH251189   0.773   5.242  16.146  0.4502  0.5346 -0.8567
 9925TIP3    H151190   0.701   5.267  16.090  0.9814 -0.0629 -1.8319
 9925TIP3    H251191   0.823   5.178  16.095  0.6751 -0.4092  0.4725
 9926TIP3   OH251192   1.668   6.173   5.334 -0.2456  0.3866 -0.3706
 9926TIP3    H151193   1.751   6.184   5.380  1.2591 -1.7924 -2.2939
 9926TIP3    H251194   1.606   6.230   5.380  2.6179  3.2144  0.2839
 9927TIP3   OH251195   2.186   1.152   5.979  0.4642 -0.2887 -0.2069
 9927TIP3    H151196   2.247   1.182   6.047 -1.0142  2.1259  0.1512
 9927TIP3    H251197   2.100   1.152   6.021 -0.8544  3.3237 -2.4253
 9928TIP3   OH251198   4.933   5.780  13.897 -0.1736  0.4168  0.3194
 9928TIP3    H151199   4.871   5.760  13.827 -0.3415  0.7850  0.3577
 9928TIP3    H251200   4.878   5.797  13.974 -0.0689  1.3115  0.2112
 9929TIP3   OH251201   2.453   0.216  16.999 -0.5430 -0.0179 -0.1995
 9929TIP3    H151202   2.365   0.254  17.002 -0.1985  0.8073 -0.0216
 9929TIP3    H251203   2.462   0.182  16.910 -0.2478  1.9363 -0.9709
 9930TIP3   OH251204   6.358   0.751   3.485 -0.1823 -0.4289 -0.0454
 9930TIP3    H151205   6.452   0.737   3.490 -0.3448 -1.6345 -0.1560
 9930TIP3    H251206   6.340   0.818   3.550  0.9635  0.9714 -1.1114
 9931TIP3   OH251207   5.840   6.411  15.724 -0.0832  0.3899  0.4852
 9931TIP3    H151208   5.758   6.364  15.714  0.0916  0.0496  0.6313
 9931TIP3    H251209   5.904   6.343  15.747  0.7835  0.2530 -2.0221
 9932TIP3   OH251210   0.521   1.412   2.199  0.1321  1.0915 -0.3200
 9932TIP3    H151211   0.582   1.393   2.128  0.3616  1.4962 -0.2304
 9932TIP3    H251212   0.461   1.477   2.164  0.0321  1.0334 -0.2581
 9933TIP3   OH251213   3.397   1.289   2.980  0.5290 -0.6570  0.1150
 9933TIP3    H151214   3.375   1.223   3.045 -0.7306  0.8190  1.2772
 9933TIP3    H251215   3.461   1.345   3.022 -0.3168  0.3294  0.1402
 9934TIP3   OH251216   6.344   2.761   5.392 -0.2063  0.5033 -0.1569
 9934TIP3    H151217   6.397   2.797   5.464  1.5376 -0.3166 -0.9782
 9934TIP3    H251218   6.305   2.681   5.429  2.1615 -0.9339 -0.5907
 9935TIP3   OH251219   0.101   0.798  15.290  0.4933 -0.4253  0.0324
 9935TIP3    H151220   0.035   0.790  15.221  0.2694 -0.2956  0.2268
 9935TIP3    H251221   0.093   0.717  15.340 -0.0795 -0.0773  0.5346
 9936TIP3   OH251222   5.855   5.658  16.871 -0.5588 -0.5658 -0.4663
 9936TIP3    H151223   5.792   5.604  16.823 -0.6575 -1.1817  0.3266
 9936TIP3    H251224   5.805   5.735  16.898 -0.8747 -0.8774 -0.1564
 9937TIP3   OH251225   3.101   2.854  11.263 -0.1049 -0.0439  0.2601
 9937TIP3    H151226   3.192   2.855  11.292  0.4928 -0.1097 -1.4803
 9937TIP3    H251227   3.088   2.938  11.220 -1.1425  0.2960  1.1813
 9938TIP3   OH251228   0.432   5.214  14.345 -0.0079  0.0167  0.3933
 9938TIP3    H151229   0.420   5.153  14.272  1.6419 -0.3608  0.4057
 9938TIP3    H251230   0.349   5.263  14.349  0.3113  0.9824 -2.5874
 9939TIP3   OH251231   4.454   4.673   2.475 -0.0184  0.1076 -0.2937
 9939TIP3    H151232   4.432   4.644   2.387  1.9076  0.1623 -0.8320
 9939TIP3    H251233   4.429   4.765   2.477  0.2491  0.1963 -0.9074
 9940TIP3   OH251234   5.531   0.932  13.614  0.2534 -0.3918 -0.6502
 9940TIP3    H151235   5.577   0.873  13.674 -1.4764 -0.9372  0.1950
 9940TIP3    H251236   5.549   0.897  13.527  0.3337 -1.3766 -0.2447
 9941TIP3   OH251237   0.687   4.966  12.735 -0.0625  0.1035  0.1449
 9941TIP3    H151238   0.757   4.966  12.670 -1.3400  1.9029 -1.3519
 9941TIP3    H251239   0.621   5.026  12.699 -1.8057 -0.5299  2.0881
 9942TIP3   OH251240   1.376   3.575   3.787  0.1488  0.3882 -0.4184
 9942TIP3    H151241   1.446   3.620   3.739  0.6656 -0.6871 -0.7004
 9942TIP3    H251242   1.315   3.547   3.719  0.2262 -0.0067 -0.3300
 9943TIP3   OH251243   5.324   1.572  11.708  0.2355 -0.6446  0.3082
 9943TIP3    H151244   5.408   1.609  11.679  0.6285 -0.4501  1.6183
 9943TIP3    H251245   5.268   1.576  11.631  1.6376 -1.4268 -0.8067
 9944TIP3   OH251246   4.579   5.182   3.565  0.4008 -0.6667 -0.1287
 9944TIP3    H151247   4.603   5.089   3.560  3.2302  0.0379 -2.9066
 9944TIP3    H251248   4.533   5.199   3.483 -0.4311  0.3273  0.5319
 9945TIP3   OH251249   1.783   0.903   3.503 -0.4594 -0.0454 -0.4170
 9945TIP3    H151250   1.779   0.821   3.551 -0.8182  1.4300  2.2817
 9945TIP3    H251251   1.875   0.929   3.507 -0.1451 -0.7716 -2.1886
 9946TIP3   OH251252   3.164   0.161  15.366  0.0715 -0.5935 -0.1563
 9946TIP3    H151253   3.087   0.168  15.309 -0.4437  0.2397  0.6188
 9946TIP3    H251254   3.188   0.068  15.361 -0.7535 -0.7958 -0.7113
 9947TIP3   OH251255   0.805   1.684  16.668  0.3701 -0.3053 -0.2782
 9947TIP3    H151256   0.860   1.639  16.731 -0.1592 -0.3450  0.1584
 9947TIP3    H251257   0.722   1.636  16.669 -0.0910  0.4776 -0.0446
 9948TIP3   OH251258   6.148   0.851  12.251 -0.2616 -0.7756  0.8984
 9948TIP3    H151259   6.205   0.921  12.219  0.3595 -0.9281  1.6484
 9948TIP3    H251260   6.188   0.771  12.216 -1.1314 -0.7602 -0.1986
 9949TIP3   OH251261   2.132   0.980  13.993 -0.2559 -0.4599  0.1033
 9949TIP3    H151262   2.085   1.035  14.056  0.0862 -1.1484  0.9625
 9949TIP3    H251263   2.114   1.022  13.908  0.6044  1.4181  0.8011
 9950TIP3   OH251264   3.736   5.894   3.660  0.1022  0.1497 -0.7156
 9950TIP3    H151265   3.801   5.824   3.652 -1.2218 -1.0823 -1.1661
 9950TIP3    H251266   3.685   5.871   3.738 -1.6365 -0.5693 -1.9895
 9951TIP3   OH251267   1.917   6.748  16.647  0.3496  0.6537  0.6022
 9951TIP3    H151268   1.839   6.740  16.592  0.6920  0.9150  0.0746
 9951TIP3    H251269   1.919   6.667  16.698 -0.2580  0.6414  0.6066
 9952TIP3   OH251270   4.083   1.201  12.479  0.2206  0.5491  0.2351
 9952TIP3    H151271   4.177   1.209  12.460  0.1764 -0.1967 -0.3567
 9952TIP3    H251272   4.066   1.106  12.476 -0.5866  0.6880  0.1425
 9953TIP3   OH251273   6.257   6.342   1.845 -0.4123  0.2115 -0.3880
 9953TIP3    H151274   6.250   6.266   1.786 -0.0223 -1.5831  1.7547
 9953TIP3    H251275   6.322   6.315   1.910 -2.9123  0.8751  2.5710
 9954TIP3   OH251276   5.284   1.042   3.936  0.1960 -0.3949 -0.2933
 9954TIP3    H151277   5.351   1.107   3.956 -0.9910  0.6238  0.4730
 9954TIP3    H251278   5.333   0.960   3.926  1.3411 -0.1493  2.4934
 9955TIP3   OH251279   0.736   4.032   4.714  0.3843 -0.3440 -0.3049
 9955TIP3    H151280   0.761   3.947   4.677 -0.2051 -0.6096 -0.0985
 9955TIP3    H251281   0.648   4.048   4.681 -0.2763 -0.7204  1.1982
 9956TIP3   OH251282   3.800   2.013  13.715  0.1846  0.6800  0.3375
 9956TIP3    H151283   3.707   2.033  13.711  0.5398  2.5064  0.1762
 9956TIP3    H251284   3.830   2.019  13.624  0.6029  0.8933  0.4874
 9957TIP3   OH251285   1.989   3.352  12.751  0.3660 -0.2256  0.0352
 9957TIP3    H151286   1.976   3.437  12.708 -3.3942 -1.0168 -0.8133
 9957TIP3    H251287   2.029   3.373  12.835 -0.3712  2.3929 -0.1852
 9958TIP3   OH251288   4.871   1.524  11.498 -0.5569  0.6686  0.1798
 9958TIP3    H151289   4.842   1.610  11.467  0.7513  1.2493  0.5275
 9958TIP3    H251290   4.797   1.466  11.479 -1.6967  1.9737  0.4672
 9959TIP3   OH251291   2.489   2.030   1.435 -0.1058 -0.6140 -0.0497
 9959TIP3    H151292   2.517   2.117   1.406 -1.2608 -1.0493 -2.8124
 9959TIP3    H251293   2.559   1.999   1.492 -0.1541  2.4985  1.9157
 9960TIP3   OH251294   0.428   6.465  12.460 -0.0185  0.0646  0.4218
 9960TIP3    H151295   0.483   6.513  12.398 -1.1298 -0.2487 -0.8475
 9960TIP3    H251296   0.425   6.521  12.538  0.5545  0.9560 -0.1812
 9961TIP3   OH251297   4.772   2.800  11.501  0.4219  0.0641  0.6308
 9961TIP3    H151298   4.852   2.840  11.535  0.9760  0.0299 -0.5839
 9961TIP3    H251299   4.770   2.713  11.543  0.8218  0.2084  0.9571
 9962TIP3   OH251300   0.241   1.339   0.731  0.0778 -0.5436 -0.2063
 9962TIP3    H151301   0.240   1.336   0.636  3.2377  0.5773 -0.3876
 9962TIP3    H251302   0.153   1.311   0.757 -0.6015 -1.7470 -3.3812
 9963TIP3   OH251303   5.443   6.402  17.080  0.1609 -0.3890  0.2958
 9963TIP3    H151304   5.375   6.402  17.012  0.4222 -0.2155  0.0286
 9963TIP3    H251305   5.413   6.338  17.144 -1.0575  0.8150  0.9932
 9964TIP3   OH251306   5.535   4.758  13.850  0.5193 -0.1376 -0.0554
 9964TIP3    H151307   5.626   4.767  13.881  0.6220 -0.8163 -0.1488
 9964TIP3    H251308   5.537   4.683  13.791  0.0935  0.4530 -0.8399
 9965TIP3   OH251309   6.308   0.555  12.463 -0.0265 -0.5394 -0.0582
 9965TIP3    H151310   6.305   0.472  12.416  1.1097  0.9408 -2.9700
 9965TIP3    H251311   6.239   0.607  12.424  1.4967  1.0311 -0.7776
 9966TIP3   OH251312   6.526   2.972   2.853 -0.6397 -0.0653  0.2886
 9966TIP3    H151313   6.435   2.959   2.878 -0.0836  0.4371  2.9640
 9966TIP3    H251314   6.569   2.888   2.872 -0.3992 -0.0841 -0.3006
 9967TIP3   OH251315   0.039   1.039   0.449 -0.1662  0.0436  0.1334
 9967TIP3    H151316  -0.037   1.097   0.444  0.1246  0.3684 -0.4944
 9967TIP3    H251317   0.113   1.094   0.426  0.0898 -0.6251 -0.6565
 9968TIP3   OH251318   4.740   0.997  11.106  0.0386 -0.5315 -0.4345
 9968TIP3    H151319   4.680   1.067  11.132  0.7510  0.2738 -0.8961
 9968TIP3    H251320   4.692   0.948  11.040 -0.8211 -1.0641  0.5450
 9969TIP3   OH251321   2.984   5.045   0.489  0.1547 -0.4646  0.1028
 9969TIP3    H151322   3.018   5.097   0.416  2.6364 -1.8267  0.1764
 9969TIP3    H251323   2.895   5.024   0.463 -0.1720  1.8488 -0.9548
 9970TIP3   OH251324   1.942   3.788   4.124 -0.2303  0.1478 -0.2957
 9970TIP3    H151325   1.878   3.757   4.061 -0.9896 -0.0898  0.5710
 9970TIP3    H251326   1.891   3.834   4.190  0.3144 -1.0624  1.0409
 9971TIP3   OH251327   5.677   3.984   2.260 -0.6129 -0.4632  0.0521
 9971TIP3    H151328   5.691   3.902   2.212  0.5841  0.4746 -1.2663
 9971TIP3    H251329   5.640   4.044   2.195 -0.3004  0.4097  0.6625
 9972TIP3   OH251330   3.308   2.880  16.428  0.1366 -0.1265  0.2176
 9972TIP3    H151331   3.244   2.918  16.368  1.7768  1.0859 -0.8814
 9972TIP3    H251332   3.346   2.955  16.473  0.9433 -0.7866  0.6659
 9973TIP3   OH251333   2.976   0.298  14.603  0.2635 -0.3301 -0.6479
 9973TIP3    H151334   3.010   0.258  14.683 -0.0349 -0.2491 -0.4791
 9973TIP3    H251335   2.946   0.225  14.550 -0.0813 -0.3430 -0.4335
 9974TIP3   OH251336   0.425   3.804   0.871 -0.4650 -0.2748 -0.2575
 9974TIP3    H151337   0.507   3.829   0.914  0.5896 -1.1756 -1.6489
 9974TIP3    H251338   0.382   3.746   0.933  0.9010 -1.3501 -0.2646
 9975TIP3   OH251339   4.260   0.280  15.721 -0.4111 -0.2220 -0.4617
 9975TIP3    H151340   4.245   0.301  15.813 -0.5343 -0.6137 -0.3905
 9975TIP3    H251341   4.211   0.198  15.707 -0.6211 -0.0139 -0.9447
 9976TIP3   OH251342   5.404   6.641   4.009  0.9288 -0.3412  0.0611
 9976TIP3    H151343   5.402   6.732   4.038  0.5863 -0.3275  0.0042
 9976TIP3    H251344   5.382   6.591   4.088 -1.9577 -0.1998 -0.5405
 9977TIP3   OH251345   6.580   0.551   2.654  0.1259  0.0616  0.4104
 9977TIP3    H151346   6.616   0.463   2.656  1.1820  0.4765  0.5663
 9977TIP3    H251347   6.594   0.585   2.742 -0.8052  0.1852  0.5143
 9978TIP3   OH251348   1.479   0.297  11.221 -0.3191  0.0459  0.2874
 9978TIP3    H151349   1.436   0.277  11.138  0.7765  0.4559 -0.3981
 9978TIP3    H251350   1.417   0.352  11.268 -0.6794  0.3623 -0.5439
 9979TIP3   OH251351   5.522   3.451  13.239 -0.6899  0.1478 -0.1285
 9979TIP3    H151352   5.452   3.446  13.174 -0.3154 -0.6252 -0.4932
 9979TIP3    H251353   5.479   3.438  13.323 -0.8898 -1.1931 -0.4165
 9980TIP3   OH251354   1.622   3.578   4.162 -0.7173 -0.0591 -0.4094
 9980TIP3    H151355   1.644   3.633   4.087  0.4731 -0.2722 -0.2359
 9980TIP3    H251356   1.545   3.528   4.134  0.5345 -1.1871 -2.0326
 9981TIP3   OH251357   2.449   3.494   1.342  0.9912  0.0864 -0.1249
 9981TIP3    H151358   2.528   3.518   1.295 -0.4327  1.0179 -2.2116
 9981TIP3    H251359   2.417   3.415   1.297  0.3690  0.1440  0.2027
 9982TIP3   OH251360   0.505   2.280  15.182 -0.6379  0.0691 -0.2087
 9982TIP3    H151361   0.462   2.262  15.265 -1.2767 -0.3339 -0.6173
 9982TIP3    H251362   0.436   2.268  15.116 -0.6281  2.2086 -0.6579
 9983TIP3   OH251363   1.733   5.686  13.723 -0.8489  0.1506  1.0087
 9983TIP3    H151364   1.774   5.770  13.703 -1.7195  0.8121  1.8829
 9983TIP3    H251365   1.662   5.678  13.659 -0.0867 -0.4610  0.2180
 9984TIP3   OH251366   4.508   3.244   3.893  0.0193 -0.6148  0.4301
 9984TIP3    H151367   4.504   3.339   3.906  1.0389 -0.3713 -0.8415
 9984TIP3    H251368   4.565   3.213   3.964  0.1111 -0.2067  0.5370
 9985TIP3   OH251369   2.162   2.726  14.810  0.2175  0.2143 -0.0598
 9985TIP3    H151370   2.146   2.738  14.717 -1.3808  2.1164  0.4181
 9985TIP3    H251371   2.249   2.762  14.824  0.2952  0.2965 -0.7244
 9986TIP3   OH251372   2.386   6.262  14.303 -0.5441  0.6330  0.3569
 9986TIP3    H151373   2.343   6.295  14.381 -0.1246  0.6659  0.5742
 9986TIP3    H251374   2.417   6.175  14.327  0.6603  1.1160  0.6275
 9987TIP3   OH251375   1.142   6.546  12.425  0.3288  0.5148 -0.1724
 9987TIP3    H151376   1.158   6.550  12.520  0.1379 -0.7242 -0.0719
 9987TIP3    H251377   1.205   6.482  12.394  0.4965  1.0343 -0.9252
 9988TIP3   OH251378   3.730   1.560   4.624 -0.6103  0.1386 -0.9765
 9988TIP3    H151379   3.701   1.615   4.696  1.5774  1.3676 -0.9376
 9988TIP3    H251380   3.720   1.615   4.546 -0.5378 -0.2452 -1.2600
 9989TIP3   OH251381   0.303   0.569   1.433 -0.2715 -0.0765 -0.3025
 9989TIP3    H151382   0.307   0.503   1.364  0.1283  0.5748 -0.9190
 9989TIP3    H251383   0.261   0.524   1.506  1.0333 -1.3901 -0.2981
 9990TIP3   OH251384   2.571   5.111   6.900 -0.2381 -0.5556 -0.2691
 9990TIP3    H151385   2.501   5.068   6.949 -1.9436 -0.1804 -2.2531
 9990TIP3    H251386   2.532   5.191   6.866  1.4934  0.2213 -0.5277
 9991TIP3   OH251387   4.549   3.846  12.854  0.3476 -0.4641  0.2757
 9991TIP3    H151388   4.587   3.760  12.835  1.9076 -0.1168  1.5705
 9991TIP3    H251389   4.599   3.907  12.800 -1.5546 -0.4316 -1.5665
 9992TIP3   OH251390   0.124   0.399   4.380 -0.1209 -0.3588 -0.7003
 9992TIP3    H151391   0.112   0.304   4.370  0.9444 -0.5531 -0.3433
 9992TIP3    H251392   0.210   0.415   4.341 -0.3542  0.4899 -0.8698
 9993TIP3   OH251393   0.037   0.619   1.835 -0.2853 -0.2188 -0.4317
 9993TIP3    H151394   0.081   0.644   1.916 -0.9996 -0.4829  0.0437
 9993TIP3    H251395  -0.036   0.563   1.863 -1.1501  0.4976 -1.1553
 9994TIP3   OH251396   6.603   5.113   2.622  0.5370 -0.0042 -0.4338
 9994TIP3    H151397   6.607   5.126   2.716 -0.9039  0.6539 -0.4353
 9994TIP3    H251398   6.534   5.048   2.610  0.1081  0.5649 -1.0839
 9995TIP3   OH251399   6.582   4.467   0.763  0.4255 -0.2994 -0.2762
 9995TIP3    H151400   6.637   4.451   0.839  0.8688  1.9361 -0.0702
 9995TIP3    H251401   6.642   4.461   0.688  1.0336  2.1311 -0.0526
 9996TIP3   OH251402   2.828   4.642   4.992  0.1903 -0.2243 -0.2544
 9996TIP3    H151403   2.780   4.561   5.010 -1.1326  0.4293 -0.7888
 9996TIP3    H251404   2.772   4.691   4.932  1.1807  0.9045 -0.2924
 9997TIP3   OH251405   3.901   2.967  10.847 -0.2911 -0.0546  0.1297
 9997TIP3    H151406   3.919   2.988  10.939  0.1413 -1.0739  0.2860
 9997TIP3    H251407   3.964   3.019  10.798  0.8060 -0.9620  0.5156
 9998TIP3   OH251408   1.497   2.727   4.069 -0.0437 -0.5509  0.7242
 9998TIP3    H151409   1.546   2.764   3.996 -1.2938 -0.9816 -0.3802
 9998TIP3    H251410   1.556   2.661   4.107  0.2552 -1.0513 -0.5626
 9999TIP3   OH251411   6.520   3.813  13.897  0.2619 -0.4183 -0.5392
 9999TIP3    H151412   6.483   3.782  13.814 -0.0496  1.2638 -1.0672
 9999TIP3    H251413   6.444   3.824  13.954  0.2367  0.4042 -0.7215
10000TIP3   OH251414   6.482   6.043  11.839 -0.1313 -0.3041 -0.5282
10000TIP3    H151415   6.415   6.077  11.898 -0.2463 -1.3941  0.0073
10000TIP3    H251416   6.458   5.951  11.828  1.5002 -0.8157 -0.0154
10001TIP3   OH251417   5.152   3.607  10.361  0.2181  0.3493 -0.2688
10001TIP3    H151418   5.116   3.689  10.396  0.5496  0.0779  0.7456
10001TIP3    H251419   5.137   3.612  10.267 -1.2283  0.8653 -0.0361
10002TIP3   OH251420   5.278   4.457  12.951  0.3244  0.1184  0.1004
10002TIP3    H151421   5.315   4.439  12.864 -0.5885  0.6476 -0.4225
10002TIP3    H251422   5.351   4.488  13.003  0.5184  1.7965 -1.0934
10003TIP3   OH251423   6.322   0.599  10.515  0.4524 -0.1959  0.0315
10003TIP3    H151424   6.320   0.506  10.540  0.5251 -0.7386 -1.8470
10003TIP3    H251425   6.289   0.601  10.426 -1.2057  1.8394  0.6038
10004TIP3   OH251426   1.148   1.463  14.355 -0.2324  0.4365 -0.3919
10004TIP3    H151427   1.197   1.428  14.280 -0.7781  0.6227 -0.8502
10004TIP3    H251428   1.087   1.525  14.316 -1.3241 -0.3111  0.0666
10005TIP3   OH251429   6.677   1.158  12.120 -0.2724  0.4602  0.0143
10005TIP3    H151430   6.601   1.100  12.123 -1.6405  2.1611  0.1943
10005TIP3    H251431   6.740   1.119  12.180 -0.4203 -1.7282 -1.1603
10006TIP3   OH251432   2.744   5.931  12.752  0.1690 -0.0199  0.1172
10006TIP3    H151433   2.822   5.876  12.743 -0.4342 -0.5868 -2.7378
10006TIP3    H251434   2.686   5.902  12.682 -1.5437  2.1223  0.5321
10007TIP3   OH251435   1.669   0.211  14.413  0.1283  0.0002 -0.3567
10007TIP3    H151436   1.667   0.258  14.496 -1.1784  1.2679 -1.0539
10007TIP3    H251437   1.690   0.120  14.437  0.1461  0.4107  1.3039
10008TIP3   OH251438   3.681   3.601  11.071  0.4326  0.0026 -0.9040
10008TIP3    H151439   3.648   3.683  11.035  0.7799  0.2463 -0.6683
10008TIP3    H251440   3.617   3.577  11.138  0.2016 -0.0519 -1.1372
10009TIP3   OH251441   0.126   6.106  14.566  0.4905 -0.5045  0.0147
10009TIP3    H151442   0.150   6.150  14.648 -0.1708 -1.8804  1.0004
10009TIP3    H251443   0.040   6.141  14.544  2.0178  2.3682 -2.0075
10010TIP3   OH251444   5.783   1.268  17.099  0.0408  0.8812  0.0170
10010TIP3    H151445   5.692   1.298  17.102 -0.8073 -1.5513  1.9005
10010TIP3    H251446   5.817   1.287  17.187  0.1834 -1.3597  0.5055
10011TIP3   OH251447   6.465   1.711   1.482  0.1990  0.1893  0.4493
10011TIP3    H151448   6.402   1.660   1.431  0.2597 -0.1072  0.6677
10011TIP3    H251449   6.548   1.699   1.436  0.1143  0.5196  0.2037
10012TIP3   OH251450   4.952   0.733  12.414  0.4060 -0.2431 -0.4409
10012TIP3    H151451   5.000   0.723  12.332  1.4895 -0.9050  0.2430
10012TIP3    H251452   4.998   0.804  12.459  0.7441 -0.8450  0.1958
10013TIP3   OH251453   0.384   3.222   0.440 -0.2001 -0.0365 -0.3817
10013TIP3    H151454   0.309   3.183   0.484 -1.1871  2.0551 -0.0652
10013TIP3    H251455   0.381   3.187   0.351 -0.7171 -1.0254  0.0091
10014TIP3   OH251456   3.559   5.363  16.661  0.0577  0.2849 -0.1493
10014TIP3    H151457   3.580   5.379  16.569  0.9585 -0.0132 -0.0076
10014TIP3    H251458   3.640   5.328  16.698  0.3121  2.2121  1.2237
10015TIP3   OH251459   6.321   5.869  13.960  0.0255 -0.5958  0.0188
10015TIP3    H151460   6.400   5.838  14.003  1.2500  0.8176 -1.1206
10015TIP3    H251461   6.288   5.792  13.912  0.9787 -1.0718  0.0991
10016TIP3   OH251462   5.803   1.960   1.026 -0.2821  0.0769 -0.0584
10016TIP3    H151463   5.731   1.897   1.023  0.0332 -0.3284  0.4884
10016TIP3    H251464   5.802   1.992   1.116 -0.8851  1.3959 -0.5253
10017TIP3   OH251465   0.098   2.578   2.995 -0.1328 -0.6650  0.2097
10017TIP3    H151466   0.188   2.548   2.980 -0.5869 -1.7876 -0.3472
10017TIP3    H251467   0.068   2.528   3.070 -0.7928 -1.4063 -0.5301
10018TIP3   OH251468   6.139   5.568   3.221 -0.0633  0.1375 -0.0345
10018TIP3    H151469   6.060   5.580   3.169 -0.5441  1.0588  0.8641
10018TIP3    H251470   6.108   5.553   3.310  0.7498 -0.8921  0.0975
10019TIP3   OH251471   3.163   2.340  16.889 -0.3879  0.5753 -0.1014
10019TIP3    H151472   3.199   2.253  16.905  0.9481  1.2322  0.5966
10019TIP3    H251473   3.101   2.327  16.817  0.1181 -0.8690 -0.3119
10020TIP3   OH251474   6.368   3.075   6.370 -0.4076 -0.1997  0.3712
10020TIP3    H151475   6.382   3.137   6.441 -0.6154 -0.7966  0.9463
10020TIP3    H251476   6.450   3.027   6.363  0.4118  1.2927 -1.2709
10021TIP3   OH251477   0.620   1.850   2.438  0.4020 -0.0482  0.2717
10021TIP3    H151478   0.697   1.822   2.388  0.8751 -1.7727  1.8421
10021TIP3    H251479   0.640   1.941   2.463  2.0965 -0.5459  0.8959
10022TIP3   OH251480   5.933   1.985   5.659 -0.2683  0.1907 -0.0322
10022TIP3    H151481   6.029   1.985   5.655 -0.2811  0.2565 -0.4274
10022TIP3    H251482   5.911   2.073   5.690 -0.1362 -0.5702  2.4163
10023TIP3   OH251483   0.477   1.718  10.339  0.1721  0.1772  0.3909
10023TIP3    H151484   0.388   1.746  10.318  0.4464  0.4159 -0.4786
10023TIP3    H251485   0.530   1.749  10.266  0.6084 -1.9570 -0.2900
10024TIP3   OH251486   3.574   2.859   5.039 -0.1776  0.3520 -0.0833
10024TIP3    H151487   3.624   2.854   5.121 -1.2825  1.2966  0.6698
10024TIP3    H251488   3.631   2.816   4.975  1.4023  0.9566  0.8383
10025TIP3   OH251489   1.003   0.694  10.587 -0.6943 -0.3071  0.2313
10025TIP3    H151490   0.970   0.780  10.561  0.4705  0.4626  1.1834
10025TIP3    H251491   0.947   0.668  10.660  0.4152  0.7729  1.5275
10026TIP3   OH251492   5.598   5.263  15.371  0.0879  0.3790  0.2008
10026TIP3    H151493   5.672   5.237  15.425 -0.2123 -0.0569  0.4062
10026TIP3    H251494   5.615   5.355  15.349  0.0142  0.6925  1.3798
10027TIP3   OH251495   4.035   0.428  11.467  0.3603 -0.2976  0.1519
10027TIP3    H151496   4.091   0.430  11.389 -0.2135 -0.3480 -0.2601
10027TIP3    H251497   4.007   0.337  11.474 -0.8178 -0.0045 -0.4673
10028TIP3   OH251498   6.715   0.558  13.850  0.2347 -0.1369  0.2867
10028TIP3    H151499   6.777   0.544  13.921  2.4079  0.8288 -1.3096
10028TIP3    H251500   6.730   0.485  13.790 -2.4311 -1.6350  1.2392
10029TIP3   OH251501   0.010   1.644  14.407 -0.0493 -0.6841  0.5078
10029TIP3    H151502  -0.056   1.605  14.351 -0.8035 -2.2048  2.3571
10029TIP3    H251503  -0.015   1.737  14.412  0.7416 -0.2099 -2.5129
10030TIP3   OH251504   4.926   6.686   2.979 -0.4813  0.3611  0.4624
10030TIP3    H151505   4.850   6.655   2.930 -0.5174  0.8698  0.1773
10030TIP3    H251506   4.891   6.710   3.065 -1.1505  2.7584 -0.3662
10031TIP3   OH251507   6.205   3.894   6.671  0.3940  0.3608 -0.3431
10031TIP3    H151508   6.179   3.912   6.762  1.6173 -1.4751  0.4153
10031TIP3    H251509   6.124   3.869   6.628  0.1913 -1.6129  1.0313
10032TIP3   OH251510   5.349   0.648  12.784  0.2945 -0.2829  0.7906
10032TIP3    H151511   5.377   0.654  12.692 -0.3342  1.0285  0.6661
10032TIP3    H251512   5.428   0.672  12.834  0.2194  0.5138  0.5375
10033TIP3   OH251513   5.077   1.069   4.707 -0.0744  0.2104 -0.3017
10033TIP3    H151514   5.131   1.122   4.648  4.4610 -1.4313  1.9095
10033TIP3    H251515   5.014   1.131   4.743  0.0996  2.3049 -3.2113
10034TIP3   OH251516   4.708   3.965  14.392 -0.1325  0.2783  0.0287
10034TIP3    H151517   4.702   3.957  14.487 -0.4723 -0.8056 -0.0604
10034TIP3    H251518   4.762   3.890  14.365 -3.0866 -1.7162 -0.9075
10035TIP3   OH251519   5.481   5.251  17.057  0.0152  0.5933  0.0574
10035TIP3    H151520   5.559   5.202  17.033 -0.4639 -0.8728  1.2853
10035TIP3    H251521   5.452   5.210  17.138 -1.0507  2.2457  0.5486
10036TIP3   OH251522   6.697   4.842   0.833 -0.4260 -0.9868 -0.1315
10036TIP3    H151523   6.754   4.770   0.862 -0.6722 -0.1385  2.7719
10036TIP3    H251524   6.689   4.829   0.739  4.1241 -1.4897 -0.7114
10037TIP3   OH251525   5.359   2.885  15.449 -0.0903 -0.1762  0.1081
10037TIP3    H151526   5.351   2.798  15.487  1.5565 -0.6335 -0.5267
10037TIP3    H251527   5.278   2.930  15.475 -1.2033 -2.0382  0.0141
10038TIP3   OH251528   6.630   6.618  17.197 -0.8651 -0.2727 -0.0902
10038TIP3    H151529   6.556   6.655  17.148 -0.4099  0.6990 -0.0711
10038TIP3    H251530   6.640   6.530  17.163  0.3646  0.8096 -2.8622
10039TIP3   OH251531   0.066   2.575   0.743  0.2735 -0.1342 -0.0910
10039TIP3    H151532   0.023   2.573   0.658  0.9333 -2.5097 -0.4499
10039TIP3    H251533   0.027   2.649   0.788 -0.7072  0.6626 -2.1374
10040TIP3   OH251534   5.466   6.642   2.581 -0.2344  0.2052  0.4946
10040TIP3    H151535   5.371   6.642   2.594 -0.3082 -0.7885  0.0057
10040TIP3    H251536   5.499   6.579   2.645 -0.0460 -0.4352 -0.2130
10041TIP3   OH251537   1.115   6.743  11.095 -0.5578 -0.5652  0.0381
10041TIP3    H151538   1.021   6.743  11.109 -1.5954 -0.1098 -5.0909
10041TIP3    H251539   1.135   6.653  11.068  0.2088 -0.3730 -0.0693
10042TIP3   OH251540   2.309   4.390  12.522  0.0315  0.3587  0.6407
10042TIP3    H151541   2.369   4.319  12.500 -0.7443 -0.2489  0.4541
10042TIP3    H251542   2.223   4.348  12.528 -0.4084  1.2483  0.7148
10043TIP3   OH251543   5.365   6.342   0.998  0.4163  0.1576 -0.2118
10043TIP3    H151544   5.384   6.341   1.092 -0.2871 -2.5063 -0.0049
10043TIP3    H251545   5.270   6.330   0.993  0.6390 -1.5038 -1.2135
10044TIP3   OH251546   1.710   5.357  14.815  0.0689  0.7625  0.1026
10044TIP3    H151547   1.649   5.297  14.773 -0.7980  0.6519  1.4567
10044TIP3    H251548   1.658   5.403  14.881  1.1391  1.6491  0.3629
10045TIP3   OH251549   3.537   4.515  16.029  0.4219 -0.5899  0.0934
10045TIP3    H151550   3.461   4.565  16.058  0.8721  0.0397  0.2277
10045TIP3    H251551   3.600   4.523  16.101  0.9034 -0.4421 -0.3371
10046TIP3   OH251552   5.539   0.109   2.479 -0.0895 -0.5224 -0.3308
10046TIP3    H151553   5.496   0.033   2.519 -1.9840  0.5460 -0.2133
10046TIP3    H251554   5.543   0.087   2.386  0.6512 -1.3246 -0.1249
10047TIP3   OH251555   3.928   3.636   2.270 -0.2341 -0.0531 -0.3838
10047TIP3    H151556   3.951   3.551   2.231 -3.0783 -1.1414  0.0703
10047TIP3    H251557   3.832   3.636   2.273 -0.2836  2.5522  1.0769
10048TIP3   OH251558   0.239   4.818  13.333 -0.2037  0.1200  0.5055
10048TIP3    H151559   0.322   4.824  13.287 -0.5020 -3.1405 -0.6948
10048TIP3    H251560   0.174   4.851  13.271 -0.0397  1.1569  0.8526
10049TIP3   OH251561   5.948   1.767   4.053  0.2371 -0.3238  0.3774
10049TIP3    H151562   5.976   1.758   3.961  0.4948 -1.8661  0.5740
10049TIP3    H251563   5.948   1.677   4.086  2.1350  0.3520  2.4814
10050TIP3   OH251564   0.087   3.231  15.523 -0.0645  0.1118 -0.2118
10050TIP3    H151565   0.031   3.174  15.471 -1.6035  0.7532  0.6735
10050TIP3    H251566   0.136   3.172  15.580 -1.8478 -0.3716  0.9019
10051TIP3   OH251567   4.506   6.482   2.045  0.5765  0.3153  0.2905
10051TIP3    H151568   4.496   6.454   1.954  0.4479 -0.7948  0.6377
10051TIP3    H251569   4.417   6.480   2.081  0.8916 -1.4706  1.0596
10052TIP3   OH251570   2.296   5.415   6.026 -0.3698  0.0137  0.1573
10052TIP3    H151571   2.297   5.445   5.935  2.0220 -0.9048 -0.2103
10052TIP3    H251572   2.350   5.479   6.073 -1.1031  0.1598  0.8061
10053TIP3   OH251573   3.761   3.951   4.599 -0.0932  0.2436  0.5906
10053TIP3    H151574   3.710   3.896   4.659  0.3718  1.0199  1.7244
10053TIP3    H251575   3.720   4.037   4.604 -0.1090  0.2941 -0.2953
10054TIP3   OH251576   5.735   4.265   0.388  0.3582 -0.1436  0.0286
10054TIP3    H151577   5.702   4.196   0.331  0.5565 -1.9228  1.9428
10054TIP3    H251578   5.662   4.326   0.396 -0.8051 -1.5229  0.3714
10055TIP3   OH251579   0.631   4.276  12.330  0.4301 -0.3250 -0.3061
10055TIP3    H151580   0.579   4.278  12.410  0.4250  0.7205 -0.3295
10055TIP3    H251581   0.717   4.245  12.358  0.3534 -0.2036  0.0610
10056TIP3   OH251582   5.829   2.411  12.979  0.1815  0.1523 -0.2035
10056TIP3    H151583   5.749   2.411  13.032  0.4800  0.9529  0.2729
10056TIP3    H251584   5.875   2.491  13.006  1.5365 -0.7089  0.1391
10057TIP3   OH251585   5.257   6.249   3.785  0.1688 -0.1803  0.7212
10057TIP3    H151586   5.187   6.312   3.764  0.7288 -0.3651 -2.0359
10057TIP3    H251587   5.211   6.173   3.819 -0.8111  0.4255  0.8014
10058TIP3   OH251588   6.081   2.469   5.697 -0.2415 -0.0099  0.0818
10058TIP3    H151589   6.156   2.463   5.756  0.0503  0.2457 -0.2601
10058TIP3    H251590   6.005   2.477   5.755  0.0875  0.7413  0.4116
10059TIP3   OH251591   5.695   2.909   5.139 -0.1087 -0.1700 -0.1783
10059TIP3    H151592   5.631   2.886   5.206 -0.4931 -1.0219 -0.8128
10059TIP3    H251593   5.757   2.836   5.139 -1.6722 -1.6606 -2.6331
10060TIP3   OH251594   2.089   2.102  11.701 -0.0475 -0.5260 -0.1520
10060TIP3    H151595   2.151   2.090  11.629 -0.1659 -0.4163 -0.2728
10060TIP3    H251596   2.133   2.165  11.759 -0.1269 -0.2987 -0.3339
10061TIP3   OH251597   4.263   5.767  11.426  0.1512 -0.0309 -0.5153
10061TIP3    H151598   4.283   5.733  11.339 -1.1706 -1.5561 -0.2680
10061TIP3    H251599   4.170   5.747  11.439  0.4794 -0.4663  1.5005
10062TIP3   OH251600   1.426   4.490  16.348  0.0481  0.4055  0.0132
10062TIP3    H151601   1.360   4.489  16.279 -0.1520 -1.0675  0.1876
10062TIP3    H251602   1.384   4.534  16.422  0.2750  2.0203 -0.7673
10063TIP3   OH251603   6.241   1.240   0.092  0.2736  0.1784  0.3672
10063TIP3    H151604   6.257   1.166   0.151  1.9189 -1.4541 -1.9968
10063TIP3    H251605   6.316   1.298   0.106 -0.7026  1.1903  1.7576
10064TIP3   OH251606   5.927   2.789   0.260 -0.4938 -0.4706 -0.2906
10064TIP3    H151607   5.990   2.726   0.224  0.1698  0.4246 -0.7339
10064TIP3    H251608   5.973   2.828   0.334  0.0871  1.2295 -1.4794
10065TIP3   OH251609   2.497   4.338  15.463 -0.0098  0.1209  0.5183
10065TIP3    H151610   2.493   4.381  15.377 -0.2196  1.9221  1.3673
10065TIP3    H251611   2.590   4.329  15.482  0.0457  0.4087  0.3965
10066TIP3   OH251612   0.037   3.921  14.757  0.2557  0.3755 -0.5214
10066TIP3    H151613   0.078   4.006  14.773  0.0690  0.3322  0.1964
10066TIP3    H251614   0.068   3.865  14.827 -0.5428  0.1742 -0.3209
10067TIP3   OH251615   3.119   5.002  11.593 -0.1225  0.0184  0.0730
10067TIP3    H151616   3.130   5.096  11.607 -1.2081  0.2754 -0.7144
10067TIP3    H251617   3.176   4.982  11.518 -1.7631  0.5622 -1.3800
10068TIP3   OH251618   4.106   1.689  13.977  0.0376 -0.1550  0.3388
10068TIP3    H151619   4.040   1.739  13.929  2.8505  2.9833 -0.6281
10068TIP3    H251620   4.070   1.683  14.066 -1.7772  0.9816 -0.2396
10069TIP3   OH251621   4.708   2.065  10.937 -0.2087 -0.0487  0.3217
10069TIP3    H151622   4.761   1.999  10.892  2.7589  2.3669 -0.1124
10069TIP3    H251623   4.624   2.064  10.891  0.3062 -2.3893 -0.6896
10070TIP3   OH251624   3.459   6.647  11.595 -0.0384 -0.7710 -0.2641
10070TIP3    H151625   3.480   6.574  11.655 -0.6965 -1.0596 -0.3767
10070TIP3    H251626   3.364   6.655  11.600  0.1551  1.7488  1.6966
10071TIP3   OH251627   1.350   2.847  12.049 -0.0364 -0.4053  0.3414
10071TIP3    H151628   1.425   2.838  12.108 -0.3422 -1.8507  0.5618
10071TIP3    H251629   1.277   2.870  12.107  0.2562  1.2627  0.0930
10072TIP3   OH251630   5.780   0.631   5.376  0.0488 -0.2181 -0.4313
10072TIP3    H151631   5.766   0.726   5.383  0.8605 -0.1694  0.9464
10072TIP3    H251632   5.853   0.614   5.435 -1.1710 -1.9611  0.6592
10073TIP3   OH251633   5.834   1.139  15.218 -0.2233 -0.5077  0.1912
10073TIP3    H151634   5.830   1.074  15.148  1.0263  0.3209 -0.7078
10073TIP3    H251635   5.918   1.122  15.261 -0.3540 -0.1249  0.6037
10074TIP3   OH251636   2.225   3.834  12.888  0.6136  0.1988 -0.4380
10074TIP3    H151637   2.156   3.874  12.942  1.2939  4.9990 -2.5705
10074TIP3    H251638   2.178   3.781  12.825 -1.0580  1.7932 -0.6245
10075TIP3   OH251639   2.319   4.144   1.232 -0.4747 -0.5914 -0.2091
10075TIP3    H151640   2.241   4.157   1.286 -0.3191 -0.8208  0.0720
10075TIP3    H251641   2.302   4.194   1.152 -0.0719  1.0118  0.6712
10076TIP3   OH251642   3.988   6.290   5.940  0.1746  0.4193  0.4023
10076TIP3    H151643   4.053   6.316   5.874 -1.3149  1.9809 -0.5343
10076TIP3    H251644   3.947   6.211   5.903 -0.0843  0.8060 -0.1415
10077TIP3   OH251645   3.000   0.460   5.597  0.1286  0.3399  0.6999
10077TIP3    H151646   3.044   0.441   5.514 -0.6531 -0.3176  0.4178
10077TIP3    H251647   3.023   0.550   5.616 -1.7187  1.4035 -1.5767
10078TIP3   OH251648   1.006   2.782  10.596  0.3857  0.0767 -0.6236
10078TIP3    H151649   1.032   2.874  10.599  1.0112 -0.0833  1.7294
10078TIP3    H251650   1.087   2.736  10.575  0.3073  0.0155 -0.7857
10079TIP3   OH251651   2.348   4.168   3.762 -0.0034  0.1413 -0.5374
10079TIP3    H151652   2.357   4.174   3.667  1.2430  2.9487 -0.3358
10079TIP3    H251653   2.311   4.252   3.788 -0.1907 -0.5208  1.4892
10080TIP3   OH251654   6.354   6.477   5.075 -0.0104  0.2122  0.1908
10080TIP3    H151655   6.284   6.465   5.012 -0.3333  0.4961  0.4877
10080TIP3    H251656   6.428   6.509   5.024 -0.2650  0.4261 -0.0431
10081TIP3   OH251657   1.665   1.862  15.080 -0.4637  0.0703 -0.1068
10081TIP3    H151658   1.599   1.831  15.019 -2.4332  0.0772  1.8858
10081TIP3    H251659   1.712   1.930  15.032 -2.3842  0.5687 -1.3879
10082TIP3   OH251660   2.119   2.317  13.965 -0.0634 -0.2991  0.0836
10082TIP3    H151661   2.060   2.352  14.031 -1.9727  1.5794 -2.4610
10082TIP3    H251662   2.205   2.354  13.988 -0.3468 -0.7931  2.1994
10083TIP3   OH251663   0.708   3.211   0.745 -0.1491 -0.0433  0.5089
10083TIP3    H151664   0.761   3.238   0.670  0.5462 -1.3504  0.5053
10083TIP3    H251665   0.686   3.294   0.789  0.8880  0.6208 -0.1661
10084TIP3   OH251666   4.020   6.349  16.186  0.2225  0.2037 -0.1825
10084TIP3    H151667   3.948   6.345  16.249 -0.9642  0.7732 -1.4432
10084TIP3    H251668   3.979   6.331  16.102  1.4627  1.0917 -1.0137
10085TIP3   OH251669   5.554   5.668   4.013  0.1228 -0.1519 -0.2614
10085TIP3    H151670   5.649   5.661   4.007  0.1353 -0.2953  0.1121
10085TIP3    H251671   5.535   5.669   4.107 -0.1890  0.5943 -0.3214
10086TIP3   OH251672   3.180   2.846   0.550 -0.4561  0.2647  0.2129
10086TIP3    H151673   3.270   2.825   0.524  0.6570  2.7347  1.6013
10086TIP3    H251674   3.148   2.904   0.480 -0.9553 -0.5092 -0.2150
10087TIP3   OH251675   5.731   0.007   4.585 -0.3666  0.0130  0.1310
10087TIP3    H151676   5.826  -0.001   4.589 -0.3008  0.4412 -0.4520
10087TIP3    H251677   5.715   0.091   4.543 -0.9997 -0.8127 -1.3433
10088TIP3   OH251678   3.709   6.640  10.568  0.1081  0.0518  0.1491
10088TIP3    H151679   3.774   6.710  10.572 -0.1615  0.2717  0.8120
10088TIP3    H251680   3.631   6.682  10.531 -0.0514  0.1070  0.5409
10089TIP3   OH251681   0.948   1.092  13.663  0.0213  0.0583  0.0585
10089TIP3    H151682   0.943   1.017  13.605  1.3838 -0.0013 -0.0163
10089TIP3    H251683   0.921   1.166  13.609  0.0543 -0.1770 -0.2859
10090TIP3   OH251684   3.640   4.875  10.918 -0.6325 -0.2208  0.5836
10090TIP3    H151685   3.624   4.824  10.839 -0.3670  0.0909  0.3259
10090TIP3    H251686   3.660   4.963  10.886  0.5930 -0.3550  0.9481
10091TIP3   OH251687   4.025   0.378  16.229 -0.0424 -0.5374 -0.3696
10091TIP3    H151688   4.024   0.461  16.180  1.5226  0.4839  1.1911
10091TIP3    H251689   3.981   0.399  16.312  0.0488 -1.3711 -0.0996
10092TIP3   OH251690   2.661   2.593   5.023  0.3379  0.4448 -0.5819
10092TIP3    H151691   2.637   2.504   4.998 -1.4855  0.1506  1.8853
10092TIP3    H251692   2.745   2.583   5.069  0.5299  0.1230 -0.9950
10093TIP3   OH251693   0.374   2.817  12.706  0.3506  0.1792  0.1841
10093TIP3    H151694   0.326   2.870  12.642 -1.9760 -2.2416 -0.2521
10093TIP3    H251695   0.423   2.754  12.654 -0.0449 -0.5767  0.6866
10094TIP3   OH251696   5.757   2.452   3.603 -0.0912  0.0610  0.2293
10094TIP3    H151697   5.688   2.491   3.656 -2.0468  0.7707 -2.6198
10094TIP3    H251698   5.820   2.524   3.588 -0.9618  0.6736 -0.6234
10095TIP3   OH251699   5.203   5.485   3.718  0.1145 -1.0446 -0.1635
10095TIP3    H151700   5.231   5.425   3.787 -2.7010  1.1049  3.1573
10095TIP3    H251701   5.116   5.454   3.692  0.2608 -0.5953 -1.2617
10096TIP3   OH251702   4.968   3.211  13.439  0.2983  0.0750 -0.0902
10096TIP3    H151703   4.962   3.135  13.381 -2.0095  0.1578 -0.0349
10096TIP3    H251704   4.962   3.286  13.381 -1.0517  0.1628  0.1350
10097TIP3   OH251705   4.320   2.633  15.261  0.5224  0.6246 -0.4194
10097TIP3    H151706   4.279   2.719  15.250 -0.5254  0.2730  0.6006
10097TIP3    H251707   4.248   2.570  15.254  1.0424 -0.0814  0.3022
10098TIP3   OH251708   0.370   2.199  17.257 -0.5664  0.1502 -0.3149
10098TIP3    H151709   0.349   2.145  17.333  1.2030 -1.6400 -1.0259
10098TIP3    H251710   0.334   2.285  17.279  0.1921 -0.1846  2.6935
10099TIP3   OH251711   4.137   3.332   2.550  0.0074 -0.4097 -0.1654
10099TIP3    H151712   4.051   3.316   2.589 -0.1038 -1.1199 -0.6919
10099TIP3    H251713   4.198   3.287   2.607  0.0449  0.1382  0.2383
10100TIP3   OH251714   3.399   3.919  13.489  0.4840  0.0588 -0.3203
10100TIP3    H151715   3.356   3.876  13.416 -0.0860 -0.0525  0.0724
10100TIP3    H251716   3.477   3.960  13.451  0.1378  0.0945 -1.0056
10101TIP3   OH251717   0.119   6.426  15.585  0.0673  0.4360 -0.3997
10101TIP3    H151718   0.093   6.384  15.503  3.1073 -0.1515 -1.1707
10101TIP3    H251719   0.128   6.354  15.647  0.2188  0.5865 -0.2477
10102TIP3   OH251720   2.587   6.362   3.427  0.1806  0.2481  0.0357
10102TIP3    H151721   2.621   6.309   3.355 -0.0851 -0.5084  0.4502
10102TIP3    H251722   2.615   6.315   3.506 -1.2632 -0.0531  0.3976
10103TIP3   OH251723   1.480   4.230   1.294  0.3839  0.0403  0.5197
10103TIP3    H151724   1.523   4.239   1.379 -0.0855  0.8652  0.6798
10103TIP3    H251725   1.453   4.319   1.271  0.1479 -0.2379 -0.3008
10104TIP3   OH251726   6.064   3.605  14.703 -0.1425  0.4964  0.2356
10104TIP3    H151727   6.031   3.648  14.624 -2.0946  1.3636  1.4571
10104TIP3    H251728   6.101   3.676  14.755 -0.5561  0.2356  0.9018
10105TIP3   OH251729   2.457   1.864   5.183  0.1531 -0.1436 -0.5218
10105TIP3    H151730   2.544   1.904   5.181  1.1445 -2.1093  0.0572
10105TIP3    H251731   2.405   1.922   5.238  1.1966  0.8620 -0.5505
10106TIP3   OH251732   6.289   1.010  12.054  0.2997  0.0805  0.2137
10106TIP3    H151733   6.232   0.965  11.991  1.0759 -0.7090  0.0503
10106TIP3    H251734   6.316   1.090  12.009 -1.0872  0.7361  0.4985
10107TIP3   OH251735   0.008   3.114   3.232 -0.2165 -0.2185  0.3640
10107TIP3    H151736   0.071   3.172   3.274  0.1531  0.8412 -1.5369
10107TIP3    H251737   0.054   3.030   3.226  0.0626 -0.1396  1.1815
10108TIP3   OH251738   5.251   6.763   5.205 -0.3445 -0.3426 -0.0283
10108TIP3    H151739   5.245   6.728   5.294 -0.0305 -0.4421 -0.0432
10108TIP3    H251740   5.331   6.816   5.206 -1.2543  1.0681  0.2280
10109TIP3   OH251741   1.227   1.783   0.709  0.0500 -0.1392  0.2064
10109TIP3    H151742   1.226   1.687   0.705 -0.5961 -0.1112 -0.6894
10109TIP3    H251743   1.260   1.803   0.796  0.6530 -1.1728  0.2409
10110TIP3   OH251744   6.719   3.442   3.849  0.3209  0.7214  0.4846
10110TIP3    H151745   6.684   3.355   3.869 -1.8832  1.2132 -0.9174
10110TIP3    H251746   6.770   3.465   3.927 -0.8214 -0.9199  1.8078
10111TIP3   OH251747   2.918   0.760   2.884  0.7276 -0.2792 -0.7203
10111TIP3    H151748   2.827   0.744   2.907  0.3554  1.0160 -1.2247
10111TIP3    H251749   2.967   0.691   2.930 -0.5778 -1.5849 -1.2209
10112TIP3   OH251750   3.826   2.542   2.098 -0.3747  0.3766  0.0261
10112TIP3    H151751   3.843   2.460   2.051  1.2232 -1.0494  2.8205
10112TIP3    H251752   3.734   2.537   2.122 -0.8620  0.4976 -1.6869
10113TIP3   OH251753   5.273   2.467   4.427 -0.7276  0.3639  0.0442
10113TIP3    H151754   5.232   2.452   4.342 -0.0144 -0.1490 -0.2131
10113TIP3    H251755   5.349   2.521   4.408 -0.1807 -0.3122  0.2565
10114TIP3   OH251756   4.193   4.532  16.064  0.2021  0.2744 -0.8141
10114TIP3    H151757   4.106   4.560  16.036  0.6319  1.4785 -1.0015
10114TIP3    H251758   4.185   4.521  16.159 -0.2741 -0.0934 -0.8947
10115TIP3   OH251759   4.272   3.438   0.900  0.3794 -0.1888 -0.8231
10115TIP3    H151760   4.304   3.379   0.831 -0.0904 -3.0349  1.2079
10115TIP3    H251761   4.177   3.441   0.886  0.3640 -0.2087 -0.7188
10116TIP3   OH251762   4.051   2.709  16.396  0.0607 -0.1326 -0.1755
10116TIP3    H151763   4.124   2.649  16.380 -1.3343 -1.7053 -1.1302
10116TIP3    H251764   4.020   2.733  16.308  0.5965  2.0883  0.1811
10117TIP3   OH251765   6.439   1.528  11.792 -0.4244  0.4633  0.2396
10117TIP3    H151766   6.363   1.503  11.739  0.3611 -0.3803 -0.5298
10117TIP3    H251767   6.430   1.477  11.873 -1.9084  2.1471  1.2011
10118TIP3   OH251768   5.278   5.793   4.744 -0.3387 -0.9231  0.2172
10118TIP3    H151769   5.309   5.791   4.654  1.2575  1.9227  0.5722
10118TIP3    H251770   5.243   5.882   4.756 -1.8031 -1.6513  2.0454
10119TIP3   OH251771   4.886   3.492   3.281 -0.2811 -0.3934  0.2863
10119TIP3    H151772   4.860   3.403   3.307  1.1497 -1.0546 -0.4395
10119TIP3    H251773   4.968   3.480   3.235 -0.4459  1.2535 -0.4919
10120TIP3   OH251774   1.228   1.917  14.769  0.0870  0.0531  0.1214
10120TIP3    H151775   1.185   1.925  14.684  0.8100 -0.6120 -0.3236
10120TIP3    H251776   1.291   1.846  14.757  1.1488  0.8552  0.8249
10121TIP3   OH251777   5.595   3.576   0.084  0.2712  0.4054  0.3123
10121TIP3    H151778   5.516   3.626   0.062 -0.1411 -0.7370 -0.9935
10121TIP3    H251779   5.651   3.585   0.007  1.0908  0.5424  0.9087
10122TIP3   OH251780   6.686   4.798   3.634  0.1344  0.1810 -0.0070
10122TIP3    H151781   6.664   4.802   3.727 -0.2584 -0.3278 -0.0733
10122TIP3    H251782   6.652   4.880   3.597  0.1027  0.2863  0.2562
10123TIP3   OH251783   3.023   0.667  12.369 -0.4416 -0.0268  0.3628
10123TIP3    H151784   3.117   0.650  12.379  0.0104  2.9107  2.1929
10123TIP3    H251785   2.982   0.613  12.436  0.0421 -0.5068  0.2797
10124TIP3   OH251786   1.360   2.309   3.406 -0.2691  0.4052  0.1505
10124TIP3    H151787   1.315   2.300   3.321 -2.5525 -0.1905  1.3382
10124TIP3    H251788   1.341   2.227   3.451  1.5710  0.3970  0.9971
10125TIP3   OH251789   2.815   4.215   5.602  0.6444  0.0010 -0.0545
10125TIP3    H151790   2.866   4.153   5.655  0.0068 -0.5097 -0.0335
10125TIP3    H251791   2.737   4.167   5.577  0.5995  0.4810 -0.8686
10126TIP3   OH251792   2.125   5.069   2.758  0.4136 -0.1698 -0.2944
10126TIP3    H151793   2.211   5.046   2.794  1.1504  0.4239 -1.6158
10126TIP3    H251794   2.096   5.142   2.811  1.2156  0.3069 -0.4879
10127TIP3   OH251795   2.667   2.265  16.317 -0.1771 -0.2731  0.1463
10127TIP3    H151796   2.589   2.239  16.268 -1.2900  1.6804  0.7677
10127TIP3    H251797   2.737   2.265  16.252 -0.9241 -0.9702 -0.6813
10128TIP3   OH251798   3.814   4.629   0.890  0.0996  0.3690  0.2158
10128TIP3    H151799   3.822   4.717   0.927  0.1373  1.0969 -1.4362
10128TIP3    H251800   3.732   4.631   0.841  1.2083  0.2447 -1.7262
10129TIP3   OH251801   1.530   0.355   5.657  0.0650  0.2452  0.2637
10129TIP3    H151802   1.461   0.395   5.711 -1.0001 -1.4311  0.2242
10129TIP3    H251803   1.485   0.328   5.577  1.0492  0.2030 -0.2945
10130TIP3   OH251804   3.876   0.398  15.606 -0.2219 -0.4468  0.1833
10130TIP3    H151805   3.878   0.341  15.683 -0.1721  0.4698  0.8727
10130TIP3    H251806   3.958   0.447  15.611  0.2077 -1.0016 -0.9523
10131TIP3   OH251807   3.152   6.317  14.135 -0.1413 -0.1315  0.4334
10131TIP3    H151808   3.228   6.262  14.112  0.3971  1.4430 -1.9883
10131TIP3    H251809   3.148   6.314  14.230  4.0207  0.9815  0.8379
10132TIP3   OH251810   2.725   2.807  15.699  0.4413  0.3102  0.1872
10132TIP3    H151811   2.796   2.749  15.673  0.0899  0.4529 -1.1674
10132TIP3    H251812   2.652   2.749  15.718 -0.0038  0.2719 -1.4612
10133TIP3   OH251813   6.774   5.793   3.622  0.2150 -0.5765  0.0401
10133TIP3    H151814   6.755   5.699   3.615 -0.1381 -0.6532  1.7518
10133TIP3    H251815   6.867   5.799   3.600  0.1723 -1.2784 -0.3875
10134TIP3   OH251816   4.731   2.622  13.760 -0.1683 -0.0875 -0.1704
10134TIP3    H151817   4.826   2.633  13.759 -0.2625  0.7934 -0.0523
10134TIP3    H251818   4.716   2.557  13.829  0.2865  0.4042  0.4005
10135TIP3   OH251819   1.986   3.684  16.523 -0.9342 -0.3812 -0.3941
10135TIP3    H151820   2.056   3.620  16.524 -1.1808 -0.7282 -2.1075
10135TIP3    H251821   1.997   3.731  16.440 -2.0529  0.3215 -0.1750
10136TIP3   OH251822   5.531   2.905   1.277  0.1094  0.0188 -0.2054
10136TIP3    H151823   5.475   2.918   1.353 -0.3409 -2.1338 -0.1056
10136TIP3    H251824   5.608   2.862   1.311  1.3002  1.7528 -0.5582
10137TIP3   OH251825   0.191   4.997  11.721 -1.0169  0.2137 -0.6805
10137TIP3    H151826   0.254   5.029  11.786 -1.0986 -2.7855  1.0434
10137TIP3    H251827   0.111   5.048  11.738 -0.5663  0.5560  0.5158
10138TIP3   OH251828   2.005   5.492   6.696 -0.1110  0.1189 -0.6250
10138TIP3    H151829   2.068   5.459   6.761  0.1689 -1.9221 -1.8323
10138TIP3    H251830   2.024   5.441   6.617 -1.7781  1.1029 -1.7188
10139TIP3   OH251831   6.023   6.215  15.853 -0.0578  0.0829 -0.1869
10139TIP3    H151832   5.953   6.151  15.871  2.0608 -1.9415  1.4403
10139TIP3    H251833   6.047   6.198  15.762 -2.5451  1.8503 -1.3112
10140TIP3   OH251834   3.914   6.121   4.951  0.5833  0.1019 -0.2399
10140TIP3    H151835   3.893   6.065   4.876  1.5774 -0.8832  0.1864
10140TIP3    H251836   3.939   6.205   4.913 -1.0166  0.3249 -0.8923
10141TIP3   OH251837   5.748   0.693   0.300  0.1632 -0.6100 -0.1762
10141TIP3    H151838   5.675   0.687   0.362 -0.3147  1.4450 -0.4856
10141TIP3    H251839   5.724   0.632   0.230 -2.4842  1.6021 -1.3922
10142TIP3   OH251840   2.167   5.748   5.793  0.1044 -0.7811 -0.0836
10142TIP3    H151841   2.073   5.747   5.779  0.3608 -1.8192 -2.0766
10142TIP3    H251842   2.179   5.804   5.869 -2.2548 -2.1998  1.4441
10143TIP3   OH251843   2.411   0.238  12.197  0.3748 -0.0482  0.6997
10143TIP3    H151844   2.351   0.234  12.272 -1.4506 -1.6494 -0.7380
10143TIP3    H251845   2.482   0.177  12.220  0.0692 -0.1868  1.3018
10144TIP3   OH251846   0.029   0.637  14.539  0.2434  0.5951 -0.3164
10144TIP3    H151847   0.122   0.640  14.517  0.7960 -3.1555  0.8207
10144TIP3    H251848  -0.015   0.619  14.455  0.8616 -0.2468 -0.4736
10145TIP3   OH251849   6.452   2.478  16.044  0.0433  0.1066  0.6307
10145TIP3    H151850   6.532   2.478  16.096  1.2607 -0.8416 -1.1301
10145TIP3    H251851   6.482   2.495  15.955 -2.0355  2.3482  0.2875
10146TIP3   OH251852   1.677   0.232  14.729 -0.3931 -0.5829  0.2811
10146TIP3    H151853   1.715   0.318  14.718 -1.8652  0.2050  0.9925
10146TIP3    H251854   1.712   0.200  14.813 -0.8128 -0.1276  0.6330
10147TIP3   OH251855   3.271   4.151  17.110  0.2274  0.1441  0.0316
10147TIP3    H151856   3.264   4.243  17.134 -0.2100  0.3538 -0.8539
10147TIP3    H251857   3.196   4.109  17.152 -0.1510  0.3825 -0.4012
10148TIP3   OH251858   3.924   5.421   4.753  0.5167 -0.0962 -0.4051
10148TIP3    H151859   3.998   5.461   4.707  2.1203  0.3359  2.3209
10148TIP3    H251860   3.909   5.339   4.706  1.3766  0.7229 -2.2493
10149TIP3   OH251861   4.488   4.086  13.453  0.1179  0.3444  0.2694
10149TIP3    H151862   4.436   4.124  13.383 -1.1467 -0.5602  0.6760
10149TIP3    H251863   4.443   4.004  13.475  0.7693  0.3433  1.7653
10150TIP3   OH251864   2.752   5.177   4.611  0.2647 -0.0816 -0.1246
10150TIP3    H151865   2.827   5.118   4.625  1.6570  1.8017  0.7273
10150TIP3    H251866   2.735   5.171   4.517 -2.1686 -4.6632  0.3200
10151TIP3   OH251867   3.794   3.001  16.277 -0.2609  0.0240  0.7250
10151TIP3    H151868   3.735   3.071  16.304  0.4584  0.5882  0.8578
10151TIP3    H251869   3.810   2.951  16.357 -1.1892 -0.6243  0.5237
10152TIP3   OH251870   6.170   1.301  16.944  0.3408  0.1909 -0.4770
10152TIP3    H151871   6.175   1.226  17.003 -0.2768  0.5189  0.0032
10152TIP3    H251872   6.144   1.265  16.860  0.7539 -0.2227 -0.4286
10153TIP3   OH251873   1.904   2.260   2.664  0.0514  0.1032  0.5584
10153TIP3    H151874   1.986   2.224   2.631 -0.0653  0.2942  0.0500
10153TIP3    H251875   1.836   2.220   2.610  0.0032  1.9886 -0.8733
10154TIP3   OH251876   0.929   5.922  15.687 -0.2386 -0.4311  0.5204
10154TIP3    H151877   1.021   5.944  15.698 -0.0250  1.2621 -3.1612
10154TIP3    H251878   0.882   5.999  15.718 -0.4521 -1.0564  1.8326
10155TIP3   OH251879   5.380   2.127  14.269  0.0146  0.1519  0.3921
10155TIP3    H151880   5.308   2.067  14.251  3.1413 -3.1442 -2.5597
10155TIP3    H251881   5.376   2.192  14.199 -0.4245  0.4239  0.6598
10156TIP3   OH251882   4.921   3.202  12.651  0.0450  0.2844  0.1700
10156TIP3    H151883   5.002   3.172  12.693  1.2674  2.0272 -0.7775
10156TIP3    H251884   4.921   3.157  12.566  0.2417  0.5644  0.0176
10157TIP3   OH251885   1.582   4.615  13.281 -0.2372 -0.7396 -0.9939
10157TIP3    H151886   1.496   4.625  13.241  0.1098 -0.6717 -1.7296
10157TIP3    H251887   1.639   4.676  13.233  0.9483 -3.0116 -2.6795
10158TIP3   OH251888   5.948   4.314   3.290 -0.4001 -0.1801 -0.0578
10158TIP3    H151889   5.973   4.285   3.377 -0.3594  0.6590  0.2158
10158TIP3    H251890   5.867   4.266   3.271 -1.5484  1.1282  1.2887
10159TIP3   OH251891   5.739   2.799  12.223  0.5298 -0.0038  0.0813
10159TIP3    H151892   5.759   2.890  12.202  0.9370 -0.0269  0.3350
10159TIP3    H251893   5.735   2.755  12.138  0.6867  0.1845 -0.0255
10160TIP3   OH251894   2.323   6.703  17.011 -0.3330 -0.1554 -0.3441
10160TIP3    H151895   2.356   6.782  16.970  2.0469 -0.8154  0.1534
10160TIP3    H251896   2.371   6.632  16.968 -1.5264 -1.2485  0.0612
10161TIP3   OH251897   2.391   1.484   0.443  0.7665  0.0222  0.7317
10161TIP3    H151898   2.464   1.502   0.503  0.1186  1.4536  1.1322
10161TIP3    H251899   2.428   1.496   0.355  1.1153  0.3527  0.9227
10162TIP3   OH251900   2.615   5.670   4.107 -1.1659 -0.2208  0.4170
10162TIP3    H151901   2.638   5.653   4.016 -1.3730  1.1198  0.1000
10162TIP3    H251902   2.697   5.696   4.148 -1.1065 -0.6587  0.5862
10163TIP3   OH251903   6.122   1.179  16.429  0.8809 -0.3398  0.3974
10163TIP3    H151904   6.118   1.127  16.349  1.5912  1.5245 -0.9390
10163TIP3    H251905   6.214   1.177  16.455  1.3830  1.8855 -0.9183
10164TIP3   OH251906   3.301   6.534  14.858  0.1586 -0.0161 -0.4489
10164TIP3    H151907   3.258   6.463  14.811 -0.5055  0.2903 -0.3090
10164TIP3    H251908   3.290   6.611  14.802  2.1957 -0.3098 -1.3369
10165TIP3   OH251909   4.291   5.499  14.724  0.2343 -0.0941  0.0111
10165TIP3    H151910   4.242   5.536  14.651  0.0054 -1.0858 -0.3472
10165TIP3    H251911   4.310   5.409  14.698  2.9591  0.4512 -0.2334
10166TIP3   OH251912   6.734   5.161   0.753 -0.0875  0.5701  0.4319
10166TIP3    H151913   6.664   5.115   0.707 -0.3006  1.7533 -0.4550
10166TIP3    H251914   6.728   5.129   0.843 -0.7125 -0.5518  0.0115
10167TIP3   OH251915   5.895   3.807   2.519  0.2920  0.4070  0.3264
10167TIP3    H151916   5.975   3.767   2.486 -0.6372 -0.8502 -0.5017
10167TIP3    H251917   5.923   3.891   2.555  2.1631 -0.5674  1.2792
10168TIP3   OH251918   2.863   1.099  13.380 -0.2151  0.3446 -0.2562
10168TIP3    H151919   2.796   1.163  13.357 -1.7533 -1.1900 -0.3199
10168TIP3    H251920   2.849   1.082  13.474 -0.8943 -1.0087 -0.5761
10169TIP3   OH251921   1.347   1.407   2.913 -0.1750 -0.2543 -0.2307
10169TIP3    H151922   1.398   1.451   2.845  0.5139  1.2631  1.1990
10169TIP3    H251923   1.260   1.447   2.907  0.5507  1.7364  1.3185
10170TIP3   OH251924   3.646   1.397  13.214  0.1833 -0.0148  0.6524
10170TIP3    H151925   3.687   1.335  13.273  3.6628 -0.2464 -1.7124
10170TIP3    H251926   3.716   1.455  13.186 -1.6565  1.3073 -1.6906
10171TIP3   OH251927   5.702   0.068  16.301  0.0378  0.1803  0.1111
10171TIP3    H151928   5.674  -0.008  16.250  0.2173 -0.0782  0.3894
10171TIP3    H251929   5.770   0.109  16.247  0.1648 -0.0400  0.1013
10172TIP3   OH251930   1.956   0.756   1.064  0.2260 -0.4046 -0.4794
10172TIP3    H151931   2.013   0.679   1.060 -2.1386 -2.2961 -0.3294
10172TIP3    H251932   1.944   0.771   1.158  0.1279 -0.2815 -0.5126
10173TIP3   OH251933   5.880   6.497   4.069  0.0544 -0.2845  0.2004
10173TIP3    H151934   5.834   6.522   4.149  0.0918 -0.3467  0.2412
10173TIP3    H251935   5.926   6.417   4.092 -1.0599 -1.0834 -0.2961
10174TIP3   OH251936   3.204   3.195   3.294  0.0852  0.0136  0.3072
10174TIP3    H151937   3.265   3.179   3.367  0.0681 -1.0469  0.1024
10174TIP3    H251938   3.254   3.172   3.216 -0.2182  0.2110  0.0531
10175TIP3   OH251939   2.059   2.241   0.841  0.6037 -0.5045 -0.4409
10175TIP3    H151940   2.144   2.197   0.848  0.6631 -0.3447 -0.1228
10175TIP3    H251941   2.015   2.220   0.923 -0.0543 -1.3849 -1.0081
10176TIP3   OH251942   5.474   1.477  12.550  0.8063 -0.0340  0.3380
10176TIP3    H151943   5.405   1.503  12.612  1.0978  0.5305  0.4333
10176TIP3    H251944   5.519   1.405  12.593  2.0763  1.4260  1.5624
10177TIP3   OH251945   3.432   3.876  15.442 -0.5613  0.9524 -0.0388
10177TIP3    H151946   3.433   3.968  15.415  0.4122  0.3477 -2.3855
10177TIP3    H251947   3.385   3.831  15.372  1.4460 -0.6703 -0.4416
10178TIP3   OH251948   5.186   0.229  12.246 -0.1519 -0.0767 -0.1880
10178TIP3    H151949   5.159   0.217  12.155 -1.5543 -1.7931  0.3918
10178TIP3    H251950   5.126   0.294  12.281  0.7331  0.9896 -0.5975
10179TIP3   OH251951   4.222   1.556   2.248  0.2402  0.3106  0.5267
10179TIP3    H151952   4.278   1.587   2.177  0.1979  0.7070  0.6674
10179TIP3    H251953   4.134   1.552   2.210  0.0004  1.6782  0.8844
10180TIP3   OH251954   1.926   5.010   2.551  0.2273 -0.3697 -0.1959
10180TIP3    H151955   2.002   4.993   2.607  0.4475 -0.3423 -0.4830
10180TIP3    H251956   1.964   5.041   2.469 -0.1506  0.9264  0.1050
10181TIP3   OH251957   0.208   5.418  13.228 -0.2464 -0.5319 -0.1884
10181TIP3    H151958   0.113   5.411  13.226 -0.1984 -1.2092 -0.5060
10181TIP3    H251959   0.239   5.333  13.197  0.4711 -1.0434  1.7357
10182TIP3   OH251960   4.425   0.214  13.491  0.0492  0.5253  0.5007
10182TIP3    H151961   4.419   0.297  13.538 -1.6835  0.6289  0.1935
10182TIP3    H251962   4.333   0.187  13.481  0.3198  0.4381 -2.6622
10183TIP3   OH251963   0.511   4.881  11.219  0.6031 -0.4877  0.6077
10183TIP3    H151964   0.530   4.897  11.311  0.4472 -0.2884  0.6060
10183TIP3    H251965   0.443   4.813  11.220  1.0147 -0.9073  0.6218
10184TIP3   OH251966   6.504   3.630  14.899  0.8298  0.1662 -0.3062
10184TIP3    H151967   6.584   3.625  14.951  0.7896 -0.8004 -0.3192
10184TIP3    H251968   6.526   3.689  14.826  1.5800 -0.2142 -0.3957
10185TIP3   OH251969   2.999   6.533   1.640 -0.4925 -0.5503 -0.0858
10185TIP3    H151970   2.943   6.597   1.596 -0.3605  1.1561  2.0445
10185TIP3    H251971   2.973   6.449   1.603 -0.6053  0.6930 -3.0855
10186TIP3   OH251972   0.583   1.864   3.329 -0.3120 -0.1428  0.2458
10186TIP3    H151973   0.494   1.865   3.363  0.0435  1.1357  1.2159
10186TIP3    H251974   0.638   1.850   3.406  0.4389  1.5313  0.0599
10187TIP3   OH251975   1.983   4.693   3.504 -0.0469  0.0569 -0.5761
10187TIP3    H151976   2.075   4.676   3.482 -0.1029 -1.5849  0.3285
10187TIP3    H251977   1.987   4.740   3.587 -0.0268 -0.1985 -0.4316
10188TIP3   OH251978   6.199   6.003   2.075 -0.2054 -0.0973  0.2049
10188TIP3    H151979   6.106   5.979   2.082 -0.0411 -0.2854  3.3325
10188TIP3    H251980   6.200   6.097   2.088  0.0878 -0.3049  2.0095
10189TIP3   OH251981   4.283   0.804  15.289  0.7017  0.4516 -0.2666
10189TIP3    H151982   4.225   0.832  15.219 -0.9110 -1.1430  0.3530
10189TIP3    H251983   4.334   0.882  15.311 -0.2842  1.5577 -1.7224
10190TIP3   OH251984   1.911   6.687  15.090  0.1395 -0.0611  0.0432
10190TIP3    H151985   1.995   6.649  15.063 -0.1013 -0.7879  0.2766
10190TIP3    H251986   1.857   6.611  15.113 -0.6113  0.3934 -0.1773
10191TIP3   OH251987   3.133   1.293   5.273 -0.1560 -0.3641  0.5618
10191TIP3    H151988   3.180   1.226   5.224  0.3885 -0.6360  1.4180
10191TIP3    H251989   3.145   1.267   5.365 -0.6851  0.4219  0.8592
10192TIP3   OH251990   4.920   5.446  16.744  0.2172  0.5512 -0.4477
10192TIP3    H151991   4.966   5.401  16.815  0.8805 -0.7726 -1.6436
10192TIP3    H251992   4.959   5.533  16.740 -0.4517  0.9631  1.3502
10193TIP3   OH251993   3.315   3.964  14.689  0.4947  0.8650  0.3199
10193TIP3    H151994   3.290   3.940  14.599 -1.7136 -2.2136  1.5940
10193TIP3    H251995   3.232   3.986  14.732  1.3052  0.7316  2.0189
10194TIP3   OH251996   4.843   2.280  11.372 -0.0694  0.0767 -0.4371
10194TIP3    H151997   4.822   2.316  11.458 -1.1481 -0.3559 -0.5045
10194TIP3    H251998   4.867   2.357  11.319 -0.7625  0.5189 -0.1280
10195TIP3   OH251999   5.254   6.519   3.585 -0.0299  0.3595 -0.2074
10195TIP3    H152000   5.274   6.430   3.557  1.2712 -0.0285  1.7578
10195TIP3    H252001   5.179   6.510   3.644  0.9517  0.3334  1.0829
10196TIP3   OH252002   0.492   4.068   5.398 -0.0846  0.4420  0.0836
10196TIP3    H152003   0.557   3.998   5.404 -1.1100 -0.5556 -0.1302
10196TIP3    H252004   0.450   4.069   5.484 -0.4314  0.4386 -0.0852
10197TIP3   OH252005   2.212   3.411   5.887 -0.0599 -0.1602  0.0113
10197TIP3    H152006   2.258   3.345   5.834  2.0359  1.2888 -0.0600
10197TIP3    H252007   2.259   3.413   5.970  0.7427  2.1107 -0.4486
10198TIP3   OH252008   5.169   2.104   4.310 -0.3835 -0.0736  0.1149
10198TIP3    H152009   5.205   2.110   4.398 -2.3022 -0.7993  1.0146
10198TIP3    H252010   5.180   2.192   4.273  2.3235 -0.2886  0.2434
10199TIP3   OH252011   5.254   6.568   0.045 -0.3209  0.6533  0.5130
10199TIP3    H152012   5.289   6.497   0.099  0.3393 -0.0120 -0.7439
10199TIP3    H252013   5.254   6.644   0.103 -0.2413 -0.1716  1.6332
10200TIP3   OH252014   2.140   0.832  16.738  0.4012 -0.3558 -0.0708
10200TIP3    H152015   2.110   0.895  16.803 -1.8043 -2.1217  0.7715
10200TIP3    H252016   2.231   0.814  16.763  0.4496  1.0157  0.8518
10201TIP3   OH252017   1.493   0.125  15.772 -0.0724 -0.4617  0.0234
10201TIP3    H152018   1.462   0.056  15.714 -0.3771 -0.0233 -0.3415
10201TIP3    H252019   1.541   0.185  15.714  0.5974 -0.6063  0.4103
10202TIP3   OH252020   4.487   5.869  16.520  0.4398  0.2259 -0.0654
10202TIP3    H152021   4.416   5.817  16.558 -1.2358 -0.7893 -4.0732
10202TIP3    H252022   4.563   5.812  16.524 -0.6857 -1.4990 -1.7875
10203TIP3   OH252023   3.184   4.650  12.867  0.3094  0.6058 -0.3882
10203TIP3    H152024   3.161   4.566  12.827 -2.5565  1.0052  0.2255
10203TIP3    H252025   3.279   4.657  12.856  0.3325 -1.7273 -2.2997
10204TIP3   OH252026   6.611   0.967  16.523  0.5146  0.1834  0.2857
10204TIP3    H152027   6.695   0.922  16.507  0.7734  0.5775  0.5266
10204TIP3    H252028   6.590   0.945  16.614 -0.0021 -0.4922  0.0136
10205TIP3   OH252029   4.785   1.189   5.449 -0.3779  0.0214 -0.1226
10205TIP3    H152030   4.784   1.100   5.484 -0.1442 -0.8993 -2.3177
10205TIP3    H252031   4.834   1.240   5.514  1.0205 -1.8353  0.3621
10206TIP3   OH252032   5.035   1.569   3.042  0.3117 -0.0268  0.0492
10206TIP3    H152033   4.969   1.602   3.103 -1.5878 -0.7809 -1.4931
10206TIP3    H252034   4.988   1.559   2.959  2.0858 -1.7088 -0.8355
10207TIP3   OH252035   2.681   0.489  11.325 -0.5438  0.2610 -0.0526
10207TIP3    H152036   2.721   0.402  11.321 -0.9423  0.0312  0.7037
10207TIP3    H252037   2.705   0.531  11.242  2.4213  0.6450  0.8970
10208TIP3   OH252038   0.267   3.109  15.272 -0.0523 -0.1085  0.2603
10208TIP3    H152039   0.190   3.105  15.216  0.1866 -0.0149 -0.0761
10208TIP3    H252040   0.326   3.042  15.237 -0.7714 -1.5524  1.7169
10209TIP3   OH252041   5.906   5.045  11.837  0.4425  0.0371  0.7821
10209TIP3    H152042   5.899   5.088  11.752 -0.3815 -1.3134  0.1402
10209TIP3    H252043   5.997   5.061  11.865  0.6431  0.7139 -0.2062
10210TIP3   OH252044   5.568   0.318   6.151  0.4391  0.6276  0.0811
10210TIP3    H152045   5.561   0.408   6.119  1.1123  0.5304 -0.3613
10210TIP3    H252046   5.645   0.318   6.207  1.2697  0.0227 -1.0239
10211TIP3   OH252047   1.925   0.135   4.047 -0.2856  0.1646  0.5490
10211TIP3    H152048   1.841   0.095   4.069  0.1577 -1.5283 -0.6530
10211TIP3    H252049   1.989   0.066   4.064  0.6336  0.7075 -0.5800
10212TIP3   OH252050   4.390   2.937  13.679  0.5159  0.5716  0.0490
10212TIP3    H152051   4.417   3.029  13.684  1.5170  0.3550 -1.0153
10212TIP3    H252052   4.446   2.892  13.743 -0.1182  0.7108  0.7229
10213TIP3   OH252053   0.907   0.008   0.795  0.4458 -0.2749 -0.4132
10213TIP3    H152054   0.959  -0.052   0.849 -0.8565 -0.3968  0.7594
10213TIP3    H252055   0.832   0.031   0.850 -0.2736  0.6152 -1.7145
10214TIP3   OH252056   4.390   0.643   1.400 -0.0183  0.6712 -0.1356
10214TIP3    H152057   4.309   0.634   1.449 -0.5494  1.2253 -0.8773
10214TIP3    H252058   4.362   0.671   1.312  0.8847 -0.4417 -0.8098
10215TIP3   OH252059   1.452   0.825  11.395  0.3168  0.2093  0.1862
10215TIP3    H152060   1.482   0.914  11.412  0.8084 -0.3631  2.6769
10215TIP3    H252061   1.520   0.786  11.340  0.1313  1.3140 -0.8595
10216TIP3   OH252062   0.783   1.218  14.939  0.2007 -0.4617  0.8204
10216TIP3    H152063   0.791   1.281  14.868  3.7975 -0.2293  1.2773
10216TIP3    H252064   0.772   1.134  14.896 -0.4880 -0.0262  0.1191
10217TIP3   OH252065   4.178   1.228   1.131 -0.1378  0.1276  0.0441
10217TIP3    H152066   4.132   1.291   1.075  0.9167  1.7949  0.9751
10217TIP3    H252067   4.157   1.255   1.220  0.6450 -0.6155  0.4651
10218TIP3   OH252068   2.796   6.683  16.937 -0.4930 -0.2447 -0.1322
10218TIP3    H152069   2.836   6.752  16.885  0.4253  1.3239  2.4721
10218TIP3    H252070   2.702   6.689  16.917 -0.2728  0.8369 -0.9389
10219TIP3   OH252071   6.571   3.888   5.486 -0.4404  0.3770 -0.0545
10219TIP3    H152072   6.565   3.972   5.532  1.3675  0.6809 -0.2851
10219TIP3    H252073   6.531   3.905   5.400  2.2115  1.8414 -1.1060
10220TIP3   OH252074   3.963   3.147  13.919  0.1479 -0.1202  0.0709
10220TIP3    H152075   3.917   3.185  13.994 -0.4455 -0.3856 -0.1496
10220TIP3    H252076   3.894   3.136  13.853  0.7792  0.7707 -0.7728
10221TIP3   OH252077   5.896   1.437  15.950  0.4502  0.1145 -0.2451
10221TIP3    H152078   5.851   1.388  16.019  1.1301 -1.3365 -0.7933
10221TIP3    H252079   5.827   1.487  15.906 -0.5125 -1.4930 -0.6021
10222TIP3   OH252080   4.282   4.930  11.686 -0.3704 -0.8142 -0.2788
10222TIP3    H152081   4.254   5.019  11.666  0.2811 -0.8530 -1.4568
10222TIP3    H252082   4.367   4.921  11.642 -0.0463 -1.7503  0.5031
10223TIP3   OH252083   6.438   5.229  11.827  0.2589  0.1910  0.6095
10223TIP3    H152084   6.499   5.257  11.895  1.1545 -0.3098  0.0319
10223TIP3    H252085   6.399   5.148  11.860 -0.0545  0.4807  0.9546
10224TIP3   OH252086   2.555   4.911   1.400  0.0645 -0.2317  0.2183
10224TIP3    H152087   2.610   4.868   1.466  0.0494 -1.2441 -0.4126
10224TIP3    H252088   2.511   4.840   1.355  0.7165  0.3927 -1.4652
10225TIP3   OH252089   4.310   4.333  15.781  0.6122 -0.7365  0.3220
10225TIP3    H152090   4.362   4.390  15.837 -0.7062  0.7089  0.1300
10225TIP3    H252091   4.258   4.280  15.841  0.8607 -0.7922  0.4884
10226TIP3   OH252092   1.463   4.275   5.416 -0.0765  0.4064  0.2710
10226TIP3    H152093   1.552   4.242   5.402 -0.5136 -0.3443 -0.8360
10226TIP3    H252094   1.434   4.304   5.330 -1.3969 -0.6528  0.3304
10227TIP3   OH252095   3.008   5.953   2.354  0.6181  0.4572 -0.6729
10227TIP3    H152096   2.963   5.871   2.334  0.2090  0.7987 -1.1774
10227TIP3    H252097   3.066   5.932   2.427 -1.1859  0.2630  0.7585
10228TIP3   OH252098   5.381   3.838  10.521 -0.1518 -0.4098  0.3322
10228TIP3    H152099   5.298   3.856  10.477  0.8258  1.0489 -1.0708
10228TIP3    H252100   5.420   3.925  10.535  0.5754 -0.9823  2.1257
10229TIP3   OH252101   0.457   2.936  15.687 -0.1375  0.6445 -0.2733
10229TIP3    H152102   0.492   2.975  15.767 -1.7905  0.7101  0.4606
10229TIP3    H252103   0.367   2.968  15.682 -0.0645  0.6470 -2.1791
10230TIP3   OH252104   1.660   4.329  16.449  0.2433  0.1126  0.0791
10230TIP3    H152105   1.750   4.356  16.429 -0.5202  2.5736 -0.3480
10230TIP3    H252106   1.605   4.395  16.408 -1.7609 -0.6850  1.3115
10231TIP3   OH252107   1.003   2.219   6.062  0.6545 -0.4340 -0.2643
10231TIP3    H152108   1.018   2.130   6.093  2.3374 -0.0166  0.2120
10231TIP3    H252109   0.968   2.265   6.138  1.0202 -0.3735 -0.1323
10232TIP3   OH252110   2.679   4.892  15.701 -0.0682  0.1012 -0.1507
10232TIP3    H152111   2.643   4.981  15.695  1.3758  0.8424  1.2504
10232TIP3    H252112   2.642   4.846  15.626 -0.5288  2.0159 -1.1758
10233TIP3   OH252113   6.286   3.681   1.516  0.1962  0.5723  0.0738
10233TIP3    H152114   6.305   3.757   1.571 -1.0618  1.5830 -0.8148
10233TIP3    H252115   6.208   3.706   1.467  1.3065 -0.2232 -2.2477
10234TIP3   OH252116   0.871   0.814  13.792 -0.1580  0.2246 -0.1401
10234TIP3    H152117   0.889   0.873  13.718 -1.8694  0.3632 -0.4824
10234TIP3    H252118   0.956   0.776  13.814  0.7533  1.8058 -0.7853
10235TIP3   OH252119   4.855   5.419  13.927  0.2185  0.0474 -0.3811
10235TIP3    H152120   4.864   5.420  13.832  0.5210 -0.4922 -0.3597
10235TIP3    H252121   4.797   5.492  13.946  1.3831  1.1314 -0.8484
10236TIP3   OH252122   2.420   4.627   1.544 -0.1202  0.6420  0.3766
10236TIP3    H152123   2.461   4.643   1.629  1.2797 -2.9991  0.5896
10236TIP3    H252124   2.493   4.625   1.482 -0.6104 -0.5755 -0.2004
10237TIP3   OH252125   1.898   1.094   5.149 -0.1383 -0.1033 -0.9584
10237TIP3    H152126   1.888   1.069   5.241  1.9626 -0.9789 -0.9343
10237TIP3    H252127   1.857   1.022   5.100 -1.3963  0.4365 -0.7536
10238TIP3   OH252128   5.819   2.644   4.435 -0.1779  0.0597 -0.0792
10238TIP3    H152129   5.840   2.601   4.518  2.1578 -0.3222 -0.7924
10238TIP3    H252130   5.751   2.589   4.396  0.6478 -1.3456  0.3734
10239TIP3   OH252131   5.444   3.495  16.001 -0.3166 -0.0439 -0.3597
10239TIP3    H152132   5.461   3.589  16.001  2.5431 -0.4696 -0.1722
10239TIP3    H252133   5.436   3.472  16.093 -2.5521  0.1940 -0.4530
10240TIP3   OH252134   0.374   2.344   6.630  0.4955 -0.8225 -0.6949
10240TIP3    H152135   0.312   2.273   6.648  0.1185 -0.6615 -1.3450
10240TIP3    H252136   0.446   2.328   6.691 -0.2631 -0.9073  0.2020
10241TIP3   OH252137   2.332   1.580  15.475  0.1668 -0.3673  0.3934
10241TIP3    H152138   2.247   1.603  15.436  0.2098 -0.8587 -0.0065
10241TIP3    H252139   2.350   1.492  15.442  2.3378  0.8905 -2.1248
10242TIP3   OH252140   0.018   1.058   3.969  0.1781  0.1628  0.4607
10242TIP3    H152141   0.015   0.968   3.936 -0.6436  0.9843 -1.8697
10242TIP3    H252142   0.103   1.091   3.939  1.7068 -0.5288  3.5591
10243TIP3   OH252143   3.983   2.210   0.057  0.4320  0.0348 -0.3491
10243TIP3    H152144   4.024   2.127   0.082  0.7791  0.3382  0.1075
10243TIP3    H252145   4.056   2.264   0.025  0.5007  0.7985  1.0484
10244TIP3   OH252146   0.110   4.052   2.623  0.0325 -0.3357  0.5357
10244TIP3    H152147   0.023   4.067   2.660 -0.1693  0.8628 -0.3686
10244TIP3    H252148   0.170   4.072   2.696 -0.3862  1.2103  0.4927
10245TIP3   OH252149   1.789   4.806   0.962  0.3402  0.3234  0.2521
10245TIP3    H152150   1.875   4.807   1.004  1.1479  1.9643 -1.3074
10245TIP3    H252151   1.777   4.715   0.933  0.2741 -0.5758  2.8393
10246TIP3   OH252152   0.048   6.606  16.936  0.0165  0.2119 -0.0651
10246TIP3    H152153   0.117   6.581  16.997 -0.9160 -0.4020  0.7740
10246TIP3    H252154  -0.012   6.660  16.988  0.5679  1.9432 -1.1546
10247TIP3   OH252155   6.697   3.558   2.198  0.3390 -0.0617  0.2282
10247TIP3    H152156   6.761   3.516   2.255 -0.5548 -2.0211 -0.1360
10247TIP3    H252157   6.738   3.641   2.172  2.6920 -1.2343  0.0245
10248TIP3   OH252158   4.321   4.376   6.191  0.2458 -0.2575  0.3113
10248TIP3    H152159   4.260   4.322   6.139  0.8104 -1.6350  1.0379
10248TIP3    H252160   4.272   4.396   6.271 -0.4475  1.4709 -0.4814
10249TIP3   OH252161   0.436   0.895  13.955  0.6406 -0.1028  0.1053
10249TIP3    H152162   0.526   0.912  13.982 -0.4970  0.6000  3.9363
10249TIP3    H252163   0.403   0.980  13.925  0.1435  0.6738  2.6203
10250TIP3   OH252164   4.410   1.784   1.948 -0.4198  0.4849 -0.2437
10250TIP3    H152165   4.330   1.735   1.928 -0.4009  0.3148  0.0880
10250TIP3    H252166   4.378   1.867   1.985 -0.5041 -0.9066  3.2130
10251TIP3   OH252167   4.089   3.842  12.816 -0.2470 -0.3183 -0.1791
10251TIP3    H152168   4.160   3.899  12.848 -0.8392  0.1385  0.3504
10251TIP3    H252169   4.129   3.791  12.747  0.9851 -1.0309  1.0086
10252TIP3   OH252170   1.443   5.511  13.969  0.2223  0.2614 -0.1731
10252TIP3    H152171   1.469   5.421  13.986  0.2529  0.4980  1.0862
10252TIP3    H252172   1.525   5.558  13.956  0.1791 -0.1727 -2.5688
10253TIP3   OH252173   6.175   1.720  13.286  0.5173  0.2111  0.2080
10253TIP3    H152174   6.148   1.670  13.363  0.8262 -1.6910 -0.8431
10253TIP3    H252175   6.099   1.776  13.266 -0.7958 -1.4915  0.1550
10254TIP3   OH252176   4.108   2.730   4.863  0.0578 -0.0091 -0.2202
10254TIP3    H152177   4.190   2.775   4.885  1.6900 -2.0075 -1.7777
10254TIP3    H252178   4.114   2.645   4.908 -1.2291 -0.1560 -0.2749
10255TIP3   OH252179   0.036   6.187  12.774  0.3537 -0.2231  0.1549
10255TIP3    H152180  -0.057   6.192  12.795  0.2640 -0.4403 -0.1707
10255TIP3    H252181   0.039   6.185  12.678  0.7068  0.0341  0.1579
10256TIP3   OH252182   0.648   1.527   4.778 -0.1680 -0.1744 -0.1548
10256TIP3    H152183   0.703   1.471   4.723  0.7565  1.2938 -0.7965
10256TIP3    H252184   0.562   1.524   4.737 -0.1425 -1.1355 -0.1579
10257TIP3   OH252185   0.318   4.198   3.638 -0.4760 -0.0346  0.0556
10257TIP3    H152186   0.235   4.163   3.606 -0.2050 -0.1960 -0.4751
10257TIP3    H252187   0.336   4.273   3.583 -0.3839  0.1428  0.3250
10258TIP3   OH252188   1.434   3.677  16.674 -0.7631 -0.3508  0.0655
10258TIP3    H152189   1.513   3.692  16.622 -0.3834 -1.2734  0.3464
10258TIP3    H252190   1.369   3.648  16.610 -0.1452 -2.0048  0.1351
10259TIP3   OH252191   4.766   5.290  15.127 -0.0502  0.1133 -0.4427
10259TIP3    H152192   4.828   5.332  15.068  1.5101 -0.0109  1.0601
10259TIP3    H252193   4.804   5.204  15.147 -1.0681 -0.2764 -0.0816
10260TIP3   OH252194   5.907   6.336  17.054 -0.1449 -0.3893 -0.6684
10260TIP3    H152195   5.964   6.298  16.987 -1.0527 -0.2722 -1.5324
10260TIP3    H252196   5.885   6.262  17.111  1.4694 -0.2872  0.1534
10261TIP3   OH252197   4.643   4.188   3.545 -0.7413 -0.1781 -0.1463
10261TIP3    H152198   4.633   4.261   3.485  1.8085  0.0587 -0.3986
10261TIP3    H252199   4.674   4.227   3.626  0.0380 -0.8665 -0.0851
10262TIP3   OH252200   0.782   2.226  15.129  0.3046 -0.1780  0.1989
10262TIP3    H152201   0.690   2.244  15.148  0.6385  1.5994  0.3089
10262TIP3    H252202   0.786   2.217  15.034  0.2197  1.1959  0.0468
10263TIP3   OH252203   2.106   1.741   5.359  0.2127  0.7131  0.1775
10263TIP3    H152204   2.126   1.822   5.405 -0.1992  0.9231 -0.0128
10263TIP3    H252205   2.011   1.741   5.349  0.0813 -0.3768  1.2336
10264TIP3   OH252206   1.162   5.927  13.812 -0.3163 -0.4924 -0.0861
10264TIP3    H152207   1.234   5.869  13.836  1.0845  0.7612 -1.0881
10264TIP3    H252208   1.102   5.923  13.887  1.1634 -0.9773  1.1262
10265TIP3   OH252209   5.459   5.181   0.246 -0.3798 -0.2742 -0.2695
10265TIP3    H152210   5.419   5.167   0.160 -0.5882 -0.3642 -0.1593
10265TIP3    H252211   5.515   5.258   0.234 -2.2421  1.2542  0.1032
10266TIP3   OH252212   2.135   5.651   4.004 -0.0950  0.3901  0.3109
10266TIP3    H152213   2.090   5.583   3.954 -0.0624  0.2145  0.5216
10266TIP3    H252214   2.221   5.613   4.023  0.3549  0.9277 -0.5608
10267TIP3   OH252215   4.026   3.095   5.533 -0.0106  0.3256 -0.2948
10267TIP3    H152216   3.983   3.031   5.590 -0.9921  0.9716 -0.2949
10267TIP3    H252217   3.955   3.143   5.492  0.6317 -0.4959 -2.5361
10268TIP3   OH252218   3.586   5.728   5.126 -0.5835  0.4814 -0.2294
10268TIP3    H152219   3.596   5.785   5.202  0.7897 -0.1420  0.1029
10268TIP3    H252220   3.607   5.641   5.159 -0.4090  0.1350 -1.2180
10269TIP3   OH252221   1.245   3.062  14.964  0.1617  0.4610 -0.1133
10269TIP3    H152222   1.300   3.132  14.999 -0.5313  0.7215  0.4695
10269TIP3    H252223   1.169   3.108  14.927  0.0228  0.0606 -0.3312
10270TIP3   OH252224   1.310   0.364   1.789 -0.0953 -0.5606  0.5192
10270TIP3    H152225   1.377   0.431   1.775 -0.5988  0.1336  1.4178
10270TIP3    H252226   1.333   0.295   1.726 -0.1408  0.8480 -1.1278
10271TIP3   OH252227   3.772   6.156  16.514 -0.2178  0.3081  1.0588
10271TIP3    H152228   3.747   6.089  16.451  2.0654  0.0812  0.2948
10271TIP3    H252229   3.792   6.108  16.594 -1.1469  0.3897  1.3549
10272TIP3   OH252230   2.137   5.324  16.208 -0.5192 -0.3427 -0.2327
10272TIP3    H152231   2.115   5.238  16.173 -0.7655 -0.1437 -0.5653
10272TIP3    H252232   2.196   5.305  16.282  0.1043 -0.7538 -0.8229
10273TIP3   OH252233   1.645   1.698   6.122 -0.3382  0.4602 -0.6376
10273TIP3    H152234   1.740   1.706   6.129 -0.4318  0.7324  0.4534
10273TIP3    H252235   1.631   1.611   6.086  0.2782 -0.2579  0.7930
10274TIP3   OH252236   3.223   5.393  11.995  0.2786 -0.0015 -0.5353
10274TIP3    H152237   3.212   5.301  12.018 -0.0249 -0.3978 -2.1230
10274TIP3    H252238   3.192   5.399  11.904  0.1661  1.6923 -0.4263
10275TIP3   OH252239   6.119   0.728   1.915  0.2526 -0.2984 -0.2077
10275TIP3    H152240   6.133   0.818   1.883  0.5081  0.1237  1.0282
10275TIP3    H252241   6.060   0.739   1.990 -0.5539 -1.2830 -0.6821
10276TIP3   OH252242   6.641   0.213  16.713  0.7081 -0.3029 -0.0814
10276TIP3    H152243   6.575   0.143  16.706 -0.5521  1.0058 -2.2637
10276TIP3    H252244   6.622   0.254  16.798  1.4603 -2.4853  1.2483
10277TIP3   OH252245   5.535   1.041   0.785 -0.3312 -0.2345  0.3474
10277TIP3    H152246   5.493   0.955   0.779 -1.0299  0.1238 -0.0208
10277TIP3    H252247   5.520   1.068   0.876 -2.2823  0.5565 -0.1658
10278TIP3   OH252248   1.462   6.749   5.839  0.1879 -0.3119  0.1482
10278TIP3    H152249   1.455   6.656   5.857 -2.1301 -0.4792 -1.2131
10278TIP3    H252250   1.505   6.786   5.916 -0.1432 -2.2938  1.3394
10279TIP3   OH252251   3.546   2.247   5.753  0.1768 -0.3910 -0.2698
10279TIP3    H152252   3.624   2.192   5.749  0.2773 -0.2282 -0.5534
10279TIP3    H252253   3.534   2.279   5.664  0.4823  0.5588  0.0142
10280TIP3   OH252254   1.937   6.609   5.044 -0.4082 -0.2218  0.5879
10280TIP3    H152255   1.852   6.652   5.031 -0.8686 -0.3630  2.8356
10280TIP3    H252256   1.993   6.646   4.975 -1.9443  0.7852 -0.1788
10281TIP3   OH252257   0.766   3.594  14.980 -0.4410 -0.6749  0.0323
10281TIP3    H152258   0.673   3.617  14.975 -0.3740  0.4163  2.2339
10281TIP3    H252259   0.792   3.621  15.069  2.2371  0.0705 -0.8819
10282TIP3   OH252260   5.832   1.310  14.497 -1.1921 -0.0339  0.1223
10282TIP3    H152261   5.926   1.295  14.508 -0.6788  2.3130 -0.5193
10282TIP3    H252262   5.813   1.281  14.408 -1.6938 -2.8066  1.0056
10283TIP3   OH252263   5.996   3.118   5.191  0.5168 -0.7973 -0.0704
10283TIP3    H152264   5.921   3.114   5.250  0.3059 -0.3147 -0.2971
10283TIP3    H252265   6.070   3.139   5.247  0.5620 -1.7008  0.2175
10284TIP3   OH252266   4.395   2.180  11.930  0.7305  0.5553 -0.1229
10284TIP3    H152267   4.444   2.201  11.850  0.7413  1.1845  0.0435
10284TIP3    H252268   4.303   2.188  11.905  0.7332  0.6658 -0.0996
10285TIP3   OH252269   0.507   3.559  14.979 -0.0729 -0.2431 -0.5425
10285TIP3    H152270   0.431   3.505  15.003 -1.3881  0.8234 -2.0737
10285TIP3    H252271   0.495   3.576  14.886  0.0953  2.9324 -0.0806
10286TIP3   OH252272   5.300   3.517  13.773  0.2911 -0.7626 -0.0420
10286TIP3    H152273   5.240   3.447  13.798  0.5806 -1.1298 -0.3601
10286TIP3    H252274   5.253   3.598  13.792 -0.2532 -1.0467 -0.1665
10287TIP3   OH252275   2.675   1.401   3.536  0.1678 -0.2329 -0.0073
10287TIP3    H152276   2.761   1.364   3.519 -0.2908 -1.9255  1.1134
10287TIP3    H252277   2.689   1.460   3.610  0.5125  0.2203 -0.4249
10288TIP3   OH252278   3.745   4.958   5.553 -0.4564 -0.0730  0.0899
10288TIP3    H152279   3.704   4.997   5.630 -0.1342  0.1237  0.1658
10288TIP3    H252280   3.713   4.869   5.550  0.4059 -0.4399  1.1060
10289TIP3   OH252281   5.426   1.032   1.210  0.4646 -0.7101  0.3520
10289TIP3    H152282   5.346   0.990   1.179 -0.8117  0.7710  1.4786
10289TIP3    H252283   5.435   1.110   1.155  0.2970 -0.0812  1.2068
10290TIP3   OH252284   4.773   3.584   3.958  0.3305  0.3123  0.1988
10290TIP3    H152285   4.679   3.568   3.967 -0.3321  3.7104  0.5409
10290TIP3    H252286   4.804   3.591   4.049  0.9668 -0.7689  0.0864
10291TIP3   OH252287   3.374   5.439   2.076 -0.0630 -0.4572 -0.6259
10291TIP3    H152288   3.434   5.368   2.098  0.7660 -0.0533 -1.4585
10291TIP3    H252289   3.287   5.406   2.099  0.5601 -0.6059  1.7419
10292TIP3   OH252290   1.583   5.746  11.621 -0.1039 -0.0068 -0.4791
10292TIP3    H152291   1.578   5.790  11.536 -0.7200  0.3724 -0.2558
10292TIP3    H252292   1.601   5.655  11.601 -0.5884  0.0180 -1.0304
10293TIP3   OH252293   1.656   0.315   3.645  0.1612 -0.3098  0.6204
10293TIP3    H152294   1.602   0.358   3.578  0.5893  0.2355  0.6152
10293TIP3    H252295   1.601   0.316   3.723  0.3425  0.7187  0.7556
10294TIP3   OH252296   5.486   0.108   2.793 -0.2007  0.2854  0.0211
10294TIP3    H152297   5.451   0.052   2.724 -0.8828 -0.8062  1.2028
10294TIP3    H252298   5.470   0.198   2.762  0.1996 -0.1469 -1.5490
10295TIP3   OH252299   6.615   6.533   4.643  0.0201 -0.0549 -0.3776
10295TIP3    H152300   6.694   6.488   4.673  0.1572  0.5957  0.2721
10295TIP3    H252301   6.571   6.469   4.587  1.0937 -0.3670 -0.9118
10296TIP3   OH252302   1.459   4.467   3.403 -0.4412 -0.0205  1.1871
10296TIP3    H152303   1.497   4.530   3.464 -2.5106  1.8242  0.6751
10296TIP3    H252304   1.380   4.509   3.370 -1.1484 -2.3125 -0.3053
10297TIP3   OH252305   6.228   0.720  15.361 -0.2749  0.2297  0.5513
10297TIP3    H152306   6.223   0.810  15.393 -1.2517 -0.1445  1.5063
10297TIP3    H252307   6.260   0.669  15.436 -2.8938 -0.7146  1.1447
10298TIP3   OH252308   4.826   0.602   4.520  0.3817 -0.2608 -0.0295
10298TIP3    H152309   4.738   0.577   4.491  0.3753  0.4674 -0.6707
10298TIP3    H252310   4.884   0.576   4.449  0.6538 -0.4636  0.2626
10299TIP3   OH252311   6.138   5.171   5.178 -0.2624 -0.8586 -0.1621
10299TIP3    H152312   6.232   5.162   5.190 -0.3712 -1.8405  0.0882
10299TIP3    H252313   6.102   5.090   5.214 -1.2320 -0.3281  0.0920
10300TIP3   OH252314   6.007   1.348  17.238  0.0381 -0.6982 -0.3489
10300TIP3    H152315   6.087   1.303  17.264 -0.2499 -1.2776 -0.4531
10300TIP3    H252316   6.013   1.357  17.143 -0.7398 -2.1696 -0.5569
10301TIP3   OH252317   4.224   5.527  16.726 -0.2026 -0.6324 -0.1065
10301TIP3    H152318   4.278   5.517  16.804  0.3707 -0.9156 -0.5371
10301TIP3    H252319   4.244   5.615  16.694 -1.6949  0.1539  0.9950
10302TIP3   OH252320   1.452   3.123  12.886 -0.2798 -0.5133  0.4376
10302TIP3    H152321   1.532   3.073  12.899 -1.0828 -2.1824 -0.6893
10302TIP3    H252322   1.482   3.214  12.875  1.4222 -1.0542  0.3678
10303TIP3   OH252323   5.973   5.902  13.787 -0.5211  0.3889  0.0447
10303TIP3    H152324   5.897   5.944  13.746 -2.2576 -1.1281  1.4945
10303TIP3    H252325   5.960   5.917  13.881 -0.3000 -1.8265  0.4744
10304TIP3   OH252326   3.329   6.349   0.622 -0.3210  0.1493  0.0028
10304TIP3    H152327   3.263   6.397   0.672 -0.8556 -0.4772 -0.0875
10304TIP3    H252328   3.297   6.351   0.532 -0.4294 -0.5094  0.0256
10305TIP3   OH252329   5.415   6.250  13.438 -0.5942  0.2685 -0.4154
10305TIP3    H152330   5.395   6.189  13.509  1.5345 -0.7330 -0.5829
10305TIP3    H252331   5.489   6.301  13.471  0.9295 -0.7249 -2.1363
10306TIP3   OH252332   2.440   2.196  16.189  0.6639  0.2464 -0.0354
10306TIP3    H152333   2.470   2.196  16.099  0.0353  1.3322 -0.2693
10306TIP3    H252334   2.345   2.206  16.183  0.2673 -2.4539  0.6997
10307TIP3   OH252335   5.295   2.167   2.946 -0.4643 -0.3898  0.0430
10307TIP3    H152336   5.213   2.215   2.945 -0.1562  0.1399 -1.4921
10307TIP3    H252337   5.272   2.080   2.979 -1.8689 -0.6305 -1.4734
10308TIP3   OH252338   3.749   3.171  14.569 -0.2543  0.1236 -0.1730
10308TIP3    H152339   3.840   3.196  14.585  0.5627 -0.6781 -2.9097
10308TIP3    H252340   3.721   3.228  14.497 -1.2067 -1.0156 -0.7489
10309TIP3   OH252341   0.261   3.248   4.858 -0.5798  0.2616  0.1481
10309TIP3    H152342   0.230   3.193   4.930 -0.9068  0.6470  0.3026
10309TIP3    H252343   0.220   3.210   4.780 -0.3047 -0.0942  0.1749
10310TIP3   OH252344   0.266   1.666   4.215  0.3327 -0.2011 -0.1604
10310TIP3    H152345   0.324   1.667   4.291  0.7905 -2.5720 -0.3892
10310TIP3    H252346   0.290   1.744   4.165  1.7764  0.0528  0.8825
10311TIP3   OH252347   0.736   5.779   0.539  0.0736  0.8017 -0.7127
10311TIP3    H152348   0.667   5.761   0.476 -0.1253 -0.1351 -0.2406
10311TIP3    H252349   0.805   5.822   0.488  0.5312 -1.2193 -1.8999
10312TIP3   OH252350   3.509   4.502   2.862 -0.3715 -0.0590 -0.1090
10312TIP3    H152351   3.489   4.561   2.790 -1.4186  1.2222  1.1522
10312TIP3    H252352   3.431   4.506   2.918  0.0422 -1.7026  0.6417
10313TIP3   OH252353   0.684   4.343   6.282 -0.3692 -0.0322  0.3065
10313TIP3    H152354   0.654   4.426   6.244 -0.1461 -0.4553 -0.8426
10313TIP3    H252355   0.778   4.341   6.262 -0.2425 -0.2685  0.9065
10314TIP3   OH252356   4.274   4.582   4.932  0.8670 -0.3222 -0.3587
10314TIP3    H152357   4.191   4.602   4.888 -1.3319 -2.9244  2.2262
10314TIP3    H252358   4.286   4.653   4.994 -0.3629 -0.7091  0.3641
10315TIP3   OH252359   1.243   5.312   2.125  0.1004  0.1483  0.3833
10315TIP3    H152360   1.271   5.355   2.044 -3.3824 -0.7313 -1.4687
10315TIP3    H252361   1.200   5.382   2.175 -1.5698 -0.1336 -0.5809
10316TIP3   OH252362   5.366   5.770   4.481 -0.4399 -0.1658 -0.5188
10316TIP3    H152363   5.432   5.772   4.412 -1.4608  1.0837 -1.5159
10316TIP3    H252364   5.387   5.693   4.533  3.0412  1.2659  0.4570
10317TIP3   OH252365   4.866   0.763  16.039 -0.0781  0.3376  0.0182
10317TIP3    H152366   4.864   0.771  16.134 -1.0131 -2.4960  0.3428
10317TIP3    H252367   4.957   0.743  16.018 -0.3784 -2.2378  0.7799
10318TIP3   OH252368   2.952   6.439   0.299 -0.4964  0.0979  0.2855
10318TIP3    H152369   2.889   6.367   0.292  1.4568 -1.5541 -2.0850
10318TIP3    H252370   2.909   6.513   0.255 -0.6391 -1.1470 -1.7812
10319TIP3   OH252371   2.068   3.242  12.525  0.0522 -0.2303 -0.0242
10319TIP3    H152372   2.039   3.284  12.606 -1.3912  1.1109 -1.1708
10319TIP3    H252373   2.057   3.309  12.458 -1.1007 -2.0177 -1.7369
10320TIP3   OH252374   6.308   1.359   2.962  0.2366  0.2995  0.0697
10320TIP3    H152375   6.359   1.330   3.037  0.0543  2.3755  1.0502
10320TIP3    H252376   6.282   1.448   2.983 -2.0478  0.0538 -1.3089
10321TIP3   OH252377   2.651   5.678  13.230  0.2768 -0.3851  0.0913
10321TIP3    H152378   2.677   5.646  13.316  0.1699 -0.5265  0.0718
10321TIP3    H252379   2.678   5.609  13.169  0.1025 -0.4132  0.0423
10322TIP3   OH252380   5.441   0.001   1.096 -0.4076  0.3444  0.2222
10322TIP3    H152381   5.488   0.068   1.046  0.0771  0.6972  1.1176
10322TIP3    H252382   5.376   0.050   1.146 -0.9826 -0.0181 -0.1688
10323TIP3   OH252383   6.704   5.409  17.223  0.2664 -0.1466 -0.2287
10323TIP3    H152384   6.776   5.385  17.165  1.6842  2.2991  0.3745
10323TIP3    H252385   6.734   5.385  17.310 -0.1047 -0.0708 -0.0776
10324TIP3   OH252386   1.987   2.225   3.384  0.2310  0.3127  0.6030
10324TIP3    H152387   2.057   2.288   3.372 -0.0795  0.5002 -0.2582
10324TIP3    H252388   2.032   2.142   3.404  0.6122  1.0974  3.3902
10325TIP3   OH252389   0.952   6.755  15.611 -0.3134  0.4897 -0.2258
10325TIP3    H152390   0.899   6.686  15.571 -0.3312  0.4111 -0.0668
10325TIP3    H252391   0.893   6.795  15.676  0.1589 -0.3135  0.7349
10326TIP3   OH252392   2.852   3.263  11.895  0.2394 -0.2149  0.0644
10326TIP3    H152393   2.802   3.339  11.864 -0.8929 -0.5793  0.9122
10326TIP3    H252394   2.806   3.235  11.974  1.6039 -0.7925  0.6917
10327TIP3   OH252395   4.212   4.326   1.780 -0.3049  0.1185 -0.0209
10327TIP3    H152396   4.202   4.287   1.693  0.3916 -2.2285  0.8979
10327TIP3    H252397   4.305   4.316   1.801 -0.6105 -0.0684  1.3228
10328TIP3   OH252398   1.950   1.713   6.129 -0.4576  0.9553 -0.7860
10328TIP3    H152399   1.998   1.661   6.065  0.5760 -0.1489  0.8151
10328TIP3    H252400   2.011   1.783   6.153 -0.9398  1.5199 -1.1455
10329TIP3   OH252401   2.396   0.940   4.736 -0.3029 -0.0822  0.2647
10329TIP3    H152402   2.410   1.035   4.730 -0.3241 -0.1312 -0.8751
10329TIP3    H252403   2.344   0.919   4.658  0.8187 -1.2091 -0.2228
10330TIP3   OH252404   5.507   3.797  13.466  0.7330 -0.0750  0.3497
10330TIP3    H152405   5.419   3.774  13.433  1.0018  2.8056 -2.9907
10330TIP3    H252406   5.567   3.748  13.409  1.2744  0.2281  0.6536
10331TIP3   OH252407   6.137   2.142   1.377 -0.2706 -0.5227 -0.1047
10331TIP3    H152408   6.173   2.060   1.412 -1.3052 -0.5787  0.8709
10331TIP3    H252409   6.214   2.196   1.358  0.4841 -2.0183 -1.5743
10332TIP3   OH252410   2.395   4.281   6.027  0.0143 -0.5229  0.0106
10332TIP3    H152411   2.424   4.312   6.113  1.5207 -1.0493 -0.2708
10332TIP3    H252412   2.309   4.242   6.043  0.7516 -1.6242  1.5131
10333TIP3   OH252413   4.564   2.985  15.002 -0.1342  0.4019  0.0686
10333TIP3    H152414   4.491   2.957  14.947  0.0354  1.6485 -0.8322
10333TIP3    H252415   4.615   2.906  15.016 -1.2360 -0.3351  0.0713
10334TIP3   OH252416   6.479   5.855  16.798 -0.4637 -0.1755  0.1978
10334TIP3    H152417   6.571   5.871  16.821 -0.6806 -0.3333  1.2653
10334TIP3    H252418   6.479   5.768  16.759 -0.0732  0.0752 -0.3632
10335TIP3   OH252419   4.431   6.423  13.894 -0.1583  0.2667  0.7367
10335TIP3    H152420   4.487   6.458  13.964  1.2183 -2.1885  0.9794
10335TIP3    H252421   4.350   6.397  13.938 -1.0091  2.5314  0.6282
10336TIP3   OH252422   1.003   3.404   0.097 -0.1257  0.3526  0.2712
10336TIP3    H152423   0.954   3.453   0.032 -1.1128  0.5984  1.1714
10336TIP3    H252424   1.050   3.337   0.046 -1.4722  0.0472 -0.6110
10337TIP3   OH252425   6.114   4.160   1.198 -0.0982  0.3832  0.1715
10337TIP3    H152426   6.193   4.210   1.180  0.1125 -0.9934 -3.5394
10337TIP3    H252427   6.145   4.069   1.204 -1.0606  0.1295  1.9805
10338TIP3   OH252428   1.911   5.453   0.606  0.5567  0.4883  0.3831
10338TIP3    H152429   1.918   5.422   0.516  0.3080 -2.1807  1.2005
10338TIP3    H252430   1.843   5.520   0.602 -1.5728 -1.5855 -1.0088
10339TIP3   OH252431   3.248   3.158   3.972  0.2429  0.3706 -0.1357
10339TIP3    H152432   3.257   3.090   3.906 -0.9542  0.8983 -0.8954
10339TIP3    H252433   3.164   3.199   3.952 -0.0828  0.6517  1.6419
10340TIP3   OH252434   2.197   3.061   5.308  0.2547  0.0033 -0.1920
10340TIP3    H152435   2.146   3.004   5.365  3.0196 -1.9241  0.5696
10340TIP3    H252436   2.142   3.075   5.231 -1.3044 -2.1028  0.4630
10341TIP3   OH252437   6.006   0.744  12.748  0.0782  0.3363  0.0934
10341TIP3    H152438   6.059   0.782  12.819 -1.5742  0.8678  1.1145
10341TIP3    H252439   5.923   0.791  12.754 -0.6806 -0.8010 -1.1417
10342TIP3   OH252440   4.181   2.269   0.476 -0.0718 -0.4671 -0.2012
10342TIP3    H152441   4.194   2.303   0.387  1.0388 -1.1653 -0.3274
10342TIP3    H252442   4.135   2.186   0.464 -1.4283  0.2204  0.0101
10343TIP3   OH252443   6.178   2.217  11.663  0.0430  0.0267 -0.2007
10343TIP3    H152444   6.226   2.135  11.654  0.0059  0.0211 -0.3562
10343TIP3    H252445   6.162   2.225  11.757 -0.8404 -0.6613 -0.2719
10344TIP3   OH252446   2.891   0.628   3.668 -0.2975 -0.1147  0.2088
10344TIP3    H152447   2.956   0.604   3.734 -2.6784  0.8179  3.1200
10344TIP3    H252448   2.862   0.545   3.631  1.3533 -0.6271 -0.0291
10345TIP3   OH252449   3.757   1.066   2.849  0.3061  0.2682 -0.0078
10345TIP3    H152450   3.694   1.020   2.903  0.1671 -0.4051 -0.7286
10345TIP3    H252451   3.718   1.152   2.834 -1.3923 -0.7595 -2.0234
10346TIP3   OH252452   6.665   4.512   1.242 -0.1953 -0.1330  0.0199
10346TIP3    H152453   6.709   4.445   1.296  0.3630  2.2178  2.7393
10346TIP3    H252454   6.585   4.533   1.290 -0.6470  0.7503 -1.0775
10347TIP3   OH252455   4.352   1.457  10.974  0.5449 -0.0396  0.3004
10347TIP3    H152456   4.311   1.377  10.939 -1.0935  1.1823 -0.7691
10347TIP3    H252457   4.430   1.426  11.019  0.2106 -2.2056 -0.4542
10348TIP3   OH252458   3.041   2.101   5.754  0.7260 -0.5204  0.7719
10348TIP3    H152459   3.066   2.013   5.783  0.5341 -0.5772  0.7684
10348TIP3    H252460   3.122   2.151   5.754  0.8920 -0.7895  0.4499
10349TIP3   OH252461   3.056   6.157  16.633  0.8224  0.6050 -0.8242
10349TIP3    H152462   3.025   6.236  16.589 -0.8773 -0.4416 -1.6276
10349TIP3    H252463   3.105   6.189  16.709  0.3980  2.4177 -1.2666
10350TIP3   OH252464   4.297   4.770  11.189 -0.2423  0.5937 -0.1850
10350TIP3    H152465   4.362   4.800  11.126 -0.7953 -1.4778 -1.8434
10350TIP3    H252466   4.344   4.711  11.247 -0.0494  1.3863  0.4901
10351TIP3   OH252467   0.530   1.839  15.647 -0.2759 -0.1900 -0.0569
10351TIP3    H152468   0.598   1.848  15.581 -0.5237  3.0289 -0.0417
10351TIP3    H252469   0.565   1.776  15.710  1.1973 -1.1349 -1.7450
10352TIP3   OH252470   2.718   1.257   3.874  0.0535 -0.2643 -0.5518
10352TIP3    H152471   2.697   1.278   3.965  0.6230  1.9901 -0.8913
10352TIP3    H252472   2.793   1.198   3.879  1.0573  1.0472  0.4511
10353TIP3   OH252473   1.693   4.018   3.000  0.4826 -0.5898  0.3841
10353TIP3    H152474   1.761   3.968   3.045  0.8936 -0.2089  0.1974
10353TIP3    H252475   1.742   4.082   2.947 -0.0306  0.1914  0.8299
10354TIP3   OH252476   2.430   6.036   0.500 -0.1448 -0.0485 -0.3644
10354TIP3    H152477   2.488   6.090   0.446  0.8621  0.0097  0.7380
10354TIP3    H252478   2.383   6.097   0.556 -0.7486 -0.1549 -0.7416
10355TIP3   OH252479   4.989   3.598   2.908 -0.4093 -0.0120 -0.6678
10355TIP3    H152480   5.030   3.676   2.870  1.5351 -1.3005 -1.3634
10355TIP3    H252481   4.915   3.579   2.850 -0.0018  0.4602 -1.3570
10356TIP3   OH252482   2.954   4.269   4.871 -0.4933  0.0338 -0.1231
10356TIP3    H152483   3.020   4.270   4.940 -1.3365 -0.2744  0.7193
10356TIP3    H252484   2.871   4.282   4.918 -1.2982 -2.0820 -0.8342
10357TIP3   OH252485   4.319   1.896  16.428  0.1248  0.1851 -0.0306
10357TIP3    H152486   4.341   1.829  16.493  0.0637  0.9466  0.8099
10357TIP3    H252487   4.259   1.955  16.474 -0.3369  0.4545 -0.9583
10358TIP3   OH252488   3.568   4.293  16.710 -0.5556 -0.5781  0.1959
10358TIP3    H152489   3.582   4.378  16.751 -0.0129 -1.0178  0.9523
10358TIP3    H252490   3.474   4.290  16.691 -0.5595  0.2239  0.0584
10359TIP3   OH252491   0.238   1.175  14.219  0.2633 -0.1007 -0.3064
10359TIP3    H152492   0.150   1.215  14.218  0.4463  0.3057 -0.1860
10359TIP3    H252493   0.298   1.249  14.226  0.5258 -0.5079  3.1849
10360TIP3   OH252494   0.009   0.877   0.143 -0.4928  0.2269  0.3832
10360TIP3    H152495  -0.045   0.810   0.101 -1.1280  0.0026  1.5034
10360TIP3    H252496   0.077   0.828   0.189 -0.3959  0.4070  0.4350
10361TIP3   OH252497   1.062   6.143   3.149  0.6732 -0.2389  0.2278
10361TIP3    H152498   1.086   6.232   3.173 -0.6112  0.1217  0.2574
10361TIP3    H252499   1.127   6.117   3.084  2.7365 -0.3321  2.2097
10362TIP3   OH252500   5.502   1.003  14.955 -0.4631  0.2862  0.1569
10362TIP3    H152501   5.436   0.958  15.008 -0.0463  0.6159  0.9770
10362TIP3    H252502   5.523   1.082  15.005  2.7135 -1.2368  1.4468
10363TIP3   OH252503   1.311   5.492   1.439 -0.6270  0.0432 -0.6026
10363TIP3    H152504   1.264   5.514   1.520 -0.8880  1.5279 -1.1213
10363TIP3    H252505   1.337   5.577   1.403  1.5407 -0.6954 -0.8955
10364TIP3   OH252506   0.792   3.328   6.964  0.2538 -0.0338  0.7620
10364TIP3    H152507   0.750   3.313   6.879  0.4209  0.3000  0.6199
10364TIP3    H252508   0.720   3.320   7.027 -0.1564  1.0994  0.4750
10365TIP3   OH252509   3.561   2.766  16.486 -0.3001  0.0128 -0.2511
10365TIP3    H152510   3.493   2.824  16.452 -0.3743  0.2618  0.2995
10365TIP3    H252511   3.525   2.731  16.567 -1.4430 -3.0840 -1.9244
10366TIP3   OH252512   3.145   1.448   3.080  0.0579 -0.4906  0.1623
10366TIP3    H152513   3.056   1.434   3.111 -0.2416 -3.2697 -1.6004
10366TIP3    H252514   3.198   1.385   3.130  0.4011 -1.3424 -1.2135
10367TIP3   OH252515   2.271   1.218  13.123  0.4090 -0.1316  0.2108
10367TIP3    H152516   2.176   1.203  13.121  0.7412 -2.5889 -0.5909
10367TIP3    H252517   2.290   1.260  13.038  0.0430  0.6331  0.4913
10368TIP3   OH252518   3.399   5.870  15.596 -0.0419  0.5256  0.7881
10368TIP3    H152519   3.473   5.928  15.579 -0.2428  0.8156  0.8988
10368TIP3    H252520   3.335   5.925  15.641  0.2774 -0.0955  2.0367
10369TIP3   OH252521   2.049   3.527  13.800  0.4355  0.1198 -0.1240
10369TIP3    H152522   2.110   3.521  13.874  1.1819  0.5504 -0.6887
10369TIP3    H252523   2.079   3.459  13.739  0.2208  0.2008 -0.3190
10370TIP3   OH252524   2.678   4.939  14.296  0.6937 -0.0141  0.2757
10370TIP3    H152525   2.720   4.949  14.211  0.2942 -1.3341 -0.1053
10370TIP3    H252526   2.635   5.023  14.311 -1.4883 -0.5498 -2.1091
10371TIP3   OH252527   3.933   6.477  14.303  0.4779  0.2804 -0.2035
10371TIP3    H152528   3.943   6.381  14.301 -0.3871  0.1922 -0.8128
10371TIP3    H252529   3.959   6.502  14.392 -1.3601 -0.7726  0.6912
10372TIP3   OH252530   3.046   6.296  17.205  0.0942  0.2862  0.1832
10372TIP3    H152531   3.131   6.252  17.205  0.9598  1.8515  1.2961
10372TIP3    H252532   3.066   6.386  17.180 -1.5262  0.2728 -1.3176
10373TIP3   OH252533   5.621   1.167   4.267  0.2414  0.9366  0.3332
10373TIP3    H152534   5.701   1.205   4.305  1.2429  0.8552 -1.5547
10373TIP3    H252535   5.588   1.236   4.208  0.6343 -0.1207 -1.1757
10374TIP3   OH252536   6.564   6.285  12.803  0.3825  0.2424 -0.1331
10374TIP3    H152537   6.510   6.231  12.745  0.4736  1.9862 -1.9630
10374TIP3    H252538   6.505   6.355  12.832  1.1185  1.1175 -0.6676
10375TIP3   OH252539   5.884   3.292  16.548 -0.9403  0.0120 -0.4433
10375TIP3    H152540   5.907   3.384  16.534 -0.3415 -0.1027 -0.2497
10375TIP3    H252541   5.863   3.287  16.641  0.3484 -0.3109 -0.1511
10376TIP3   OH252542   3.068   5.058  16.741 -0.6276 -0.2130 -0.4512
10376TIP3    H152543   3.135   5.105  16.692  0.1994 -1.0277 -0.1467
10376TIP3    H252544   2.990   5.062  16.686 -0.7400  1.9160 -0.1967
10377TIP3   OH252545   2.775   6.408  12.670 -0.0087 -0.2720  0.2913
10377TIP3    H152546   2.728   6.343  12.722 -1.1448 -0.7581 -1.2374
10377TIP3    H252547   2.764   6.490  12.718  2.1126 -1.2422  2.6667
10378TIP3   OH252548   3.092   4.806  16.879 -0.2140  0.0349 -0.2922
10378TIP3    H152549   3.075   4.881  16.822 -1.6917  0.2604  0.3874
10378TIP3    H252550   3.153   4.751  16.830 -0.8011  0.6273 -1.7293
10379TIP3   OH252551   2.818   4.669   4.563 -0.2323  0.6040  0.7110
10379TIP3    H152552   2.885   4.615   4.605 -1.4481 -1.1227  0.5347
10379TIP3    H252553   2.779   4.612   4.497 -1.7886  1.5991  0.7157
10380TIP3   OH252554   0.453   1.851  13.831 -0.4301  0.2008  0.2154
10380TIP3    H152555   0.404   1.771  13.851 -0.8207  0.6718  1.1719
10380TIP3    H252556   0.412   1.918  13.885 -0.9608  1.3485 -1.5483
10381TIP3   OH252557   2.343   0.497  12.098 -0.2917  0.1965 -0.4204
10381TIP3    H152558   2.360   0.523  12.007  0.1032  0.4617 -0.2735
10381TIP3    H252559   2.353   0.401  12.097  0.1571  0.2404 -0.5692
10382TIP3   OH252560   5.165   0.162   2.861  0.3983  0.5776 -0.4445
10382TIP3    H152561   5.153   0.257   2.871 -0.9808  0.3096  0.7181
10382TIP3    H252562   5.211   0.135   2.940  0.9094  0.2796 -0.8353
10383TIP3   OH252563   4.954   4.579   3.873  0.0700  0.3523  1.1901
10383TIP3    H152564   4.902   4.508   3.835 -1.3213  0.9363  1.9238
10383TIP3    H252565   4.923   4.658   3.829  2.4717  0.4277 -0.5099
10384TIP3   OH252566   1.620   2.448   5.589 -0.1222 -0.2482 -0.2866
10384TIP3    H152567   1.670   2.524   5.619  0.5060 -0.3434 -1.0547
10384TIP3    H252568   1.547   2.486   5.540 -1.1380 -0.0938  1.2728
10385TIP3   OH252569   4.766   2.923   3.753  0.2205  0.3666  0.0419
10385TIP3    H152570   4.739   2.971   3.676 -2.3192  1.2390  1.3745
10385TIP3    H252571   4.705   2.850   3.759  0.8363 -0.1042  0.8505
10386TIP3   OH252572   4.070   0.968  11.883 -0.2588  0.4725  0.6970
10386TIP3    H152573   4.009   0.896  11.897 -0.2692  0.4980  0.7828
10386TIP3    H252574   4.085   1.004  11.970 -1.6624  1.7306  0.4440
10387TIP3   OH252575   3.812   6.317   4.585  0.3731  0.3482 -0.2094
10387TIP3    H152576   3.817   6.257   4.659 -0.3993  0.7864  0.2140
10387TIP3    H252577   3.749   6.384   4.612  0.5316  0.8485 -1.0265
10388TIP3   OH252578   3.546   2.393  16.848 -0.5338  0.2480  0.1603
10388TIP3    H152579   3.608   2.464  16.835  1.8320 -1.9731 -1.7856
10388TIP3    H252580   3.463   2.426  16.816  0.3569  2.2794 -0.1602
10389TIP3   OH252581   1.260   4.777  13.200 -0.4709 -0.4531  0.4164
10389TIP3    H152582   1.293   4.867  13.198 -0.0904 -0.5871 -1.7743
10389TIP3    H252583   1.174   4.782  13.159 -0.0938 -1.2020 -0.4848
10390TIP3   OH252584   4.391   4.933  14.625 -0.3704  0.1039  0.0238
10390TIP3    H152585   4.308   4.893  14.653 -1.9147  2.3988 -0.9356
10390TIP3    H252586   4.378   4.952  14.532  0.6777  1.8176  0.1956
10391TIP3   OH252587   3.355   1.953   5.851  0.2684  0.0863  0.1850
10391TIP3    H152588   3.374   2.042   5.880  0.2105 -0.4834  2.1370
10391TIP3    H252589   3.437   1.905   5.863  0.0357 -0.3458  0.0937
10392TIP3   OH252590   2.980   3.445   3.639  0.7785  0.3160  0.1486
10392TIP3    H152591   2.885   3.451   3.623  0.3588 -1.9807  1.2664
10392TIP3    H252592   3.013   3.396   3.564  1.2632  1.7936 -0.6386
10393TIP3   OH252593   4.451   5.215   3.322  0.5236  0.3344  0.4768
10393TIP3    H152594   4.435   5.218   3.228  0.0276 -0.0491  0.5370
10393TIP3    H252595   4.415   5.130   3.349 -1.8951  1.5634  1.4445
10394TIP3   OH252596   3.043   6.377  13.804  0.3288 -0.1140  0.4949
10394TIP3    H152597   3.092   6.452  13.835 -0.5331  0.5508  0.3046
10394TIP3    H252598   3.007   6.337  13.883 -1.4800  1.3062  0.4673
10395TIP3   OH252599   0.192   0.675   0.149  0.0215  0.2086  0.3889
10395TIP3    H152600   0.205   0.681   0.054 -0.9242  1.0332  0.2981
10395TIP3    H252601   0.189   0.581   0.166  2.6392 -0.0270 -0.0150
10396TIP3   OH252602   5.851   3.859   3.949 -0.1676  0.2990 -0.4089
10396TIP3    H152603   5.822   3.847   4.040  1.1732 -2.1707 -0.2131
10396TIP3    H252604   5.790   3.923   3.913 -0.6702  1.4707  2.2514
10397TIP3   OH252605   0.647   1.268   5.270 -0.6907 -0.2908 -0.2631
10397TIP3    H152606   0.557   1.289   5.244 -1.0932  1.1228  2.0118
10397TIP3    H252607   0.638   1.211   5.346  0.2145  1.9551  1.6440
10398TIP3   OH252608   0.748   2.230  11.522 -0.1458  0.3252  0.1195
10398TIP3    H152609   0.712   2.317  11.540  3.4224  1.1596  5.3461
10398TIP3    H252610   0.843   2.241  11.530  0.8613 -3.3862 -3.5145
10399TIP3   OH252611   6.401   1.403   4.380 -0.1153 -0.2840 -0.1737
10399TIP3    H152612   6.483   1.366   4.411 -0.1650 -0.1146  0.1616
10399TIP3    H252613   6.414   1.498   4.386  0.0774 -0.2322 -1.1947
10400TIP3   OH252614   4.340   6.653   1.299  0.3845  0.3407  0.1523
10400TIP3    H152615   4.277   6.636   1.369  0.1861 -0.4804 -0.2063
10400TIP3    H252616   4.368   6.565   1.270  0.6486  0.6710 -0.6250
10401TIP3   OH252617   0.964   4.916   2.770  0.5012 -0.7524  0.0893
10401TIP3    H152618   0.899   4.866   2.819  0.9165 -0.6969  0.7043
10401TIP3    H252619   1.039   4.856   2.761  1.5217  0.1783  1.9813
10402TIP3   OH252620   5.282   5.700  15.133 -0.1209  0.1724 -0.1886
10402TIP3    H152621   5.196   5.738  15.113 -0.4609 -1.7856 -3.2561
10402TIP3    H252622   5.268   5.605  15.124  2.0925 -0.2805  0.5304
10403TIP3   OH252623   2.030   4.299  11.634 -0.0700 -0.3678  0.6374
10403TIP3    H152624   2.103   4.262  11.683  0.3022 -0.4022  0.0737
10403TIP3    H252625   2.070   4.366  11.578 -0.3524 -0.9199 -0.2390
10404TIP3   OH252626   2.791   0.505  14.649 -0.0421 -0.4154  0.2630
10404TIP3    H152627   2.734   0.485  14.722  0.5583  0.1016  0.8869
10404TIP3    H252628   2.860   0.439  14.652 -0.6340 -1.1012 -0.5499
10405TIP3   OH252629   4.116   1.258  13.511  0.1539  0.4865  0.2694
10405TIP3    H152630   4.132   1.339  13.462 -0.3570  0.1414 -0.4904
10405TIP3    H252631   4.035   1.275  13.560  1.1147  1.1339  1.6936
10406TIP3   OH252632   5.734   0.559   4.703 -0.7076  0.3957  0.3769
10406TIP3    H152633   5.770   0.648   4.705  0.6090 -0.0856 -0.5962
10406TIP3    H252634   5.739   0.533   4.611 -3.1272  0.0864  0.2766
10407TIP3   OH252635   1.243   1.121   3.531 -0.2501  0.2440 -0.4453
10407TIP3    H152636   1.192   1.187   3.484 -1.2176 -0.4831 -0.4555
10407TIP3    H252637   1.247   1.047   3.470  0.4061  0.1188 -0.2483
10408TIP3   OH252638   5.237   0.794  15.378 -0.0039 -0.4866  1.1028
10408TIP3    H152639   5.297   0.847  15.429 -0.9266  0.5604  1.1431
10408TIP3    H252640   5.167   0.771  15.439 -0.1968 -0.7690  0.7813
10409TIP3   OH252641   0.625   2.352   5.687  0.1621  0.4427  0.2341
10409TIP3    H152642   0.678   2.392   5.756 -0.6450 -0.0009  1.1390
10409TIP3    H252643   0.536   2.383   5.705 -0.1385 -0.0833 -0.3171
10410TIP3   OH252644   2.705   6.348  14.678 -0.2643  0.2727  0.1103
10410TIP3    H152645   2.693   6.256  14.701 -2.2333  0.4673  0.0391
10410TIP3    H252646   2.636   6.394  14.725  0.6104  1.7203  0.0520
10411TIP3   OH252647   1.593   1.114   3.243  0.0411  0.0087 -0.5691
10411TIP3    H152648   1.593   1.019   3.259  1.5719 -0.2086 -1.6187
10411TIP3    H252649   1.518   1.128   3.186  0.1268 -0.6661 -0.8610
10412TIP3   OH252650   1.018   0.759  11.851  0.1801  0.0460  0.7376
10412TIP3    H152651   1.026   0.829  11.786 -0.7032 -0.0121  0.5428
10412TIP3    H252652   1.066   0.791  11.927  3.6188 -1.0326 -0.8003
10413TIP3   OH252653   3.870   2.412  11.356 -0.2204  0.6983 -0.1479
10413TIP3    H152654   3.893   2.334  11.406 -1.6663  0.0033 -0.5119
10413TIP3    H252655   3.837   2.474  11.422 -0.5023  0.4264 -0.0291
10414TIP3   OH252656   0.606   1.539   0.641  0.1194 -0.3361  0.3807
10414TIP3    H152657   0.582   1.625   0.605  1.0985 -0.8521 -1.6254
10414TIP3    H252658   0.555   1.477   0.589 -1.3291 -0.9940  2.4536
10415TIP3   OH252659   1.190   3.285   6.054  0.2736  0.1549 -0.1512
10415TIP3    H152660   1.240   3.363   6.079 -1.0289  1.1865 -0.6558
10415TIP3    H252661   1.157   3.304   5.967 -2.4424  0.2888  0.8240
10416TIP3   OH252662   0.285   0.647  17.134 -0.1486 -1.0757  0.2381
10416TIP3    H152663   0.233   0.649  17.054 -0.5401 -0.0771  0.4949
10416TIP3    H252664   0.345   0.574  17.122  1.1114  0.2047 -1.8052
10417TIP3   OH252665   2.713   1.297   2.291  0.1941 -0.2556 -0.2167
10417TIP3    H152666   2.793   1.272   2.338 -0.7313 -0.6457  1.2280
10417TIP3    H252667   2.699   1.226   2.228  0.1805 -0.9915  0.5813
10418TIP3   OH252668   0.307   5.786   5.623 -0.6114  0.5125  0.0990
10418TIP3    H152669   0.318   5.725   5.696 -1.1404  1.7234  1.2287
10418TIP3    H252670   0.248   5.740   5.563  1.2736 -1.2679 -0.5197
10419TIP3   OH252671   0.567   5.946  15.485  0.2445 -0.7319 -0.0811
10419TIP3    H152672   0.556   6.036  15.518 -2.6035 -1.0834  0.2069
10419TIP3    H252673   0.596   5.896  15.562  1.8124 -0.1188 -0.2323
10420TIP3   OH252674   6.375   0.327   0.577  0.0233  0.1664 -0.4682
10420TIP3    H152675   6.302   0.283   0.532 -0.0036 -0.8371  0.5233
10420TIP3    H252676   6.453   0.295   0.532  0.0195 -1.1041  0.3600
10421TIP3   OH252677   5.834   4.922   4.969 -0.0559  0.6772  0.5654
10421TIP3    H152678   5.762   4.878   4.924  2.0800 -3.3658  0.6361
10421TIP3    H252679   5.820   4.900   5.061  1.8433 -1.3954  0.4455
10422TIP3   OH252680   2.465   6.267   6.108 -0.5013 -0.6739  0.2405
10422TIP3    H152681   2.480   6.172   6.115 -0.0302 -0.7984 -1.9014
10422TIP3    H252682   2.382   6.281   6.153 -0.5591 -2.0954  0.6402
10423TIP3   OH252683   0.782   2.688   4.115  0.3152  0.0962  0.3882
10423TIP3    H152684   0.715   2.628   4.082 -0.7261  1.1271  0.5503
10423TIP3    H252685   0.787   2.757   4.049  1.6453 -0.2513  0.1045
10424TIP3   OH252686   0.617   2.525   0.008  0.0362  0.0348 -0.5358
10424TIP3    H152687   0.586   2.493  -0.077  0.7048  0.8802 -1.1169
10424TIP3    H252688   0.663   2.451   0.046  0.4731 -0.1051 -1.3006
10425TIP3   OH252689   1.014   6.498   4.729  0.0533  0.9484  0.1795
10425TIP3    H152690   0.934   6.523   4.774 -0.2449 -0.1228  0.2725
10425TIP3    H252691   1.041   6.577   4.682 -0.3290  1.6975  1.1997
10426TIP3   OH252692   4.691   2.526  16.420 -0.3014 -0.7750  0.6585
10426TIP3    H152693   4.619   2.463  16.415 -0.8676 -0.1690  0.9993
10426TIP3    H252694   4.692   2.568  16.334  0.2897 -1.4718  0.3209
10427TIP3   OH252695   6.334   1.173  10.184  0.2135 -0.1467 -0.1477
10427TIP3    H152696   6.252   1.185  10.137  0.1466  1.5090  0.3166
10427TIP3    H252697   6.317   1.208  10.271  2.0919  2.7702 -0.7977
10428TIP3   OH252698   1.375   5.832  10.548 -0.0028  0.0498 -0.2308
10428TIP3    H152699   1.356   5.788  10.630 -0.9620  0.7314 -0.0733
10428TIP3    H252700   1.290   5.852  10.510  0.3710  1.8215 -0.2603
10429TIP3   OH252701   3.451   3.243   5.870 -0.1054 -0.4469 -0.3951
10429TIP3    H152702   3.529   3.286   5.906 -0.2290 -0.1888 -0.4315
10429TIP3    H252703   3.378   3.284   5.917 -0.2000 -0.9173 -0.1279
10430TIP3   OH252704   6.226   6.455   3.348  0.2301  0.9140 -0.3918
10430TIP3    H152705   6.279   6.452   3.268 -1.1057  1.0257 -1.3180
10430TIP3    H252706   6.139   6.482   3.318 -0.9526 -1.4000  0.7514
10431TIP3   OH252707   4.694   2.949   5.496  0.0456  0.0223  0.0941
10431TIP3    H152708   4.614   2.983   5.537 -1.1973  0.7933 -2.7655
10431TIP3    H252709   4.749   3.027   5.485 -0.3777  0.1476 -1.2382
10432TIP3   OH252710   0.066   6.223   1.854 -0.6860 -0.2167 -0.0118
10432TIP3    H152711   0.102   6.221   1.765  0.0258  0.1320  0.2632
10432TIP3    H252712   0.139   6.251   1.909 -1.7677  2.1261  0.3517
10433TIP3   OH252713   6.402   5.261   3.380  0.2544 -0.1752 -0.6807
10433TIP3    H152714   6.417   5.354   3.398  2.2936 -0.7556  1.0686
10433TIP3    H252715   6.379   5.257   3.288  1.6755  1.9360 -1.1845
10434TIP3   OH252716   6.732   2.384   2.678 -0.2465  0.0489 -0.0830
10434TIP3    H152717   6.653   2.414   2.723  0.5713  1.5684  0.4004
10434TIP3    H252718   6.749   2.450   2.612  0.0056 -0.8497 -0.9362
10435TIP3   OH252719   0.800   0.016   0.395 -0.3181  0.0851 -0.7945
10435TIP3    H152720   0.837  -0.071   0.380 -0.4618  0.0524 -0.9515
10435TIP3    H252721   0.776   0.048   0.308 -0.9171 -0.0045 -0.6628
10436TIP3   OH252722   3.433   3.313   4.748  0.0562  0.2539 -0.2941
10436TIP3    H152723   3.493   3.256   4.795  0.0248  0.1774 -0.3468
10436TIP3    H252724   3.368   3.254   4.710  0.0742  0.3165 -0.4236
10437TIP3   OH252725   5.821   2.213  16.466  0.1798 -0.6174 -0.3636
10437TIP3    H152726   5.917   2.208  16.461  0.2458 -1.0517  1.0134
10437TIP3    H252727   5.793   2.207  16.375  1.4359 -1.1577 -0.7476
10438TIP3   OH252728   6.738   2.811  12.187  0.0179  0.4568  0.3815
10438TIP3    H152729   6.681   2.848  12.120  0.3528  1.0105  0.3989
10438TIP3    H252730   6.760   2.724  12.154  1.4391  1.2852 -1.0033
10439TIP3   OH252731   2.412   1.710  16.087  0.4670 -0.0096  0.1076
10439TIP3    H152732   2.320   1.685  16.091  0.7185 -1.1188 -0.6287
10439TIP3    H252733   2.459   1.637  16.127  1.0461  0.3992  0.1801
10440TIP3   OH252734   0.232   3.929  11.233 -0.4241  0.1430 -0.2328
10440TIP3    H152735   0.300   3.921  11.301  0.8403 -0.6254 -1.5239
10440TIP3    H252736   0.279   3.963  11.157 -1.8856  1.3318 -0.6483
10441TIP3   OH252737   4.049   2.084   4.647  0.2913  0.0585  0.5725
10441TIP3    H152738   3.957   2.059   4.637  0.4945 -0.1653 -1.0061
10441TIP3    H252739   4.076   2.045   4.730 -0.8580 -0.4209  0.7350
10442TIP3   OH252740   4.778   2.637  17.198 -0.8881 -0.2168 -0.2292
10442TIP3    H152741   4.756   2.710  17.140 -0.6585 -1.6916 -2.2828
10442TIP3    H252742   4.827   2.576  17.142 -1.2039 -2.0219  1.3652
10443TIP3   OH252743   6.619   6.380  17.092  0.5637 -0.5009  0.4328
10443TIP3    H152744   6.550   6.335  17.140 -2.2756  2.1057 -0.8313
10443TIP3    H252745   6.575   6.413  17.013  3.1866  1.5352 -0.3169
10444TIP3   OH252746   6.502   5.415  15.655 -0.0502  0.0475  0.5984
10444TIP3    H152747   6.585   5.408  15.608  0.2799  3.0179  0.5637
10444TIP3    H252748   6.524   5.458  15.737 -1.4508  0.1148  0.9772
10445TIP3   OH252749   3.839   0.025   0.919 -0.3814  0.8323  0.3979
10445TIP3    H152750   3.869  -0.047   0.975  0.8126  2.1438  1.5103
10445TIP3    H252751   3.762  -0.011   0.873 -0.4149 -0.8127  1.6474
10446TIP3   OH252752   2.664   0.776   4.964 -0.4552 -0.0573 -0.0114
10446TIP3    H152753   2.682   0.682   4.974 -1.4037 -0.3386 -0.7591
10446TIP3    H252754   2.667   0.791   4.870  0.5824  0.8693  0.1593
10447TIP3   OH252755   4.203   2.706   4.340 -0.1157 -0.0935  0.3720
10447TIP3    H152756   4.164   2.664   4.263 -1.1364  0.3734  0.6198
10447TIP3    H252757   4.208   2.798   4.316  1.0913 -0.1844  0.2489
10448TIP3   OH252758   5.933   4.519  15.703 -0.0615 -0.1118 -0.2908
10448TIP3    H152759   5.857   4.517  15.644  0.1343  2.9685 -0.8507
10448TIP3    H252760   6.005   4.487  15.649 -0.4755 -0.4879 -0.6342
10449TIP3   OH252761   2.632   1.577   5.218  0.5070  0.3137  0.0706
10449TIP3    H152762   2.594   1.662   5.238 -0.7925  0.3972 -2.4839
10449TIP3    H252763   2.592   1.550   5.136  1.6372 -2.3289  0.2642
10450TIP3   OH252764   2.110   4.030   5.748 -0.0048 -0.5064  0.7317
10450TIP3    H152765   2.116   4.104   5.808  1.7012 -0.1426  0.1749
10450TIP3    H252766   2.142   3.955   5.799  2.6546  0.0313 -0.0054
10451TIP3   OH252767   6.674   1.090   1.472  0.1441 -0.3158  0.3121
10451TIP3    H152768   6.644   1.166   1.521  0.3699  0.6625 -1.0228
10451TIP3    H252769   6.769   1.096   1.475  0.1626 -0.5422  0.1798
10452TIP3   OH252770   3.646   5.418   6.817 -0.1660  0.2067  0.2894
10452TIP3    H152771   3.725   5.368   6.838 -1.9147 -2.4304  1.0684
10452TIP3    H252772   3.605   5.434   6.902 -0.1643  2.2425 -0.0354
10453TIP3   OH252773   5.465   6.275  12.970 -0.0086 -0.7794  0.1414
10453TIP3    H152774   5.460   6.362  13.009 -0.0897 -0.5378 -0.4148
10453TIP3    H252775   5.466   6.290  12.876 -0.3762 -1.3939  0.0355
10454TIP3   OH252776   4.409   5.469  14.427  0.4799 -0.0613 -0.2473
10454TIP3    H152777   4.384   5.390  14.475 -1.2089 -0.1281 -1.1618
10454TIP3    H252778   4.335   5.487  14.370  1.3472  1.5020 -0.9511
10455TIP3   OH252779   2.848   6.025   1.652 -0.0687  0.3837  0.0689
10455TIP3    H152780   2.793   5.946   1.660 -0.6162  0.7730  0.1985
10455TIP3    H252781   2.804   6.078   1.587 -0.9909  1.6202  1.6305
10456TIP3   OH252782   3.791   3.410  15.276 -0.5026 -0.3972  0.1322
10456TIP3    H152783   3.711   3.402  15.223 -0.9229 -0.8359  0.8107
10456TIP3    H252784   3.836   3.327  15.265  1.0765  0.6746 -2.1053
10457TIP3   OH252785   5.588   4.667  13.319  0.6351  0.0570 -0.2001
10457TIP3    H152786   5.678   4.686  13.294  0.3162  0.7540 -0.8433
10457TIP3    H252787   5.546   4.638  13.238 -0.0266  0.8956 -0.1758
10458TIP3   OH252788   0.654   5.586  12.992 -0.4183 -0.6697  0.2577
10458TIP3    H152789   0.664   5.681  12.989  2.0429 -0.8396  0.8562
10458TIP3    H252790   0.630   5.566  13.083 -0.9911 -0.6408  0.1189
10459TIP3   OH252791   0.347   1.053   1.055  0.3261 -0.3207  0.3970
10459TIP3    H152792   0.407   1.018   1.121  1.8633  1.1431 -0.1690
10459TIP3    H252793   0.329   1.143   1.083  0.6966  0.1987 -0.9454
10460TIP3   OH252794   0.160   5.424  13.750  0.3727 -0.0346  0.2615
10460TIP3    H152795   0.087   5.463  13.798 -0.9031 -1.5796 -0.3176
10460TIP3    H252796   0.235   5.431  13.809 -1.0009 -1.3163  2.2806
10461TIP3   OH252797   0.300   5.623   2.095  0.4519  0.0349 -0.3956
10461TIP3    H152798   0.278   5.535   2.064  1.2046  0.4496 -2.1873
10461TIP3    H252799   0.354   5.661   2.026  3.5553  0.4955  2.0596
10462TIP3   OH252800   2.364   3.768   5.039 -0.1199 -0.0937  0.2065
10462TIP3    H152801   2.334   3.690   4.991 -2.2241  0.8879 -0.1984
10462TIP3    H252802   2.311   3.839   5.003  2.0237  1.6197  0.2821
10463TIP3   OH252803   0.179   6.669  15.683 -0.3604 -0.6266  0.4217
10463TIP3    H152804   0.094   6.706  15.706  0.2153  0.7948  0.3943
10463TIP3    H252805   0.159   6.585  15.641 -1.8941  0.7040 -1.7170
10464TIP3   OH252806   2.324   1.844  14.584 -0.3168  0.5798 -0.1604
10464TIP3    H152807   2.356   1.790  14.656 -0.2066 -2.3746 -2.2117
10464TIP3    H252808   2.228   1.838  14.591 -0.3091 -0.4588 -0.7071
10465TIP3   OH252809   5.258   3.808   1.286 -0.4146  0.0801 -0.2368
10465TIP3    H152810   5.320   3.861   1.337 -2.8638  0.7288  2.3532
10465TIP3    H252811   5.305   3.726   1.269  1.4062  0.8242  0.9073
10466TIP3   OH252812   3.100   5.739  12.645 -0.0529  0.2651  0.1348
10466TIP3    H152813   3.161   5.765  12.715  0.0719  1.8692 -0.5317
10466TIP3    H252814   3.155   5.727  12.568 -0.4777  0.9481 -0.2821
10467TIP3   OH252815   4.350   3.752   5.923  0.5568 -0.1700  0.2506
10467TIP3    H152816   4.382   3.800   5.846 -0.8465 -1.1712 -1.0215
10467TIP3    H252817   4.418   3.763   5.989  2.4825 -0.4606 -1.6020
10468TIP3   OH252818   1.319   5.692  12.194  0.5944 -0.4418 -0.5703
10468TIP3    H152819   1.308   5.642  12.113  0.5611 -2.2252  0.4822
10468TIP3    H252820   1.229   5.712  12.221  0.6272  1.1084 -1.4937
10469TIP3   OH252821   3.622   2.362   6.108 -0.6861 -0.1964 -0.3495
10469TIP3    H152822   3.616   2.427   6.178 -0.2801 -0.7290  0.1940
10469TIP3    H252823   3.638   2.413   6.029 -0.4458  0.3733  0.0572
10470TIP3   OH252824   0.385   3.757   1.424  0.2515 -0.3991  0.3731
10470TIP3    H152825   0.295   3.747   1.393  0.0112 -1.0404  1.2469
10470TIP3    H252826   0.389   3.706   1.505  0.7076  1.5928  1.6854
10471TIP3   OH252827   2.799   6.695   1.488  0.1162 -0.4788 -0.6796
10471TIP3    H152828   2.786   6.790   1.493  0.1734 -0.5216  2.6340
10471TIP3    H252829   2.716   6.658   1.519 -0.4235 -1.6431 -3.2752
10472TIP3   OH252830   0.640   1.892  14.500 -0.4908  0.1636  0.2450
10472TIP3    H152831   0.583   1.941  14.441  0.6703  0.8092 -0.3696
10472TIP3    H252832   0.604   1.803  14.501 -1.7086  0.6413  0.1652
10473TIP3   OH252833   6.379   1.659  12.628 -0.0690  0.2668  0.2784
10473TIP3    H152834   6.283   1.656  12.621 -0.2690 -0.8942  2.4380
10473TIP3    H252835   6.410   1.603  12.558 -1.0163 -0.0461  0.0917
10474TIP3   OH252836   3.129   6.689   4.417  0.3102 -0.2874  0.3885
10474TIP3    H152837   3.142   6.770   4.368 -0.7073 -0.4402 -0.1486
10474TIP3    H252838   3.036   6.670   4.410  0.3610 -1.0010  1.3139
10475TIP3   OH252839   1.328   4.325  16.136  0.4667  0.3023  0.3165
10475TIP3    H152840   1.403   4.278  16.173  0.1550  0.1596  0.7779
10475TIP3    H252841   1.252   4.280  16.171  0.1287 -0.5914 -1.4316
10476TIP3   OH252842   1.398   4.770   3.140  0.1137  0.5096  0.1350
10476TIP3    H152843   1.458   4.796   3.071  0.3037  0.7610  0.3914
10476TIP3    H252844   1.329   4.836   3.138 -0.8262 -0.4745 -0.9886
10477TIP3   OH252845   0.095   2.655  11.171 -0.5166  0.9228  0.1003
10477TIP3    H152846   0.159   2.626  11.106 -1.3031 -1.0792  0.1508
10477TIP3    H252847   0.101   2.590  11.241 -0.0799  2.7233  1.8160
10478TIP3   OH252848   3.089   1.727   5.445  0.0973 -0.5870 -0.0941
10478TIP3    H152849   3.152   1.668   5.402 -0.3018 -0.8414 -0.3322
10478TIP3    H252850   3.014   1.672   5.466 -1.0436  0.1680 -1.9242
10479TIP3   OH252851   1.743   0.472   5.069  0.0280 -0.3210 -0.3010
10479TIP3    H152852   1.716   0.517   5.149 -0.0235 -1.6135  0.4367
10479TIP3    H252853   1.765   0.383   5.097  2.0910 -0.2123 -1.3774
10480TIP3   OH252854   6.275   5.240   3.681 -0.4420  0.0764  0.1644
10480TIP3    H152855   6.300   5.148   3.692  0.5036  0.3573  0.4958
10480TIP3    H252856   6.242   5.246   3.591 -1.3818 -0.7659  0.4377
10481TIP3   OH252857   6.180   3.561   2.664  0.1988  0.5550 -0.3310
10481TIP3    H152858   6.237   3.524   2.732 -0.9097  1.9994  1.4917
10481TIP3    H252859   6.186   3.499   2.591  0.7268 -1.6100  1.4281
10482TIP3   OH252860   3.606   2.142  15.311 -0.4018 -0.1957 -0.2749
10482TIP3    H152861   3.625   2.063  15.361 -0.2036 -0.5802 -0.9450
10482TIP3    H252862   3.679   2.151  15.250 -0.0337  0.9426  0.3124
10483TIP3   OH252863   4.502   0.423   2.193 -0.8526 -0.4912 -0.1324
10483TIP3    H152864   4.596   0.405   2.199 -0.9761 -0.6935  1.8695
10483TIP3    H252865   4.495   0.496   2.130  0.5727 -0.8091 -0.6903
10484TIP3   OH252866   6.460   6.075   2.486 -0.0950  0.0714 -0.0975
10484TIP3    H152867   6.496   5.990   2.510  0.8074  0.3970 -0.2424
10484TIP3    H252868   6.520   6.109   2.419 -0.3034  0.9173  0.1241
10485TIP3   OH252869   0.270   6.214   5.720  0.3928  0.2442 -0.8512
10485TIP3    H152870   0.337   6.172   5.774  1.0032  1.1881 -0.8353
10485TIP3    H252871   0.300   6.203   5.630 -1.1346 -2.2086 -1.1352
10486TIP3   OH252872   6.458   2.240   5.119  0.3667  0.4467  0.3728
10486TIP3    H152873   6.551   2.265   5.117  0.1738  1.1366 -0.8641
10486TIP3    H252874   6.439   2.227   5.212  2.0339 -1.0136  0.5711
10487TIP3   OH252875   6.719   1.484   4.025 -0.4594 -0.4721 -0.6028
10487TIP3    H152876   6.764   1.565   3.999 -1.0692  0.2628  0.5232
10487TIP3    H252877   6.702   1.439   3.943  1.0559 -0.0946 -1.1729
10488TIP3   OH252878   0.517   4.608   1.466 -0.4175  0.0255  0.6831
10488TIP3    H152879   0.480   4.578   1.383  0.1774 -0.0971  0.4604
10488TIP3    H252880   0.444   4.603   1.528 -0.6193 -0.7878  0.3862
10489TIP3   OH252881   0.374   2.251  14.057  0.1893  0.3069 -0.4534
10489TIP3    H152882   0.308   2.253  14.126  0.7637 -1.5045  0.2062
10489TIP3    H252883   0.426   2.330  14.070 -1.6936  1.6871 -0.8808
10490TIP3   OH252884   3.180   0.370   0.404  0.2207 -0.2865  0.1634
10490TIP3    H152885   3.149   0.281   0.391 -1.0857  0.3418 -1.3316
10490TIP3    H252886   3.146   0.396   0.490 -4.7502  0.7546 -1.7692
10491TIP3   OH252887   1.954   5.433  13.832 -0.1601  0.4786  0.4548
10491TIP3    H152888   2.016   5.477  13.891 -1.1358  2.1287  0.3183
10491TIP3    H252889   1.877   5.489  13.833 -1.2005 -0.8830 -0.3462
10492TIP3   OH252890   5.767   0.369  15.508 -0.1104 -0.2216 -0.5092
10492TIP3    H152891   5.718   0.434  15.457  0.1507 -1.6771 -2.7474
10492TIP3    H252892   5.758   0.399  15.598 -1.8041  1.7229 -1.2207
10493TIP3   OH252893   0.799   1.721   4.900 -0.0677  0.1954  0.5599
10493TIP3    H152894   0.873   1.667   4.872  0.1269 -0.0547  1.5009
10493TIP3    H252895   0.722   1.667   4.886  0.1422 -0.4375  1.6826
10494TIP3   OH252896   5.614   6.334  11.419 -0.0717 -0.5767 -0.1519
10494TIP3    H152897   5.692   6.281  11.405  1.1351  0.9989  0.4121
10494TIP3    H252898   5.619   6.402  11.352 -1.1627 -0.6611 -0.3382
10495TIP3   OH252899   2.702   3.890  11.293 -0.1155  0.0424  0.1595
10495TIP3    H152900   2.746   3.931  11.219 -1.0764 -0.3340 -0.6510
10495TIP3    H252901   2.615   3.868  11.259 -0.8280  0.5018  1.6076
10496TIP3   OH252902   3.365   3.912   6.178 -0.7143 -0.7496 -0.8467
10496TIP3    H152903   3.289   3.854   6.188 -1.6223  0.6595  1.2745
10496TIP3    H252904   3.329   4.000   6.190  1.0552  0.0553 -1.1924
10497TIP3   OH252905   4.645   2.147   2.619  0.4419  0.3414 -0.1861
10497TIP3    H152906   4.736   2.121   2.604  0.4468 -1.0929  1.9456
10497TIP3    H252907   4.593   2.072   2.592 -0.1477  1.0609 -1.1535
10498TIP3   OH252908   0.909   6.523  11.965 -0.3571  0.0879 -0.1212
10498TIP3    H152909   0.969   6.592  11.937  1.0796 -0.5414  1.2558
10498TIP3    H252910   0.884   6.478  11.884  1.8137 -0.2426 -0.6665
10499TIP3   OH252911   5.434   6.213  14.162 -0.0716  0.1973  0.0009
10499TIP3    H152912   5.387   6.140  14.203 -1.0995  1.4716  1.1502
10499TIP3    H252913   5.507   6.231  14.221  0.8195 -0.5628 -0.8325
10500TIP3   OH252914   6.042   3.595  13.116  0.1448  0.3927 -0.2462
10500TIP3    H152915   5.982   3.521  13.129  0.5516  0.3253  1.5537
10500TIP3    H252916   5.991   3.660  13.069 -1.1749  0.0961  0.7211
10501TIP3   OH252917   3.010   3.448   5.722 -0.3620  0.3600 -0.2225
10501TIP3    H152918   2.989   3.488   5.638 -2.0400  0.7542  0.3501
10501TIP3    H252919   2.929   3.453   5.772  0.4037 -0.5173  1.1700
10502TIP3   OH252920   0.404   2.385  11.186  0.1795  0.5494 -0.2390
10502TIP3    H152921   0.412   2.458  11.248  0.6292  0.0266  0.3397
10502TIP3    H252922   0.375   2.425  11.105  0.7068  1.4237 -0.0126
10503TIP3   OH252923   3.437   6.350   5.365 -0.2682 -0.3027  0.0483
10503TIP3    H152924   3.409   6.438   5.338 -1.3418 -1.3786 -2.6267
10503TIP3    H252925   3.356   6.302   5.378  0.2995 -1.3808 -0.2824
10504TIP3   OH252926   2.902   3.088   0.693 -0.5062 -0.0422  0.4590
10504TIP3    H152927   2.944   3.170   0.720 -0.8356  0.4093 -0.3548
10504TIP3    H252928   2.951   3.020   0.738 -0.5367  0.6319  1.5478
10505TIP3   OH252929   5.693   2.950   0.421 -0.3347 -0.1879  0.3467
10505TIP3    H152930   5.622   2.912   0.472 -2.0424  0.2953 -1.5223
10505TIP3    H252931   5.725   2.877   0.368  0.3450 -0.3171  0.9199
10506TIP3   OH252932   5.777   3.425  11.424  0.4290 -0.0032 -0.8556
10506TIP3    H152933   5.797   3.484  11.352 -2.4129 -2.0820 -3.6182
10506TIP3    H252934   5.693   3.456  11.458  0.9251 -0.0597  0.4816
10507TIP3   OH252935   3.963   4.924  15.932 -0.9188  0.0969  0.1458
10507TIP3    H152936   3.896   4.877  15.883 -1.3960 -1.3965  2.0971
10507TIP3    H252937   3.937   5.016  15.927 -2.7145 -0.3701  0.2351
10508TIP3   OH252938   3.072   1.912  12.407  0.2966  0.2347 -0.2860
10508TIP3    H152939   3.111   1.931  12.321  2.0349  0.3399  0.4788
10508TIP3    H252940   2.984   1.881  12.387  0.5066  0.6760 -2.0799
10509TIP3   OH252941   4.089   0.866  15.482 -0.1739  0.0050 -0.1582
10509TIP3    H152942   4.159   0.828  15.429 -0.1421 -0.1270 -0.0213
10509TIP3    H252943   4.008   0.834  15.442 -0.1476 -0.1988 -0.0497
10510TIP3   OH252944   3.102   3.092  16.288  0.5501 -0.1294 -0.5592
10510TIP3    H152945   3.053   3.033  16.231  2.9491 -2.5358 -0.3595
10510TIP3    H252946   3.134   3.160  16.229  0.3118 -0.7843 -1.4707
10511TIP3   OH252947   2.725   2.680   0.462 -0.2219 -0.3163  0.4656
10511TIP3    H152948   2.629   2.687   0.464 -0.2072 -0.0777  0.2581
10511TIP3    H252949   2.743   2.598   0.508 -0.5124 -0.2250  0.7501
10512TIP3   OH252950   1.827   3.259  16.545  1.2726 -0.0136 -0.9170
10512TIP3    H152951   1.740   3.250  16.506  0.6601 -1.3173  0.6507
10512TIP3    H252952   1.852   3.170  16.569  1.8603  0.6450  1.1166
10513TIP3   OH252953   5.655   5.766  11.848 -0.2523  0.0717 -0.6377
10513TIP3    H152954   5.591   5.821  11.802  1.1473  0.6110 -2.0505
10513TIP3    H252955   5.626   5.677  11.831 -1.0673  0.3264 -0.5995
10514TIP3   OH252956   2.962   6.466  11.969  0.0960  0.1955 -0.0962
10514TIP3    H152957   2.894   6.467  11.902 -0.4473 -0.2706  0.4438
10514TIP3    H252958   2.983   6.373  11.980 -1.5665 -0.0051  2.1090
10515TIP3   OH252959   1.713   5.367   0.992 -0.0172  0.2843 -0.3479
10515TIP3    H152960   1.746   5.317   0.918  1.1292  0.2782  0.1405
10515TIP3    H252961   1.656   5.434   0.953 -0.6512 -0.6586 -1.0896
10516TIP3   OH252962   6.197   0.783   1.447 -0.1455  0.6784 -0.6963
10516TIP3    H152963   6.255   0.761   1.521  0.0755 -2.1711 -1.5918
10516TIP3    H252964   6.142   0.854   1.480  0.0094 -0.4031  2.1935
10517TIP3   OH252965   3.173   1.596   0.190  0.8480 -0.5499 -0.4375
10517TIP3    H152966   3.216   1.671   0.232  1.8291 -1.8103  0.9177
10517TIP3    H252967   3.197   1.603   0.098  0.7259  0.9145 -0.3803
10518TIP3   OH252968   0.373   1.848   4.668 -0.1688  0.1822 -0.0920
10518TIP3    H152969   0.324   1.791   4.609 -0.7027  0.6853 -0.1464
10518TIP3    H252970   0.465   1.825   4.652 -0.4048 -1.5070  0.7633
10519TIP3   OH252971   1.538   1.676  13.330 -0.2980  0.2992  0.6668
10519TIP3    H152972   1.508   1.745  13.389  2.9384  2.8573 -0.3436
10519TIP3    H252973   1.627   1.656  13.359  0.3902 -0.3364 -1.6460
10520TIP3   OH252974   6.091   2.435   5.136  0.9288 -0.5692 -0.1416
10520TIP3    H152975   6.030   2.448   5.209 -1.7866 -1.5541 -2.0483
10520TIP3    H252976   6.094   2.340   5.125  1.0199 -0.4220 -1.5034
10521TIP3   OH252977   3.088   5.748  13.371  0.1914 -0.2267 -1.1558
10521TIP3    H152978   3.151   5.819  13.356  1.5897 -0.9829  0.8000
10521TIP3    H252979   3.003   5.789  13.356  0.9391  1.9221 -0.0303
10522TIP3   OH252980   0.794   6.263   3.831  0.3244  0.2235  0.5804
10522TIP3    H152981   0.847   6.254   3.751 -0.8399  1.3315 -0.3719
10522TIP3    H252982   0.803   6.179   3.875  0.3926 -0.7172 -1.1131
10523TIP3   OH252983   4.215   4.799   5.096  0.7825 -0.2115  0.5426
10523TIP3    H152984   4.189   4.868   5.158 -1.2287 -0.2612 -0.1629
10523TIP3    H252985   4.132   4.758   5.070  1.8015 -1.8267 -0.3017
10524TIP3   OH252986   4.042   5.292  12.973 -0.1784  0.0890 -0.3313
10524TIP3    H152987   3.969   5.260  13.026 -0.3444 -1.7157 -1.5171
10524TIP3    H252988   4.083   5.361  13.025 -0.9532 -0.8762  1.6401
10525TIP3   OH252989   2.895   5.159  12.993  0.1688  0.5995  0.5721
10525TIP3    H152990   2.899   5.106  12.913  0.0226  1.1449  0.1991
10525TIP3    H252991   2.926   5.100  13.062 -1.3840 -0.4485  0.4180
10526TIP3   OH252992   0.736   6.640  15.493  0.1364  0.2779 -0.5162
10526TIP3    H152993   0.684   6.680  15.422 -2.3077  0.2732  1.1314
10526TIP3    H252994   0.733   6.546  15.474 -0.8515  0.2388 -0.2520
10527TIP3   OH252995   1.622   2.170  13.648  0.0945 -0.0924  0.4250
10527TIP3    H152996   1.546   2.156  13.705 -0.9401 -0.1492 -0.9213
10527TIP3    H252997   1.695   2.183  13.708 -1.2558  1.5580  1.7900
10528TIP3   OH252998   0.543   6.093  13.038  0.3119 -0.3307 -0.4272
10528TIP3    H152999   0.494   6.147  12.975 -1.1972 -0.7349  0.3360
10528TIP3    H253000   0.583   6.157  13.098 -1.3934  0.0102  0.4177
10529TIP3   OH253001   1.441   1.211  16.413  0.5088  0.4718 -0.5538
10529TIP3    H153002   1.416   1.185  16.501 -0.0727 -1.5096 -1.2428
10529TIP3    H253003   1.530   1.176  16.402 -0.9106 -3.1171 -2.0908
10530TIP3   OH253004   5.796   6.509  15.325  0.1661 -0.3634  0.1957
10530TIP3    H153005   5.745   6.534  15.402 -1.1788 -0.9568 -0.4685
10530TIP3    H253006   5.785   6.581  15.264 -0.2428 -0.6795 -0.1101
10531TIP3   OH253007   5.068   1.036  16.326  0.5019 -0.6085  0.3014
10531TIP3    H153008   5.025   1.041  16.240  1.7657  2.2612 -0.3051
10531TIP3    H253009   5.015   1.091  16.383  1.5751  0.4248  0.3584
10532TIP3   OH253010   1.325   3.033   2.664  0.5666 -0.1790 -0.1517
10532TIP3    H153011   1.310   2.998   2.576  1.1261  0.2740 -0.4330
10532TIP3    H253012   1.265   3.107   2.671  0.8773  0.0910 -0.3391
10533TIP3   OH253013   3.920   4.933   1.741  0.5502  0.6483 -0.1131
10533TIP3    H153014   3.991   4.988   1.707  0.9687 -0.1769 -0.6144
10533TIP3    H253015   3.944   4.916   1.833  0.8133  0.6764 -0.1774
10534TIP3   OH253016   1.450   6.476  10.892 -0.1324 -0.0190 -0.3980
10534TIP3    H153017   1.524   6.461  10.951 -1.8147  0.9894  2.1323
10534TIP3    H253018   1.491   6.497  10.808  2.4109 -0.7100  0.5589
10535TIP3   OH253019   1.356   6.518   3.284  0.1551 -0.5453 -0.4391
10535TIP3    H153020   1.289   6.510   3.215 -0.4648 -0.2067  0.1088
10535TIP3    H253021   1.433   6.474   3.248 -0.6737 -1.8326 -0.7019
10536TIP3   OH253022   0.511   3.601  16.238 -0.4666 -0.2558 -0.6533
10536TIP3    H153023   0.432   3.656  16.240  0.7607  1.8502  4.3487
10536TIP3    H253024   0.492   3.530  16.299  1.8721  1.2230  2.0182
10537TIP3   OH253025   3.025   0.356   5.142 -0.3246  0.0951 -0.1361
10537TIP3    H153026   3.019   0.406   5.061 -1.8499  0.4257  0.1616
10537TIP3    H253027   3.050   0.420   5.209  0.1842 -0.0367 -0.1903
10538TIP3   OH253028   5.985   4.567   3.227 -0.2477  0.1555 -0.6429
10538TIP3    H153029   5.951   4.480   3.249  0.3689  0.3466  1.2769
10538TIP3    H253030   5.944   4.625   3.292 -0.2376  1.2306 -1.5617
10539TIP3   OH253031   2.553   1.220  13.593 -0.7921  0.2078  0.0264
10539TIP3    H153032   2.641   1.258  13.586 -1.3704  1.5263 -0.4360
10539TIP3    H253033   2.531   1.194  13.504 -0.4027 -1.2762  0.3424
10540TIP3   OH253034   0.626   3.953  15.988 -0.4291  0.6060  0.1658
10540TIP3    H153035   0.549   3.924  15.940 -1.0576  1.9595  0.3019
10540TIP3    H253036   0.595   3.967  16.078  0.3990 -0.5168  0.6543
10541TIP3   OH253037   0.882   2.682   2.170  0.2070 -1.0725 -0.9962
10541TIP3    H153038   0.817   2.711   2.234  1.5683  1.0273 -0.4596
10541TIP3    H253039   0.847   2.600   2.136 -1.6702 -1.0943  0.7818
10542TIP3   OH253040   1.210   1.822   1.917 -0.4120 -0.1133  0.1502
10542TIP3    H153041   1.205   1.730   1.945  1.0299 -0.1095  0.5200
10542TIP3    H253042   1.269   1.821   1.842 -0.1204  0.5524  0.3625
10543TIP3   OH253043   2.714   2.666   2.397  0.1531 -0.2633 -0.3222
10543TIP3    H153044   2.760   2.677   2.314  0.6218 -0.2493 -0.0684
10543TIP3    H253045   2.642   2.728   2.394  1.4609  1.3361  0.1850
10544TIP3   OH253046   0.113   4.687  11.653  0.3252  0.0675  0.1095
10544TIP3    H153047   0.021   4.715  11.658  0.4295  0.4311  0.0357
10544TIP3    H253048   0.155   4.754  11.600  0.3867 -0.7447 -0.8955
10545TIP3   OH253049   0.447   3.040   6.140  0.5034 -0.0616 -0.2885
10545TIP3    H153050   0.523   2.981   6.144 -0.1545 -0.9185 -0.0615
10545TIP3    H253051   0.391   3.011   6.213  0.4116  1.2017  0.1551
10546TIP3   OH253052   5.990   5.647  11.339  0.6489  0.8450 -0.0018
10546TIP3    H153053   6.001   5.693  11.256  1.1371  1.2567  0.2847
10546TIP3    H253054   5.905   5.677  11.373  0.1078  0.1293 -0.6840
10547TIP3   OH253055   6.416   3.080  15.122 -0.5635  0.3358 -0.1234
10547TIP3    H153056   6.457   3.005  15.079  0.0323  0.4625  0.2133
10547TIP3    H253057   6.328   3.085  15.083  0.0052  0.5514 -1.4198
10548TIP3   OH253058   3.864   0.191   0.046 -0.2182 -0.4146  0.5790
10548TIP3    H153059   3.806   0.243   0.101  0.5660  1.2895 -0.1519
10548TIP3    H253060   3.831   0.204  -0.043  2.3315  2.1947 -0.1188
10549TIP3   OH253061   5.533   1.899  16.886 -0.3025 -0.3707 -0.0287
10549TIP3    H153062   5.612   1.916  16.937 -0.3806 -2.5308  0.9149
10549TIP3    H253063   5.518   1.980  16.836  2.3121  0.1977 -0.0134
10550TIP3   OH253064   3.142   0.374  13.684  0.0520 -0.3596  0.0962
10550TIP3    H153065   3.230   0.402  13.658  0.0742  1.7354  2.0804
10550TIP3    H253066   3.101   0.454  13.718 -1.9698 -1.6849  0.9485
10551TIP3   OH253067   4.435   3.734  12.284 -0.7424  0.5077  0.1050
10551TIP3    H153068   4.508   3.752  12.343  0.6139 -0.8760 -1.0950
10551TIP3    H253069   4.401   3.821  12.263  0.7109  1.2132  0.5001
10552TIP3   OH253070   4.935   2.567   2.180  0.2726  0.3751 -0.0914
10552TIP3    H153071   4.953   2.532   2.267 -0.4352  0.8668  0.2612
10552TIP3    H253072   4.971   2.655   2.181  1.0768  0.0658 -0.6132
10553TIP3   OH253073   2.774   6.377   6.583 -0.1491 -0.0881  0.0957
10553TIP3    H153074   2.712   6.332   6.527 -0.3239  0.2870 -0.0172
10553TIP3    H253075   2.860   6.354   6.547 -0.2737  0.4775 -0.5878
10554TIP3   OH253076   5.782   3.896  16.412  0.5089 -0.0612  0.0939
10554TIP3    H153077   5.848   3.880  16.480  0.9992 -0.5707 -0.4889
10554TIP3    H253078   5.763   3.810  16.375  0.8358  0.2852 -0.9404
10555TIP3   OH253079   3.298   3.789  13.274  0.1468 -0.1995  0.3937
10555TIP3    H153080   3.281   3.774  13.181 -0.0601  0.6430  0.2836
10555TIP3    H253081   3.350   3.714  13.302 -0.8201 -1.0648 -0.1074
10556TIP3   OH253082   0.735   5.868  15.245  0.2656  0.0420 -0.0845
10556TIP3    H153083   0.698   5.941  15.195 -0.7464 -0.7379 -0.5101
10556TIP3    H253084   0.670   5.849  15.312 -1.1195 -2.5277 -1.9581
10557TIP3   OH253085   1.191   1.118  16.582  0.3019 -0.1035  0.5226
10557TIP3    H153086   1.214   1.037  16.536  1.0388  0.3422  0.0805
10557TIP3    H253087   1.188   1.093  16.674 -0.7896 -0.9149  0.2758
10558TIP3   OH253088   0.006   4.721   5.672 -0.2373 -0.6202 -0.3053
10558TIP3    H153089  -0.022   4.811   5.689 -0.1732 -0.3510 -1.5295
10558TIP3    H253090   0.055   4.696   5.751 -1.7260 -0.2119  0.7952
10559TIP3   OH253091   3.373   0.319  17.064  0.4224 -0.1221  0.0969
10559TIP3    H153092   3.405   0.253  17.003  1.3193  0.2723  0.1324
10559TIP3    H253093   3.412   0.295  17.148  0.0107 -0.0736  0.3047
10560TIP3   OH253094   2.665   1.811  14.813 -0.2449 -0.7217  0.1499
10560TIP3    H153095   2.623   1.897  14.808 -1.1433 -1.1643 -0.1919
10560TIP3    H253096   2.732   1.813  14.745  0.5706  0.1375  0.9615
10561TIP3   OH253097   5.256   2.981   2.808  0.7469 -0.1837  0.3075
10561TIP3    H153098   5.311   2.981   2.730 -0.4013  0.5408 -0.5370
10561TIP3    H253099   5.220   3.069   2.811 -1.2966 -0.9730  0.1500
10562TIP3   OH253100   2.399   2.984  16.883 -0.3222  0.0714 -0.4308
10562TIP3    H153101   2.358   2.919  16.827  1.0581 -0.3460 -0.9924
10562TIP3    H253102   2.372   2.961  16.971  2.3326 -3.0555 -0.2599
10563TIP3   OH253103   0.118   3.069   0.521 -0.6761  0.5285 -0.4785
10563TIP3    H153104   0.099   3.005   0.452  0.6844 -0.9332  0.4368
10563TIP3    H253105   0.045   3.061   0.582  0.4449 -1.7844  0.7116
10564TIP3   OH253106   5.781   6.669  14.342 -0.0728 -0.0475 -0.5606
10564TIP3    H153107   5.780   6.583  14.384 -1.2600  0.6535  0.9609
10564TIP3    H253108   5.701   6.671  14.289 -0.6250  0.4812  0.2627
10565TIP3   OH253109   1.585   6.486   4.877 -0.0948  0.2789 -0.1369
10565TIP3    H153110   1.607   6.568   4.920  1.2903  1.4963 -2.9083
10565TIP3    H253111   1.662   6.431   4.891 -1.0027 -0.6203  1.6773
10566TIP3   OH253112   6.549   4.205   3.298 -0.5737  0.2708 -0.1324
10566TIP3    H153113   6.561   4.281   3.241 -0.4909  1.4767  1.4362
10566TIP3    H253114   6.499   4.238   3.372  1.4035 -0.6188  1.7102
10567TIP3   OH253115   5.282   4.105  15.674  0.0036 -0.3954  0.1341
10567TIP3    H153116   5.224   4.030  15.657 -0.8053 -0.0168  1.1240
10567TIP3    H253117   5.366   4.066  15.696 -0.8189 -1.1131  2.2273
10568TIP3   OH253118   1.621   5.738  11.074  0.0746 -0.1959  0.4856
10568TIP3    H153119   1.680   5.685  11.020  2.6228 -0.1505  3.0133
10568TIP3    H253120   1.592   5.808  11.015 -0.6139 -2.3477 -1.9316
10569TIP3   OH253121   1.950   2.550   0.392 -0.0272  0.3666 -0.3709
10569TIP3    H153122   2.012   2.485   0.424 -0.2844 -0.2727 -1.1330
10569TIP3    H253123   1.993   2.588   0.315 -0.0001  0.8904 -0.0982
10570TIP3   OH253124   0.585   2.460   4.409 -0.3677 -0.0833 -0.4776
10570TIP3    H153125   0.583   2.545   4.365  0.5032  1.2022  1.7737
10570TIP3    H253126   0.494   2.447   4.438 -0.2573  0.7619  0.3030
10571TIP3   OH253127   5.378   3.043   6.422  0.0742 -0.0354 -0.7412
10571TIP3    H153128   5.425   3.117   6.460 -1.4313  0.5201  0.1323
10571TIP3    H253129   5.314   3.082   6.362  0.5504 -0.7564 -1.7469
10572TIP3   OH253130   6.707   5.126   3.853 -0.8320 -0.3078 -0.1500
10572TIP3    H153131   6.696   5.049   3.909 -1.8649 -0.1292 -0.0786
10572TIP3    H253132   6.639   5.116   3.786 -0.4440  0.1356 -0.6128
10573TIP3   OH253133   0.916   4.751   4.690 -0.1637 -0.1016  0.2441
10573TIP3    H153134   0.866   4.827   4.718 -1.0248 -0.1379 -1.0921
10573TIP3    H253135   0.856   4.677   4.699  0.4996 -0.5585  1.0474
10574TIP3   OH253136   5.482   3.898   0.685 -0.0623  0.2418  0.2824
10574TIP3    H153137   5.389   3.908   0.664  0.2181  0.4706 -0.9282
10574TIP3    H253138   5.483   3.862   0.774 -1.2864  1.6326  0.8968
10575TIP3   OH253139   4.310   3.495   2.080 -0.5942 -0.6926  0.5478
10575TIP3    H153140   4.288   3.465   2.168  0.7136 -1.1816  0.7243
10575TIP3    H253141   4.382   3.557   2.093 -0.6741 -0.4435 -0.1523
10576TIP3   OH253142   3.562   1.289  14.465  0.2483 -0.0133 -0.1024
10576TIP3    H153143   3.595   1.205  14.433  2.6989  0.9415 -0.2849
10576TIP3    H253144   3.564   1.346  14.388 -0.1533  0.5568  0.3061
10577TIP3   OH253145   6.679   3.341  14.368 -0.9080 -0.0425  0.0755
10577TIP3    H153146   6.657   3.250  14.348 -1.0397  0.1344 -0.6272
10577TIP3    H253147   6.773   3.348  14.349 -0.7918 -0.1526  0.6005
10578TIP3   OH253148   4.001   2.858  15.349 -0.0526  0.0584 -0.4711
10578TIP3    H153149   4.018   2.812  15.267 -0.0106 -0.6151 -0.0907
10578TIP3    H253150   3.945   2.799  15.399  0.2064  0.3101  0.1285
10579TIP3   OH253151   2.125   6.722  15.940 -0.3326  1.0312 -0.3649
10579TIP3    H153152   2.112   6.631  15.916 -1.6128  1.3029 -0.7531
10579TIP3    H253153   2.104   6.772  15.861  0.5565  1.6582 -0.2213
10580TIP3   OH253154   1.617   6.102   0.193  0.2092 -0.0553  0.1366
10580TIP3    H153155   1.649   6.066   0.110  0.4815  0.8428 -0.1571
10580TIP3    H253156   1.671   6.060   0.260  1.6614  1.0010 -0.3145
10581TIP3   OH253157   1.724   0.958   6.119  0.0618 -0.3598 -0.0768
10581TIP3    H153158   1.636   0.979   6.152  0.3799  2.3949 -0.7312
10581TIP3    H253159   1.709   0.923   6.031 -0.4620 -2.3798  0.7613
10582TIP3   OH253160   4.165   6.233   3.123  0.2705  0.7114  0.1467
10582TIP3    H153161   4.184   6.139   3.131  0.0844  0.6851  0.2943
10582TIP3    H253162   4.114   6.240   3.042  1.6671  0.9016 -0.7414
10583TIP3   OH253163   4.525   6.438   1.770 -0.1442  0.2857  0.0753
10583TIP3    H153164   4.454   6.500   1.755 -0.5243 -0.1874 -0.0937
10583TIP3    H253165   4.595   6.468   1.713 -0.5215  0.2337 -0.4196
10584TIP3   OH253166   2.675   2.863   0.927  0.1298 -0.5853 -0.0029
10584TIP3    H153167   2.588   2.892   0.956  0.5146  0.0149  0.5521
10584TIP3    H253168   2.682   2.896   0.837 -0.9715 -2.2615 -0.7687
10585TIP3   OH253169   6.270   3.748   2.166  0.2450 -0.6455  0.6926
10585TIP3    H153170   6.271   3.815   2.097  2.1242  0.0249  1.2890
10585TIP3    H253171   6.359   3.749   2.201  0.2933 -3.3339  0.8877
10586TIP3   OH253172   6.102   2.587  13.524  0.0489 -0.4163 -0.6749
10586TIP3    H153173   6.027   2.530  13.507  1.2591 -2.2322 -0.2143
10586TIP3    H253174   6.074   2.673  13.493 -1.4170 -1.4982 -2.6303
10587TIP3   OH253175   3.507   4.332  13.588  0.7688 -0.7985  0.0728
10587TIP3    H153176   3.499   4.256  13.530 -1.5816  0.3057 -1.1628
10587TIP3    H253177   3.523   4.406  13.530 -0.3844  0.1479  0.9072
10588TIP3   OH253178   3.847   0.858  15.121  0.2862 -0.4285 -0.0740
10588TIP3    H153179   3.912   0.794  15.148  1.2423 -0.1950 -1.7112
10588TIP3    H253180   3.811   0.823  15.039 -1.3780 -0.3486  0.5754
10589TIP3   OH253181   4.523   1.056   3.008 -0.0339  0.2271  0.4113
10589TIP3    H153182   4.618   1.055   3.013  0.0975 -1.3845 -1.1735
10589TIP3    H253183   4.494   1.006   3.085  0.3645  0.9144  1.0197
10590TIP3   OH253184   3.896   0.619  16.793  0.1025  0.2016  0.4583
10590TIP3    H153185   3.907   0.696  16.737  0.7674 -0.8457 -0.9398
10590TIP3    H253186   3.809   0.586  16.772  0.6242 -0.6103 -0.5980
10591TIP3   OH253187   1.297   6.307  11.194 -0.2905  0.1697 -0.0637
10591TIP3    H153188   1.391   6.325  11.201 -0.5299  2.0283 -0.9026
10591TIP3    H253189   1.291   6.236  11.130  0.5314  0.4103 -0.4297
10592TIP3   OH253190   5.757   3.485   4.122 -0.0619 -0.4142 -0.2090
10592TIP3    H153191   5.696   3.529   4.062 -0.5805 -1.2166 -0.2804
10592TIP3    H253192   5.757   3.540   4.201 -0.6977 -0.2812 -0.2993
10593TIP3   OH253193   2.961   2.393  15.341 -0.3998 -0.0352 -0.3693
10593TIP3    H153194   2.946   2.369  15.250  2.5422 -0.0000 -0.9591
10593TIP3    H253195   2.966   2.309  15.387 -0.2401 -0.1236 -0.5486
10594TIP3   OH253196   2.845   6.577   4.899 -0.0906 -0.2631 -0.0061
10594TIP3    H153197   2.885   6.638   4.961 -0.3049 -1.1965  1.0660
10594TIP3    H253198   2.908   6.572   4.827 -0.4465  1.8515 -0.5383
10595TIP3   OH253199   5.728   3.102  12.118 -0.1736  0.7447 -0.3440
10595TIP3    H153200   5.810   3.053  12.126 -1.7911 -2.1954 -0.1207
10595TIP3    H253201   5.736   3.148  12.034  1.9590  1.1759  0.0384
10596TIP3   OH253202   6.327   2.312   1.445  0.4886 -0.2938 -0.0891
10596TIP3    H153203   6.397   2.247   1.448  1.7532  1.0155 -0.4704
10596TIP3    H253204   6.347   2.373   1.516 -0.6085 -0.2172  0.1792
10597TIP3   OH253205   5.613   5.503   1.249  0.7198  0.1618  0.6134
10597TIP3    H153206   5.681   5.561   1.215 -0.3449  0.0867 -1.8723
10597TIP3    H253207   5.571   5.554   1.319  0.0775  2.3151 -1.2064
10598TIP3   OH253208   3.263   2.257   5.776  0.5383 -0.0346 -0.2681
10598TIP3    H153209   3.259   2.277   5.682  0.2644 -1.1473 -0.5049
10598TIP3    H253210   3.356   2.259   5.797  0.5302  1.4881 -0.2620
10599TIP3   OH253211   1.094   0.614   3.143  0.1575  1.1209  0.0644
10599TIP3    H153212   1.131   0.670   3.211  0.7753 -1.8806  2.4292
10599TIP3    H253213   1.169   0.592   3.087  0.8537 -0.4615  1.5333
10600TIP3   OH253214   1.906   0.748  17.130  0.3500  0.1409  0.0714
10600TIP3    H153215   1.812   0.738  17.122  0.4233 -0.0718 -0.5719
10600TIP3    H253216   1.917   0.823  17.189 -0.2303  0.9312 -0.7939
10601TIP3   OH253217   2.460   3.877   5.527 -0.0155  0.1003  0.3389
10601TIP3    H153218   2.499   3.819   5.461  1.8631 -0.2646  1.6991
10601TIP3    H253219   2.378   3.834   5.550  0.5720 -1.1978  0.1454
10602TIP3   OH253220   3.703   1.098  12.538 -0.1541 -0.5654  0.4640
10602TIP3    H153221   3.767   1.029  12.556  0.0963 -0.5403 -0.2943
10602TIP3    H253222   3.750   1.180  12.558 -0.2895 -0.5927  0.8943
10603TIP3   OH253223   3.600   2.204  11.123 -0.5869 -0.3701 -0.5250
10603TIP3    H153224   3.605   2.126  11.068 -2.4666 -1.4717  0.7533
10603TIP3    H253225   3.675   2.197  11.181 -2.1366 -2.7567  1.3767
10604TIP3   OH253226   6.513   2.399  16.365 -0.6004 -0.2601 -0.2373
10604TIP3    H153227   6.424   2.387  16.396 -1.6364  0.4333 -2.6967
10604TIP3    H253228   6.523   2.493  16.354  0.7625 -0.2494  0.7975
10605TIP3   OH253229   5.662   0.045  10.813  0.3599 -0.1565 -0.4535
10605TIP3    H153230   5.665   0.122  10.869 -1.0441 -0.0563 -0.4974
10605TIP3    H253231   5.674   0.078  10.725  1.0872 -0.1493 -0.3574
10606TIP3   OH253232   3.737   4.456   4.263 -0.6366 -0.5215 -0.5139
10606TIP3    H153233   3.756   4.363   4.274  1.2036 -0.0295  0.9783
10606TIP3    H253234   3.778   4.498   4.338  0.9388  1.7777 -2.5060
10607TIP3   OH253235   3.488   3.254  12.322  0.4987 -0.1134  0.5666
10607TIP3    H153236   3.510   3.347  12.327 -2.0752  0.4827  2.4559
10607TIP3    H253237   3.407   3.252  12.271  0.3655 -1.2891  0.8074
10608TIP3   OH253238   0.684   0.496   0.872  0.2071  0.4053 -0.1365
10608TIP3    H153239   0.650   0.416   0.831 -0.9103  0.6865  0.2350
10608TIP3    H253240   0.618   0.521   0.935  1.3375  0.6952  0.9745
10609TIP3   OH253241   3.077   6.271  14.749 -0.3038  0.1262 -0.0171
10609TIP3    H153242   3.090   6.281  14.654  0.4297  2.1478  0.2456
10609TIP3    H253243   2.987   6.298  14.764  0.0751  1.3997  0.0388
10610TIP3   OH253244   5.354   1.246   3.398  0.0794 -0.2366 -0.8392
10610TIP3    H153245   5.380   1.337   3.388  0.1252 -0.0786  0.4535
10610TIP3    H253246   5.393   1.201   3.324 -0.2290  0.8445 -1.6802
10611TIP3   OH253247   5.430   0.354   2.684  0.1372  0.8307  0.1927
10611TIP3    H153248   5.485   0.353   2.606  0.8400  0.6700  0.6831
10611TIP3    H253249   5.411   0.447   2.698  0.7335  0.9370  0.3242
10612TIP3   OH253250   6.325   5.170   4.587  0.1113  0.6211 -1.0205
10612TIP3    H153251   6.343   5.263   4.603  2.6423  0.1361 -0.7153
10612TIP3    H253252   6.337   5.160   4.492  0.7421  0.4358 -0.9228
10613TIP3   OH253253   5.642   4.558  16.648 -0.1814  0.4505  0.3170
10613TIP3    H153254   5.700   4.632  16.629 -0.1910  0.3162 -0.2693
10613TIP3    H253255   5.653   4.500  16.573 -0.5062  0.0659  0.5670
10614TIP3   OH253256   2.043   3.933   4.424 -0.3389 -0.6036  0.4703
10614TIP3    H153257   2.010   3.845   4.442 -0.5199 -0.9068 -1.1597
10614TIP3    H253258   2.030   3.981   4.505 -2.4548 -1.4340  0.6815
10615TIP3   OH253259   4.067   0.547   1.129  0.1151 -0.4617  0.4856
10615TIP3    H153260   4.064   0.610   1.200  1.0486  0.7177 -0.4724
10615TIP3    H253261   3.999   0.577   1.068 -1.5187 -2.1505  1.3602
10616TIP3   OH253262   2.243   5.966   3.912 -0.2938 -0.3276  0.2912
10616TIP3    H153263   2.242   5.872   3.929  3.3431 -0.6910 -0.7600
10616TIP3    H253264   2.216   6.006   3.995  0.4541 -2.2607  1.5221
10617TIP3   OH253265   6.501   5.662  14.666  0.4425  0.1686  0.4198
10617TIP3    H153266   6.573   5.599  14.660 -0.1717 -0.5848  0.7269
10617TIP3    H253267   6.437   5.619  14.723 -0.6874  0.3715 -0.6562
10618TIP3   OH253268   2.572   0.556  17.097  0.0852 -0.8375  0.1535
10618TIP3    H153269   2.526   0.558  17.181  0.5562 -1.4540  0.4326
10618TIP3    H253270   2.658   0.520  17.118 -0.4471 -2.8549 -0.8811
10619TIP3   OH253271   1.550   0.152   1.085 -0.2019  0.0894 -0.8420
10619TIP3    H153272   1.578   0.228   1.033  0.2610 -0.4388 -1.3740
10619TIP3    H253273   1.511   0.092   1.022  0.2576 -0.5051 -0.5711
10620TIP3   OH253274   4.464   3.827   1.903 -0.6457  0.1379 -0.2819
10620TIP3    H153275   4.548   3.792   1.873  0.8033  2.4164  0.7602
10620TIP3    H253276   4.450   3.786   1.989 -0.3350  0.1312 -0.2338
10621TIP3   OH253277   0.086   4.329  11.740 -0.3292  0.8286  0.4502
10621TIP3    H153278   0.094   4.352  11.648 -0.3193 -0.4858  0.1077
10621TIP3    H253279   0.175   4.302  11.766 -0.5461  0.1939  0.5531
10622TIP3   OH253280   4.869   3.346   2.398 -0.0368  0.2378  0.5852
10622TIP3    H153281   4.916   3.263   2.391  0.6577  0.6353  0.5022
10622TIP3    H253282   4.777   3.323   2.381  0.5165 -0.0698 -2.3905
10623TIP3   OH253283   6.766   5.923   2.692 -0.4391 -0.0810 -0.0810
10623TIP3    H153284   6.780   5.922   2.786 -1.2939  0.7491  0.0820
10623TIP3    H253285   6.850   5.949   2.655 -0.5599  1.4270  0.6051
10624TIP3   OH253286   5.289   3.632  15.759  0.1844 -0.7133  0.0869
10624TIP3    H153287   5.353   3.645  15.829 -0.5389  1.2548  0.4499
10624TIP3    H253288   5.230   3.565  15.793  0.7313 -0.8865  0.7219
10625TIP3   OH253289   4.815   6.101   5.778  0.2488  0.2301  0.0301
10625TIP3    H153290   4.779   6.067   5.860  0.0917  1.0357  0.3012
10625TIP3    H253291   4.891   6.045   5.760 -0.1362 -0.4076  0.3405
10626TIP3   OH253292   0.896   5.474   1.289  0.2416  0.0284 -0.4356
10626TIP3    H153293   0.967   5.432   1.241 -0.0491 -0.6695 -0.2747
10626TIP3    H253294   0.878   5.414   1.361 -0.4144  0.2734 -0.3917
10627TIP3   OH253295   0.350   1.511   0.920 -0.7033 -0.1686  0.1971
10627TIP3    H153296   0.321   1.442   0.861 -0.8296  1.8948 -2.3191
10627TIP3    H253297   0.312   1.591   0.885  0.9925  1.4724  1.8429
10628TIP3   OH253298   1.398   1.341  11.707 -0.3694 -0.5010 -0.2500
10628TIP3    H153299   1.470   1.329  11.769 -1.2222 -1.2433  0.6274
10628TIP3    H253300   1.439   1.381  11.630  0.4769  1.8968  1.3361
10629TIP3   OH253301   1.678   0.062   6.000  0.8841 -1.1427  0.6478
10629TIP3    H153302   1.664   0.051   6.094 -2.2512  2.3542  0.8194
10629TIP3    H253303   1.772   0.075   5.990  1.0912  0.4160  3.6539
10630TIP3   OH253304   4.528   3.981  13.103  0.0286  0.2036  0.6731
10630TIP3    H153305   4.590   3.935  13.159 -0.8821 -0.8466  0.8409
10630TIP3    H253306   4.543   3.945  13.016  1.2588  1.6442  0.2556
10631TIP3   OH253307   5.548   2.697  11.998 -0.4508  0.2873 -0.2073
10631TIP3    H153308   5.632   2.689  11.953 -0.7775 -2.4693 -0.4999
10631TIP3    H253309   5.507   2.774  11.960  1.0070  0.3972 -1.6482
10632TIP3   OH253310   1.477   6.013  13.424 -0.2057  0.2336  0.2461
10632TIP3    H153311   1.572   6.015  13.425 -0.2162  1.4190  1.3289
10632TIP3    H253312   1.452   6.007  13.516 -1.1851  0.4656  0.0067
10633TIP3   OH253313   4.368   0.816   4.237 -0.3850 -0.3071  0.0377
10633TIP3    H153314   4.456   0.850   4.256 -0.7765  1.7259 -1.5203
10633TIP3    H253315   4.362   0.737   4.291  1.6507  0.5494  1.6869
10634TIP3   OH253316   5.004   2.062   2.887 -0.1565 -0.5452 -0.4674
10634TIP3    H153317   5.080   2.008   2.864  0.5477  1.1790 -2.4865
10634TIP3    H253318   5.033   2.152   2.872 -2.2412  0.2238 -0.1472
10635TIP3   OH253319   1.452   5.848   3.656 -0.3224  0.8348  0.0054
10635TIP3    H153320   1.375   5.903   3.642 -0.8443  0.2451  0.5091
10635TIP3    H253321   1.495   5.887   3.732 -0.9421  0.2809  0.6464
10636TIP3   OH253322   1.527   1.457   0.462 -0.0166  0.4839 -0.5901
10636TIP3    H153323   1.581   1.405   0.520 -2.3486 -1.4461  0.0231
10636TIP3    H253324   1.572   1.453   0.377  0.2713 -2.0321 -0.3951
10637TIP3   OH253325   1.434   0.277   5.050 -0.3451 -0.2398 -0.1101
10637TIP3    H153326   1.495   0.248   4.982 -0.3217 -1.0263  0.2425
10637TIP3    H253327   1.363   0.321   5.002 -0.4071 -0.9268 -0.6536
10638TIP3   OH253328   2.132   5.844  13.145 -0.0022 -0.1676 -0.0277
10638TIP3    H153329   2.041   5.815  13.151 -0.4694  0.9197 -1.3146
10638TIP3    H253330   2.181   5.780  13.195 -1.4923 -0.7012  0.8134
10639TIP3   OH253331   3.210   1.802  13.462  0.5471  0.2002  0.5056
10639TIP3    H153332   3.285   1.748  13.487 -0.3383 -0.9028  0.8411
10639TIP3    H253333   3.168   1.753  13.392 -2.4472 -1.5610  3.2753
10640TIP3   OH253334   1.822   3.571  12.464  0.0674 -0.0343  0.6062
10640TIP3    H153335   1.834   3.591  12.371 -2.4593 -0.6418  0.0647
10640TIP3    H253336   1.902   3.602  12.506  0.7506  1.4053 -1.5914
10641TIP3   OH253337   6.339   6.540   2.845  0.3570  0.8559 -0.0712
10641TIP3    H153338   6.286   6.504   2.774 -1.7185  0.2398  1.6900
10641TIP3    H253339   6.417   6.484   2.847 -0.9117 -0.9921 -0.0154
10642TIP3   OH253340   5.424   5.040   1.749  0.8213  0.1784  0.6435
10642TIP3    H153341   5.381   4.995   1.677  1.0067 -0.4527  0.9210
10642TIP3    H253342   5.425   5.132   1.723  0.2218  0.0562  0.1831
10643TIP3   OH253343   0.965   5.520   4.809 -0.6288  0.1600  0.0314
10643TIP3    H153344   1.018   5.599   4.817 -2.0107  1.0542  0.6692
10643TIP3    H253345   0.875   5.550   4.818 -1.2058 -1.4597  0.0277
10644TIP3   OH253346   3.726   3.507  11.342  0.0405  0.4972 -0.2504
10644TIP3    H153347   3.719   3.599  11.367  2.7148  0.7916 -0.3652
10644TIP3    H253348   3.783   3.507  11.266  0.2878 -1.2976 -0.0989
10645TIP3   OH253349   1.874   3.889  17.087  0.2401 -0.3936  0.5099
10645TIP3    H153350   1.879   3.904  17.181 -0.3319 -1.6637  0.7661
10645TIP3    H253351   1.958   3.850  17.064  0.1044 -0.7560  0.6289
10646TIP3   OH253352   2.940   0.025   5.025  0.2096  0.0873 -0.1780
10646TIP3    H153353   3.010   0.011   5.090  0.8180 -0.4811 -0.9328
10646TIP3    H253354   2.923   0.119   5.028  0.3854  0.1034  0.6438
10647TIP3   OH253355   1.614   1.285  17.226  1.0285 -0.1914 -0.1614
10647TIP3    H153356   1.534   1.235  17.215  0.2226  1.0358 -0.0599
10647TIP3    H253357   1.628   1.329  17.142  0.6061  0.9678  0.3454
10648TIP3   OH253358   6.465   5.590   2.763 -0.0427 -0.5415  0.6324
10648TIP3    H153359   6.457   5.520   2.828 -0.9581 -1.7966 -0.7647
10648TIP3    H253360   6.376   5.625   2.756 -0.5240 -2.0434 -1.6210
10649TIP3   OH253361   4.763   1.347  13.609 -0.3383  0.1266  0.3222
10649TIP3    H153362   4.794   1.428  13.568 -0.4188  0.4730  0.9223
10649TIP3    H253363   4.688   1.375  13.663 -0.0767 -0.2681  0.8982
10650TIP3   OH253364   1.935   0.769  13.930 -0.0819 -0.3977 -0.0797
10650TIP3    H153365   1.997   0.841  13.936 -1.8303  1.0767  0.9379
10650TIP3    H253366   1.989   0.694  13.905  2.1947  0.6732  1.3242
10651TIP3   OH253367   5.676   0.863  12.549 -0.2202  0.3762  0.5309
10651TIP3    H153368   5.650   0.940  12.499  0.1650  0.3868  0.3382
10651TIP3    H253369   5.743   0.821  12.494 -0.3343 -0.0216  0.6939
10652TIP3   OH253370   4.184   1.207  12.848 -0.4417 -0.7066 -0.0273
10652TIP3    H153371   4.277   1.185  12.854 -0.3367 -0.4267 -0.5768
10652TIP3    H253372   4.146   1.174  12.929  0.3091 -0.0175  0.6248
10653TIP3   OH253373   0.734   4.537   0.602  0.1047 -0.2906  0.4867
10653TIP3    H153374   0.818   4.523   0.645 -1.0418 -1.0063  2.6337
10653TIP3    H253375   0.712   4.629   0.621  1.3745  0.6170 -2.0205
10654TIP3   OH253376   6.087   1.068   1.532 -0.5211 -0.1687  0.6948
10654TIP3    H153377   6.180   1.090   1.532 -0.2442 -1.2623  1.3846
10654TIP3    H253378   6.056   1.094   1.445  0.2408  0.8985  0.7209
10655TIP3   OH253379   5.069   6.689  13.925  0.1167 -0.0258  0.4829
10655TIP3    H153380   5.097   6.713  13.837 -1.2383  0.9427  0.2730
10655TIP3    H253381   5.140   6.720  13.982  2.0242 -2.5506 -0.3468
10656TIP3   OH253382   2.595   1.787  12.690 -0.1479  0.1712  0.4019
10656TIP3    H153383   2.586   1.703  12.645  0.1893  0.6617 -0.6104
10656TIP3    H253384   2.676   1.779  12.741 -0.5044 -0.3698  0.8938
10657TIP3   OH253385   2.831   2.359  13.122 -0.1672 -0.6392  0.1426
10657TIP3    H153386   2.743   2.326  13.138  0.1455 -1.1850  0.7715
10657TIP3    H253387   2.817   2.450  13.094 -0.8638 -0.1948  1.7621
10658TIP3   OH253388   1.703   1.122  16.396  0.0468  0.3472  0.0925
10658TIP3    H153389   1.770   1.151  16.458  1.2835  2.8728 -2.1967
10658TIP3    H253390   1.717   1.027  16.388  2.4752  0.5925  0.6979
10659TIP3   OH253391   5.904   0.841   4.560  0.1268  0.1838 -0.2188
10659TIP3    H153392   5.993   0.809   4.547  0.0375 -0.1835  0.0582
10659TIP3    H253393   5.890   0.834   4.655  0.1884  1.2693 -0.1107
10660TIP3   OH253394   1.216   2.173   5.200 -0.8210  0.6039 -0.4929
10660TIP3    H153395   1.228   2.158   5.106  0.2728  0.4259 -0.3430
10660TIP3    H253396   1.247   2.092   5.241  0.8699  1.5094  0.1089
10661TIP3   OH253397   0.986   0.955  16.772 -0.3499  0.6109  0.4175
10661TIP3    H153398   0.999   1.044  16.738  0.8122  0.5808  0.7438
10661TIP3    H253399   0.963   0.967  16.864  0.3999  0.5614  0.6161
10662TIP3   OH253400   6.645   3.300   1.796 -0.4374  0.3574 -0.8630
10662TIP3    H153401   6.564   3.257   1.821 -0.3915 -0.0967 -1.4680
10662TIP3    H253402   6.626   3.340   1.711  0.2145 -0.4878 -1.4225
10663TIP3   OH253403   6.624   0.287  16.967 -0.1134  0.7231  1.0078
10663TIP3    H153404   6.581   0.239  17.038  0.7873 -1.3428  0.2398
10663TIP3    H253405   6.710   0.310  17.003  1.2725 -2.3058  0.0244
10664TIP3   OH253406   0.797   4.084  13.534  0.5713 -0.0001 -0.3373
10664TIP3    H153407   0.855   4.016  13.499  1.1905  1.3501 -2.0554
10664TIP3    H253408   0.852   4.162  13.538 -1.0055  1.2346 -1.6876
10665TIP3   OH253409   0.409   3.142  13.781  0.5647 -0.0168  0.3616
10665TIP3    H153410   0.466   3.216  13.803 -0.3259  0.3381  1.5659
10665TIP3    H253411   0.447   3.106  13.701  1.7943  0.9207  0.4891
10666TIP3   OH253412   2.416   2.309  11.033 -0.4518  0.3529 -0.0368
10666TIP3    H153413   2.491   2.335  10.979 -0.2630 -0.3177 -0.1048
10666TIP3    H253414   2.340   2.332  10.980 -0.2642 -1.1211 -1.0119
10667TIP3   OH253415   4.679   5.814  13.416  0.0086  0.5223  0.5745
10667TIP3    H153416   4.653   5.821  13.324 -2.6761 -1.1727  1.0962
10667TIP3    H253417   4.668   5.903  13.451  1.1733  1.2082 -0.7310
10668TIP3   OH253418   5.027   5.775  11.716 -0.1376  0.1568  0.8230
10668TIP3    H153419   4.951   5.720  11.695 -0.2668  0.6647 -0.0583
10668TIP3    H253420   5.100   5.713  11.721 -0.4146 -0.1916  0.6024
10669TIP3   OH253421   1.666   1.676   5.509  0.4079 -0.2145  0.4235
10669TIP3    H153422   1.677   1.680   5.604  1.4086  0.2058  0.2975
10669TIP3    H253423   1.584   1.628   5.497 -0.2805  0.6257  1.5152
10670TIP3   OH253424   0.825   5.663   1.538 -0.0802  0.1345 -0.2977
10670TIP3    H153425   0.786   5.685   1.623  0.1158 -0.4282 -0.0583
10670TIP3    H253426   0.801   5.571   1.524  1.0891 -0.2002 -0.1863
10671TIP3   OH253427   0.984   5.615  11.709  0.1473 -0.4384 -0.3401
10671TIP3    H153428   1.073   5.649  11.705  0.2063 -0.7118 -2.1473
10671TIP3    H253429   0.985   5.553  11.782  1.1110  0.3766  0.3663
10672TIP3   OH253430   5.155   5.178   1.844  0.2842 -0.3028 -0.0929
10672TIP3    H153431   5.189   5.089   1.843 -0.8977 -0.7745 -0.7775
10672TIP3    H253432   5.229   5.233   1.817  0.5421 -1.2820 -1.5038
10673TIP3   OH253433   5.544   4.447   1.345  0.0386 -0.4187 -0.0928
10673TIP3    H153434   5.514   4.409   1.427  0.8498 -0.1680  0.3290
10673TIP3    H253435   5.638   4.459   1.357 -0.0377  0.8241 -0.5689
10674TIP3   OH253436   1.131   1.295  11.582 -0.0576 -0.1455 -0.1781
10674TIP3    H153437   1.075   1.290  11.660 -1.9191 -1.1144 -1.4966
10674TIP3    H253438   1.153   1.204  11.562  1.7464  0.1969  0.0893
10675TIP3   OH253439   2.154   5.629  11.717  0.2579  0.2734  0.0449
10675TIP3    H153440   2.177   5.544  11.680  0.0642  0.8660 -1.5312
10675TIP3    H253441   2.224   5.647  11.780  0.2952 -1.0338  0.4090
10676TIP3   OH253442   6.121   2.405   3.686 -0.6213 -0.1448 -0.0439
10676TIP3    H153443   6.207   2.406   3.728  0.1076  2.3579 -1.3858
10676TIP3    H253444   6.062   2.441   3.751  0.0906  1.6215 -0.3167
10677TIP3   OH253445   0.650   6.004   2.453  0.2746 -0.1333 -0.1163
10677TIP3    H153446   0.617   5.920   2.486 -0.5897  0.5213  0.7124
10677TIP3    H253447   0.575   6.042   2.407  0.2950  0.7301  0.5579
10678TIP3   OH253448   3.089   4.023   0.701 -0.5618  0.0447 -0.2369
10678TIP3    H153449   3.077   3.969   0.623  0.4808 -1.4077  0.5651
10678TIP3    H253450   3.024   3.991   0.763 -1.2282  1.0362 -0.4009
10679TIP3   OH253451   2.498   5.898  11.622 -0.6485  0.6436 -0.2188
10679TIP3    H153452   2.479   5.809  11.593  0.5085 -0.0553  1.0676
10679TIP3    H253453   2.592   5.908  11.611 -0.9126  2.1581 -1.4611
10680TIP3   OH253454   6.590   2.800   0.282 -0.4986 -0.0487  0.4058
10680TIP3    H153455   6.505   2.827   0.316 -0.3228  0.9082  0.1185
10680TIP3    H253456   6.580   2.707   0.264 -1.9458  0.3232 -0.9664
10681TIP3   OH253457   3.221   0.879   1.053  0.0469 -0.6862 -0.7006
10681TIP3    H153458   3.244   0.788   1.072  0.9812 -0.6406 -1.5378
10681TIP3    H253459   3.305   0.925   1.048 -0.4464  0.4523  0.7331
10682TIP3   OH253460   0.440   0.780  15.549  0.1793  0.3968  0.1144
10682TIP3    H153461   0.389   0.854  15.516 -0.7049 -0.2647 -0.0335
10682TIP3    H253462   0.426   0.781  15.643  0.7838  0.8645  0.2038
10683TIP3   OH253463   6.598   6.005   0.697 -0.2296  0.2682  0.1622
10683TIP3    H153464   6.528   6.035   0.638  0.1754  2.5879  0.7454
10683TIP3    H253465   6.677   6.005   0.642  0.2199  2.7996  0.6820
10684TIP3   OH253466   6.647   0.725   1.612 -0.1894  0.1360  0.5375
10684TIP3    H153467   6.707   0.734   1.686  1.1791 -0.2291 -0.4978
10684TIP3    H253468   6.703   0.723   1.535 -1.3776 -1.9873 -0.3627
10685TIP3   OH253469   1.654   0.399  13.208  0.6894  0.7403 -0.3451
10685TIP3    H153470   1.733   0.353  13.182 -0.1656 -0.9958  0.0089
10685TIP3    H253471   1.675   0.435  13.294  0.7053 -0.8211  0.3386
10686TIP3   OH253472   5.539   6.692   6.323  0.0532 -0.3951  0.4109
10686TIP3    H153473   5.554   6.605   6.286  0.6061 -0.4170  0.6752
10686TIP3    H253474   5.576   6.752   6.259  0.8448 -0.4241  0.8339
10687TIP3   OH253475   5.353   0.042  14.474  0.0182 -0.1327 -0.2196
10687TIP3    H153476   5.281  -0.017  14.449  0.0227 -0.4527  0.5116
10687TIP3    H253477   5.309   0.121  14.505 -0.0365 -0.4461  0.5244
10688TIP3   OH253478   6.602   0.919  16.853  0.9168 -0.6450  0.2259
10688TIP3    H153479   6.557   0.849  16.900 -2.7661 -0.5239 -2.5840
10688TIP3    H253480   6.582   0.998  16.903  0.3055 -0.9690  0.5079
10689TIP3   OH253481   4.993   1.487  13.741 -0.1044  0.0710 -0.6950
10689TIP3    H153482   4.931   1.541  13.791  0.5329  0.8687 -0.7411
10689TIP3    H253483   4.971   1.506  13.649  0.9847  1.3338 -0.7334
10690TIP3   OH253484   5.351   2.271  13.061  0.2849 -0.1498 -0.0223
10690TIP3    H153485   5.319   2.306  13.144  0.4941 -1.0969  0.4673
10690TIP3    H253486   5.273   2.266  13.006  0.0224 -0.1345  0.3394
10691TIP3   OH253487   5.580   5.516  10.977 -0.3405 -0.4945  0.2223
10691TIP3    H153488   5.573   5.446  10.913  0.9683 -0.3623 -0.0950
10691TIP3    H253489   5.490   5.533  11.005 -1.0259 -0.1348 -2.0322
10692TIP3   OH253490   2.835   3.393   4.496  0.0779  0.0123  0.4487
10692TIP3    H153491   2.914   3.434   4.461 -0.5421 -0.8319 -2.1721
10692TIP3    H253492   2.804   3.453   4.564  2.4561  0.7878  0.9321
10693TIP3   OH253493   3.255   1.330   6.284 -0.5036 -1.0130  0.2207
10693TIP3    H153494   3.293   1.293   6.364 -1.5151  0.3909  1.4060
10693TIP3    H253495   3.226   1.254   6.234  0.2311 -1.9354  1.1461
10694TIP3   OH253496   4.040   1.536   4.820 -0.1824 -0.8096 -0.2100
10694TIP3    H153497   4.002   1.448   4.823 -0.5957 -0.6711 -1.0261
10694TIP3    H253498   3.969   1.594   4.846  0.0041 -0.6865  0.0351
10695TIP3   OH253499   5.200   2.880  14.456  0.5313 -0.0882  0.1606
10695TIP3    H153500   5.279   2.931  14.474 -0.0520  0.7606  0.3481
10695TIP3    H253501   5.220   2.793  14.491  2.2149 -0.5491 -1.7255
10696TIP3   OH253502   1.473   3.488   0.211  0.2038 -0.0395  0.8602
10696TIP3    H153503   1.547   3.437   0.178  1.0383  0.4095  2.0062
10696TIP3    H253504   1.397   3.453   0.163  1.0745 -0.8317  0.0222
10697TIP3   OH253505   0.823   1.359  13.639  0.2948 -0.3216 -0.0936
10697TIP3    H153506   0.793   1.359  13.730 -0.4062 -0.0988 -0.3174
10697TIP3    H253507   0.758   1.413  13.593  1.1239  0.2835 -0.5689
10698TIP3   OH253508   1.131   2.568   2.244  0.1691  0.0756  0.0587
10698TIP3    H153509   1.086   2.523   2.316  0.4742  1.1784  0.9613
10698TIP3    H253510   1.062   2.613   2.196  0.1333  0.5705  0.5697
10699TIP3   OH253511   5.899   5.099  11.547  0.0050 -0.3032  0.7786
10699TIP3    H153512   5.829   5.050  11.502  0.7028 -0.0643 -0.6053
10699TIP3    H253513   5.979   5.053  11.524  0.5279  0.6662  0.6228
10700TIP3   OH253514   2.866   2.905   3.023 -0.3067  0.1785 -0.0602
10700TIP3    H153515   2.844   2.879   2.934  2.0660  1.3035 -1.0472
10700TIP3    H253516   2.827   2.992   3.033 -0.8079 -0.0596  0.1462
10701TIP3   OH253517   1.126   2.205  13.903 -0.3341  0.5263  0.0698
10701TIP3    H153518   1.051   2.199  13.961  0.4527  0.0188  1.0606
10701TIP3    H253519   1.097   2.164  13.821 -0.8011 -0.5972  0.7830
10702TIP3   OH253520   1.482   6.086   1.698 -0.1926  0.7985 -0.0798
10702TIP3    H153521   1.553   6.070   1.636  1.9096  3.1301  1.4974
10702TIP3    H253522   1.420   6.141   1.649  1.6376  2.9720 -0.1365
10703TIP3   OH253523   0.446   2.637  12.963 -0.3079 -0.6707 -0.2674
10703TIP3    H153524   0.496   2.662  13.041  2.3788  1.7724 -2.4969
10703TIP3    H253525   0.513   2.626  12.895 -2.6051 -1.1994 -2.6003
10704TIP3   OH253526   4.790   2.167   1.657  0.3254 -0.5294 -0.5863
10704TIP3    H153527   4.772   2.240   1.717 -0.2400 -1.3886  0.3154
10704TIP3    H253528   4.719   2.172   1.592  1.1205  0.5990 -1.4221
10705TIP3   OH253529   0.416   1.204   4.527 -0.4520 -0.5042  0.4145
10705TIP3    H153530   0.402   1.287   4.480 -0.0889 -0.0457  1.0989
10705TIP3    H253531   0.336   1.193   4.579 -1.7375 -2.0093 -1.7196
10706TIP3   OH253532   0.245   1.882  10.372  0.4121 -0.3655  0.2509
10706TIP3    H153533   0.161   1.839  10.357 -0.3958  0.8337  1.1425
10706TIP3    H253534   0.241   1.911  10.463  1.9104 -0.5051  0.3882
10707TIP3   OH253535   2.943   6.693  12.332  0.0602  0.1764  0.7828
10707TIP3    H153536   2.945   6.785  12.359  0.9752  0.7233 -1.0041
10707TIP3    H253537   2.964   6.694  12.239  1.0784 -1.9169  0.9177
10708TIP3   OH253538   3.422   3.175   5.600  0.1070 -0.5573 -0.3715
10708TIP3    H153539   3.511   3.203   5.576 -0.3415  0.3495 -1.0520
10708TIP3    H253540   3.414   3.198   5.693 -0.0914  1.2624 -0.8011
10709TIP3   OH253541   4.395   2.812   0.745  0.2867 -0.6285 -0.0788
10709TIP3    H153542   4.424   2.764   0.667 -0.7197  0.8503 -1.4459
10709TIP3    H253543   4.303   2.834   0.726  0.7404  1.9480  0.3420
10710TIP3   OH253544   4.345   5.739   1.191  0.0931  0.6248  0.0701
10710TIP3    H153545   4.400   5.816   1.204 -1.0901  1.4985  0.0341
10710TIP3    H253546   4.370   5.706   1.105  1.2442  0.4124  0.4658
10711TIP3   OH253547   4.500   0.305  12.989 -0.1255 -0.4251  0.1395
10711TIP3    H153548   4.537   0.320  13.076 -1.0052  0.4355  0.3908
10711TIP3    H253549   4.557   0.354  12.929  0.3698 -0.8624  0.2487
10712TIP3   OH253550   2.174   0.585  16.330 -0.2236 -0.4787  0.3050
10712TIP3    H153551   2.167   0.557  16.239 -0.4960 -0.1223  0.2137
10712TIP3    H253552   2.195   0.505  16.378 -1.9171 -1.0354  0.1825
10713TIP3   OH253553   0.313   6.326  12.229 -0.2702  0.2846  0.0539
10713TIP3    H153554   0.263   6.248  12.255 -1.7761  1.3182  0.3414
10713TIP3    H253555   0.385   6.330  12.292 -0.4067 -0.6301  0.2898
10714TIP3   OH253556   0.518   1.001  13.674 -0.2879 -0.1440 -0.4311
10714TIP3    H153557   0.447   1.039  13.726 -1.4357 -0.5298 -1.6366
10714TIP3    H253558   0.590   0.989  13.736 -1.1370  0.6272  0.7524
10715TIP3   OH253559   1.655   4.890   1.214  0.6694 -0.1411 -0.0559
10715TIP3    H153560   1.691   4.843   1.139 -0.5378 -0.0270 -0.7398
10715TIP3    H253561   1.671   4.833   1.289  0.9909 -0.7217 -0.5563
10716TIP3   OH253562   5.460   3.273   5.950 -0.0269  0.2852  0.1168
10716TIP3    H153563   5.493   3.326   6.023 -1.5040  0.3351  0.7896
10716TIP3    H253564   5.408   3.205   5.992  0.0474 -0.3870 -0.8591
10717TIP3   OH253565   3.971   0.664  11.529  0.5437 -0.3197 -0.0997
10717TIP3    H153566   3.979   0.572  11.502 -1.3168  0.0220 -2.0538
10717TIP3    H253567   4.057   0.701  11.511  0.8930 -1.3539 -0.6464
10718TIP3   OH253568   6.529   0.600   6.602  0.5143  0.0686  0.0959
10718TIP3    H153569   6.513   0.690   6.573  2.7191 -0.3555 -2.9413
10718TIP3    H253570   6.623   0.598   6.621  0.4713 -1.5347  0.2775
10719TIP3   OH253571   6.516   2.708  15.649  0.0502  0.1014 -0.5340
10719TIP3    H153572   6.577   2.729  15.720  0.2850 -1.5533 -0.2065
10719TIP3    H253573   6.433   2.748  15.676  0.8454  2.0775 -0.8176
10720TIP3   OH253574   1.852   1.437   2.769 -0.4313 -0.1653 -0.1757
10720TIP3    H153575   1.794   1.383   2.714 -1.7598  0.4281  0.5857
10720TIP3    H253576   1.821   1.421   2.858  0.2669  0.5605  0.2027
10721TIP3   OH253577   6.340   4.069  16.726  0.4304 -0.6647 -0.4507
10721TIP3    H153578   6.381   4.048  16.643 -1.1342  0.6856 -1.6273
10721TIP3    H253579   6.412   4.100  16.781  1.5047 -1.6881 -1.2313
10722TIP3   OH253580   6.150   1.885   5.942  0.4422  0.3726 -0.3167
10722TIP3    H153581   6.118   1.967   5.981 -0.5768  0.0209 -0.3871
10722TIP3    H253582   6.152   1.823   6.016 -0.7429 -0.0814 -0.6446
10723TIP3   OH253583   0.615   3.716  12.667  0.2479  0.4491  0.6517
10723TIP3    H153584   0.626   3.777  12.594 -2.3121  1.4191  0.9777
10723TIP3    H253585   0.676   3.645  12.648  0.8901  1.4808 -1.5115
10724TIP3   OH253586   4.509   4.365  16.854 -0.4469  0.4777 -0.2999
10724TIP3    H153587   4.501   4.300  16.924 -2.7545 -0.6948 -1.5351
10724TIP3    H253588   4.460   4.441  16.885 -3.1348 -0.7303 -1.2692
10725TIP3   OH253589   1.599   6.287  15.940 -0.2045  0.0459 -0.6313
10725TIP3    H153590   1.597   6.241  16.024 -0.5909 -0.3706 -0.8692
10725TIP3    H253591   1.682   6.335  15.942 -0.4310  0.4329  0.1937
10726TIP3   OH253592   1.372   5.133   2.315  0.2336 -0.6098 -0.0058
10726TIP3    H153593   1.360   5.186   2.237 -0.3967 -2.3114 -1.1196
10726TIP3    H253594   1.445   5.173   2.361 -0.4047  1.3724 -0.6273
10727TIP3   OH253595   2.631   2.168   1.905  0.2986 -0.2928 -0.2009
10727TIP3    H153596   2.714   2.122   1.911 -0.0545 -0.7428  1.8565
10727TIP3    H253597   2.629   2.225   1.982 -0.8671  0.4661 -0.7540
10728TIP3   OH253598   3.959   0.597   0.774  0.1982 -0.5661  0.3865
10728TIP3    H153599   3.907   0.607   0.854  1.3381  1.4489  0.9416
10728TIP3    H253600   3.990   0.506   0.778  0.8906 -0.3129  2.7070
10729TIP3   OH253601   3.252   4.861   0.568  0.0519  0.9588  0.8215
10729TIP3    H153602   3.213   4.849   0.481  0.0370  2.4777  0.6005
10729TIP3    H253603   3.189   4.820   0.628  0.1342 -0.2338  0.1264
10730TIP3   OH253604   5.207   0.443   1.763 -0.8749 -0.3157  0.1906
10730TIP3    H153605   5.295   0.468   1.737 -1.5596  0.4208 -1.5861
10730TIP3    H253606   5.154   0.521   1.744 -1.8921 -0.6979  1.3628
10731TIP3   OH253607   5.368   6.239  16.671 -0.2242  0.4010  0.1626
10731TIP3    H153608   5.329   6.316  16.631 -2.2107 -0.7161 -0.1893
10731TIP3    H253609   5.412   6.194  16.599  0.9580  1.1682  0.3726
10732TIP3   OH253610   1.461   0.066  12.719 -0.2735  0.1687 -0.2488
10732TIP3    H153611   1.540   0.021  12.690  0.4200 -0.3213  2.2021
10732TIP3    H253612   1.421   0.098  12.638  1.8069 -0.5632 -1.6544
10733TIP3   OH253613   2.714   1.396  11.070  0.5440 -0.1725  0.1772
10733TIP3    H153614   2.750   1.308  11.074 -1.3335 -0.9499  1.3743
10733TIP3    H253615   2.672   1.402  10.984  0.3315 -0.5941  0.2519
10734TIP3   OH253616   2.127   1.656  15.967  0.4924 -0.2240  0.1196
10734TIP3    H153617   2.078   1.580  15.937 -0.5033  0.1596  0.7175
10734TIP3    H253618   2.064   1.707  16.017  0.0223  2.8533 -3.1779
10735TIP3   OH253619   6.113   0.950  14.880  0.0313  0.2579  0.5039
10735TIP3    H153620   6.086   0.979  14.793 -3.3680 -0.6563  1.0821
10735TIP3    H253621   6.092   1.023  14.938  2.2485  0.8515  0.6589
10736TIP3   OH253622   6.214   5.848  15.525 -0.1397  0.2005  0.0918
10736TIP3    H153623   6.305   5.839  15.500 -0.4346 -1.0342 -0.5850
10736TIP3    H253624   6.172   5.891  15.450 -0.5121 -1.1496 -0.4978
10737TIP3   OH253625   3.152   4.502  14.358  0.3074 -0.9225  0.2572
10737TIP3    H153626   3.139   4.594  14.383  0.7231 -1.0494  0.9555
10737TIP3    H253627   3.187   4.507  14.269  0.2125 -0.4095  0.2417
10738TIP3   OH253628   2.136   6.044  16.433  0.6315  0.0690 -0.1106
10738TIP3    H153629   2.063   6.008  16.483 -0.2558 -0.9898 -2.0575
10738TIP3    H253630   2.105   6.046  16.343  1.2682  4.2058 -0.4473
10739TIP3   OH253631   0.837   5.111  16.764  0.3780  0.0421  0.1510
10739TIP3    H153632   0.767   5.067  16.716  0.8494 -0.0629 -0.4485
10739TIP3    H253633   0.837   5.069  16.850 -0.6790  0.4488  0.3560
10740TIP3   OH253634   4.084   4.578  14.143 -0.9860  0.5980  0.1691
10740TIP3    H153635   4.113   4.510  14.203  1.4414  1.2218 -0.2075
10740TIP3    H253636   4.078   4.657  14.198 -0.0362  0.8891 -0.1348
10741TIP3   OH253637   4.120   5.915   1.001 -0.7462  0.3407 -0.2713
10741TIP3    H153638   4.089   5.999   1.036 -1.2615 -0.3535  1.0229
10741TIP3    H253639   4.210   5.908   1.032  0.2197  1.5512 -2.5553
10742TIP3   OH253640   0.803   4.796  14.238 -0.0791  0.4776  0.5731
10742TIP3    H153641   0.737   4.734  14.270 -0.5119  0.6680  0.0501
10742TIP3    H253642   0.771   4.882  14.265 -1.1095  0.7762 -1.4259
10743TIP3   OH253643   3.445   5.141   2.011 -0.2648  0.1412 -0.3028
10743TIP3    H153644   3.535   5.175   2.009 -0.3963  0.4591 -0.7682
10743TIP3    H253645   3.423   5.138   2.105  0.6841 -1.1508 -0.0967
10744TIP3   OH253646   5.300   3.529   0.263  0.1377  0.4258  0.9215
10744TIP3    H153647   5.310   3.506   0.356 -0.6207  1.1422  1.1850
10744TIP3    H253648   5.329   3.620   0.258  1.0447  0.1198  0.2760
10745TIP3   OH253649   2.034   0.833   4.489  0.2022 -0.3403 -0.2464
10745TIP3    H153650   2.079   0.854   4.407 -0.8940  0.5785 -0.6301
10745TIP3    H253651   1.977   0.908   4.505  1.4233  0.1793  2.1179
10746TIP3   OH253652   2.396   5.363  11.154 -0.4879  0.3731  0.3935
10746TIP3    H153653   2.332   5.401  11.215 -1.0363  0.6486 -0.3468
10746TIP3    H253654   2.388   5.416  11.075 -0.7924 -0.8606 -0.4269
10747TIP3   OH253655   4.589   0.264  16.439 -0.1161  0.2018 -0.1260
10747TIP3    H153656   4.676   0.247  16.403  0.5574 -2.8140  2.5116
10747TIP3    H253657   4.598   0.348  16.484  2.1463 -0.9575  1.8055
10748TIP3   OH253658   0.810   3.474   0.472 -0.6993  0.4313  0.0581
10748TIP3    H153659   0.881   3.440   0.419 -0.8990 -1.2674  0.8359
10748TIP3    H253660   0.735   3.477   0.413 -0.1755  1.6110 -0.5844
10749TIP3   OH253661   0.177   6.631   4.050  0.2744  0.6351 -0.3660
10749TIP3    H153662   0.140   6.611   3.964 -3.9827  0.4991  1.2795
10749TIP3    H253663   0.158   6.724   4.062 -2.0159  0.0077  1.5256
10750TIP3   OH253664   6.105   3.525  12.418  0.0553 -0.2912 -0.0689
10750TIP3    H153665   6.123   3.470  12.494  1.1238  2.5138  1.8716
10750TIP3    H253666   6.038   3.477  12.369 -0.7663 -2.1929  2.6614
10751TIP3   OH253667   3.402   4.794   6.759  0.0301  0.4654  0.1461
10751TIP3    H153668   3.307   4.784   6.765 -0.1664  1.6345 -0.5462
10751TIP3    H253669   3.420   4.876   6.806  0.3386  1.5648 -1.7734
10752TIP3   OH253670   5.880   2.469   4.648  0.3766  0.5061  0.0288
10752TIP3    H153671   5.884   2.507   4.736 -0.1814 -0.4469  0.4848
10752TIP3    H253672   5.881   2.375   4.663  3.5303  0.2390 -1.1486
10753TIP3   OH253673   2.654   0.870   1.147 -0.2295 -0.3313 -0.0341
10753TIP3    H153674   2.716   0.936   1.177  1.8431 -1.4557 -1.5486
10753TIP3    H253675   2.660   0.800   1.212  0.3253 -0.5648 -0.3352
10754TIP3   OH253676   2.131   3.776   1.542  0.7719  0.1500 -0.1382
10754TIP3    H153677   2.163   3.826   1.467 -0.4408  1.0295 -0.1079
10754TIP3    H253678   2.206   3.725   1.571  1.4863  0.4093 -1.4467
10755TIP3   OH253679   5.957   6.122   1.677 -0.4340  0.0261  0.2832
10755TIP3    H153680   5.869   6.115   1.639  0.7708 -1.8171 -2.4689
10755TIP3    H253681   5.984   6.032   1.693  1.0442  0.5496  0.8994
10756TIP3   OH253682   1.457   4.660  13.021  0.1538  0.6546  0.4172
10756TIP3    H153683   1.369   4.692  13.040 -0.0322  0.2419  0.2673
10756TIP3    H253684   1.495   4.726  12.963 -1.2232 -0.6834 -2.2165
10757TIP3   OH253685   4.322   5.504  15.973  0.2390 -0.1744  0.2794
10757TIP3    H153686   4.296   5.472  16.059  1.9694 -0.5643  0.6942
10757TIP3    H253687   4.337   5.598  15.986 -5.3408  1.3087 -1.0520
10758TIP3   OH253688   6.254   0.831  11.554  0.0224 -0.5118  0.2276
10758TIP3    H153689   6.262   0.753  11.499  0.4209  0.0671 -0.5530
10758TIP3    H253690   6.273   0.799  11.643  0.0188 -1.3297 -0.0516
10759TIP3   OH253691   5.763   4.526   2.414  0.4016  0.4153 -0.4669
10759TIP3    H153692   5.738   4.489   2.499  0.2103  0.9240 -0.2969
10759TIP3    H253693   5.690   4.583   2.390  0.8433  0.9599 -0.5501
10760TIP3   OH253694   6.025   5.547  14.091  0.6186  0.1981 -0.0309
10760TIP3    H153695   6.114   5.565  14.120  0.6246 -1.5023  1.1231
10760TIP3    H253696   5.971   5.611  14.138  1.1940  1.2163 -0.7184
10761TIP3   OH253697   1.051   2.216   3.633  0.7465  0.2223 -0.0005
10761TIP3    H153698   1.034   2.248   3.544 -0.5192 -0.3855  0.0023
10761TIP3    H253699   0.993   2.140   3.642  1.7102 -0.4149  0.9474
10762TIP3   OH253700   3.120   2.280   5.105  0.2237  0.2391  0.1520
10762TIP3    H153701   3.206   2.239   5.113  1.5263  2.5176 -1.0106
10762TIP3    H253702   3.058   2.207   5.110  2.0950 -1.3775  2.2113
10763TIP3   OH253703   3.299   2.441  10.473 -0.4717 -0.2186 -0.0218
10763TIP3    H153704   3.368   2.382  10.442 -0.1371 -0.1757  0.6322
10763TIP3    H253705   3.221   2.385  10.478 -0.3908 -0.3640 -0.3787
10764TIP3   OH253706   5.978   0.083  16.895  0.0064  0.2069  1.0716
10764TIP3    H153707   5.927   0.160  16.871  0.1774 -0.1602 -0.6440
10764TIP3    H253708   5.973   0.079  16.990 -0.6660  1.8698  1.1377
10765TIP3   OH253709   5.989   2.896   1.727 -0.2924 -0.0750 -0.2265
10765TIP3    H153710   5.960   2.959   1.661 -0.8138 -0.8018 -0.7104
10765TIP3    H253711   5.912   2.843   1.746  0.0951 -0.4785  0.2837
10766TIP3   OH253712   2.443   2.269   0.689  0.0159  0.1884  0.7235
10766TIP3    H153713   2.470   2.348   0.642  0.7801  0.3255  1.3710
10766TIP3    H253714   2.474   2.283   0.778 -0.6444 -0.4557  1.0588
10767TIP3   OH253715   5.862   5.378  11.608 -0.3504 -0.5584 -0.2360
10767TIP3    H153716   5.930   5.385  11.674 -0.6871 -1.5281  0.2349
10767TIP3    H253717   5.888   5.304  11.553 -1.0428 -0.9749 -0.0138
10768TIP3   OH253718   6.699   0.706  10.402  0.0579  0.0713 -0.5251
10768TIP3    H153719   6.745   0.624  10.383  0.0324 -0.7452  2.4350
10768TIP3    H253720   6.611   0.692  10.365  0.5716 -0.4760 -1.6080
10769TIP3   OH253721   3.443   4.560   4.333 -0.1367 -0.0660 -0.6156
10769TIP3    H153722   3.511   4.612   4.375  0.9076  0.2971 -2.6460
10769TIP3    H253723   3.490   4.490   4.289 -1.3422 -1.4659  0.2093
10770TIP3   OH253724   5.759   4.828   6.689 -1.1508 -0.6061  0.8133
10770TIP3    H153725   5.687   4.878   6.652 -1.1381 -0.9592  0.3092
10770TIP3    H253726   5.752   4.742   6.649  0.4323 -0.2204 -0.3908
10771TIP3   OH253727   6.576   2.469  11.378  0.0236  0.4082  0.4434
10771TIP3    H153728   6.669   2.464  11.400  0.1862  1.1698 -0.0320
10771TIP3    H253729   6.561   2.562  11.360 -1.0404  0.4540  1.4060
10772TIP3   OH253730   5.286   2.875   1.439 -0.5961 -0.4104  0.3640
10772TIP3    H153731   5.194   2.874   1.411 -0.5649  0.8789  0.1235
10772TIP3    H253732   5.306   2.785   1.462 -1.9314 -0.7029  0.4277
10773TIP3   OH253733   5.463   4.310   0.359 -0.6070  0.3745 -0.3835
10773TIP3    H153734   5.402   4.273   0.294 -1.4340  1.7956 -0.4506
10773TIP3    H253735   5.444   4.261   0.439 -0.7069 -0.2921 -0.8027
10774TIP3   OH253736   6.639   6.717  10.910 -0.2319 -0.0283 -0.2068
10774TIP3    H153737   6.625   6.689  10.820 -2.1152 -0.4455  0.1759
10774TIP3    H253738   6.626   6.812  10.907 -0.8714 -0.1097 -0.2994
10775TIP3   OH253739   0.322   2.570   4.695 -0.1248  0.3693  0.0124
10775TIP3    H153740   0.300   2.649   4.646 -0.8888  1.5954  2.2149
10775TIP3    H253741   0.264   2.572   4.772 -0.2449 -2.4018  0.0913
10776TIP3   OH253742   3.712   3.483   6.668 -0.0447  0.3022  0.0677
10776TIP3    H153743   3.686   3.544   6.599  0.1004  0.9817  0.5971
10776TIP3    H253744   3.783   3.432   6.630 -0.0536  0.5829 -0.3255
10777TIP3   OH253745   3.403   2.425   1.120  0.3143 -0.0756 -0.3253
10777TIP3    H153746   3.323   2.422   1.067  0.0484 -2.2348  0.1088
10777TIP3    H253747   3.392   2.502   1.176 -1.4340 -0.2749 -0.3348
10778TIP3   OH253748   1.264   1.629   1.398 -0.3719 -0.2321  0.2966
10778TIP3    H153749   1.343   1.595   1.440 -0.5395 -1.9016 -0.6312
10778TIP3    H253750   1.277   1.612   1.304 -2.3105 -1.7299  0.2228
10779TIP3   OH253751   1.182   3.957   3.765  0.5109  0.1953  0.4480
10779TIP3    H153752   1.275   3.979   3.767  0.8486 -1.0190 -0.4549
10779TIP3    H253753   1.139   4.035   3.730  1.4221  0.1452 -0.8333
10780TIP3   OH253754   3.781   1.241  11.564 -0.3672  0.1272 -0.3168
10780TIP3    H153755   3.737   1.326  11.570  2.6282  1.8094 -0.2643
10780TIP3    H253756   3.858   1.250  11.621  0.2643 -2.5042 -0.6204
10781TIP3   OH253757   2.590   0.279   0.971 -1.0619  0.1044  0.3021
10781TIP3    H153758   2.599   0.225   0.893 -0.3009 -0.1091  0.5332
10781TIP3    H253759   2.657   0.246   1.031 -3.6502 -1.9118  2.3394
10782TIP3   OH253760   2.214   0.808   4.913 -0.7458 -0.3712 -0.0791
10782TIP3    H153761   2.290   0.858   4.884  1.2231 -2.6295  0.7604
10782TIP3    H253762   2.186   0.850   4.994 -0.8845  0.9038 -0.7634
10783TIP3   OH253763   0.754   0.408  12.854 -0.5519  0.3125 -0.1831
10783TIP3    H153764   0.736   0.500  12.833 -1.2625 -0.1306 -1.6325
10783TIP3    H253765   0.803   0.411  12.936  0.6851  2.0698 -0.9304
10784TIP3   OH253766   6.512   1.238  11.425 -0.2327 -0.4846 -0.3095
10784TIP3    H153767   6.487   1.216  11.515  0.6239 -0.5195 -0.0726
10784TIP3    H253768   6.455   1.311  11.402 -1.0516 -1.0200 -0.0502
10785TIP3   OH253769   4.777   1.554  15.719 -0.1023 -0.2325  0.1095
10785TIP3    H153770   4.778   1.459  15.729  1.6902 -0.1914  0.6529
10785TIP3    H253771   4.720   1.585  15.790  0.0221 -0.8518  0.4829
10786TIP3   OH253772   2.659   3.373   6.655 -0.1814 -0.0782  0.2405
10786TIP3    H153773   2.642   3.329   6.738  2.6638 -0.2531  0.8331
10786TIP3    H253774   2.591   3.339   6.596  0.4268 -3.4965  1.2876
10787TIP3   OH253775   4.622   5.612  15.529 -0.4650  0.0994  0.0318
10787TIP3    H153776   4.649   5.522  15.509 -0.5549  0.1394 -0.2699
10787TIP3    H253777   4.554   5.631  15.465  0.6187  0.9270 -0.9196
10788TIP3   OH253778   4.965   6.387   1.415  0.3958  0.5233  0.4859
10788TIP3    H153779   5.026   6.355   1.482  0.5796  2.6299  1.3729
10788TIP3    H253780   5.004   6.469   1.384  0.0615 -0.1323 -1.8852
10789TIP3   OH253781   0.016   4.999   0.078 -0.2007  0.3822 -0.0441
10789TIP3    H153782  -0.031   4.936   0.022  0.3616 -0.6690  0.6246
10789TIP3    H253783   0.033   4.951   0.159  3.3032  0.1428 -0.7554
10790TIP3   OH253784   5.121   2.641  10.813  0.4596 -0.7171  0.2397
10790TIP3    H153785   5.183   2.648  10.740 -0.1153 -0.1841 -0.2006
10790TIP3    H253786   5.038   2.617  10.772  0.4431 -1.7751  0.8643
10791TIP3   OH253787   3.406   1.315  13.553  0.2991 -0.0733 -0.2989
10791TIP3    H153788   3.421   1.409  13.549 -1.6773  0.2742 -0.4583
10791TIP3    H253789   3.398   1.296  13.646  1.1636 -0.1885 -0.2379
10792TIP3   OH253790   1.339   0.037   3.780  0.3641  0.0493  0.1014
10792TIP3    H153791   1.411   0.095   3.808 -0.2551  0.4227  0.9685
10792TIP3    H253792   1.266   0.060   3.838  0.4890 -2.5250  1.4479
10793TIP3   OH253793   5.425   5.872   3.851 -0.6069  0.3171 -0.1789
10793TIP3    H153794   5.454   5.796   3.902 -1.8484 -0.1528 -0.1537
10793TIP3    H253795   5.449   5.948   3.905 -0.8994 -0.1295  0.5949
10794TIP3   OH253796   0.060   3.213  14.061  0.1681 -0.0424 -0.8056
10794TIP3    H153797   0.085   3.204  14.153  0.0958 -0.7230 -0.8478
10794TIP3    H253798   0.075   3.126  14.024 -3.2467 -0.8560 -0.5917
10795TIP3   OH253799   5.074   4.294   5.361  0.1709  0.7272 -0.3531
10795TIP3    H153800   5.102   4.358   5.427 -3.4938  2.2018 -0.0112
10795TIP3    H253801   5.019   4.233   5.409 -0.1321  0.0242 -1.5500
10796TIP3   OH253802   2.009   0.928  11.545 -0.4116  0.2359 -0.4090
10796TIP3    H153803   1.957   0.995  11.589 -0.4965  0.3619 -0.6917
10796TIP3    H253804   1.945   0.863  11.516 -0.2469 -0.3392  0.5026
10797TIP3   OH253805   0.760   0.686  14.851  0.0783  0.1316  0.4434
10797TIP3    H153806   0.791   0.673  14.762 -0.5158 -0.8333  0.3646
10797TIP3    H253807   0.667   0.706  14.841  0.4848  2.4021  0.7068
10798TIP3   OH253808   6.333   1.886  14.362 -0.2089  0.1256  0.0449
10798TIP3    H153809   6.307   1.886  14.270 -2.0060 -2.1721  0.4622
10798TIP3    H253810   6.252   1.874  14.411  0.8413  0.0064  1.8742
10799TIP3   OH253811   0.831   5.385  11.545  0.0885  0.2954 -0.4646
10799TIP3    H153812   0.859   5.295  11.563 -0.0654  0.4528  0.5939
10799TIP3    H253813   0.904   5.423  11.496  0.3243 -0.2854 -0.5745
10800TIP3   OH253814   0.201   0.918  16.644 -0.3064 -0.3683 -0.1950
10800TIP3    H153815   0.175   0.904  16.735  0.8562  0.5334  0.3126
10800TIP3    H253816   0.182   1.011  16.628 -1.5250 -0.7774 -1.2405
10801TIP3   OH253817   6.429   5.862   5.947 -0.3120 -0.4415 -0.1282
10801TIP3    H153818   6.349   5.811   5.944 -0.6617 -0.0167  1.2229
10801TIP3    H253819   6.451   5.867   6.040  1.4965 -0.8718 -0.4846
10802TIP3   OH253820   6.515   1.705  11.385 -0.3185  0.2479  0.8058
10802TIP3    H153821   6.565   1.633  11.346 -1.3682 -0.0571 -0.0316
10802TIP3    H253822   6.423   1.685  11.364 -0.6274  1.9119  0.3881
10803TIP3   OH253823   0.207   4.859  10.750 -0.5773 -0.2203 -1.1931
10803TIP3    H153824   0.229   4.923  10.682 -0.0559 -0.5882 -1.3827
10803TIP3    H253825   0.230   4.775  10.711 -1.3049 -0.5283 -0.9662
10804TIP3   OH253826   0.806   0.053   1.294 -0.5865  0.2682  0.4131
10804TIP3    H153827   0.713   0.050   1.318 -1.3319 -0.4164 -2.1892
10804TIP3    H253828   0.819   0.141   1.259 -0.5894  0.0011 -0.2822
10805TIP3   OH253829   3.786   5.978  14.674 -0.2912 -0.2477 -0.6644
10805TIP3    H153830   3.824   6.029  14.745 -1.2363  0.5976 -0.7420
10805TIP3    H253831   3.697   5.958  14.703 -0.1034 -1.4758 -0.8400
10806TIP3   OH253832   5.483   2.695  11.566 -0.1655 -0.1147  0.1938
10806TIP3    H153833   5.574   2.687  11.593  0.0846 -0.4198 -0.6758
10806TIP3    H253834   5.451   2.605  11.564  0.0311 -0.1793 -1.1342
10807TIP3   OH253835   4.523   1.280  14.867 -0.0913 -0.4128 -0.1624
10807TIP3    H153836   4.523   1.190  14.836 -1.7254 -0.1060 -1.1674
10807TIP3    H253837   4.447   1.284  14.926  0.5821  0.0567  0.6930
10808TIP3   OH253838   5.718   6.038   1.094  0.1929  0.6222 -0.2279
10808TIP3    H153839   5.761   6.104   1.148 -0.8856 -0.6938  2.4094
10808TIP3    H253840   5.627   6.037   1.124  0.1755 -2.0654 -0.0599
10809TIP3   OH253841   5.860   4.011  13.854 -0.5885 -0.0421  0.8972
10809TIP3    H153842   5.901   3.944  13.800  2.1438  1.5023  0.8718
10809TIP3    H253843   5.838   3.966  13.935 -0.6442 -1.3798  0.1713
10810TIP3   OH253844   5.159   0.981   5.006  0.4426 -0.3566  0.2303
10810TIP3    H153845   5.108   0.976   4.925  1.1227 -1.4978 -0.1466
10810TIP3    H253846   5.172   1.075   5.020 -0.8245 -0.0912 -0.2521
10811TIP3   OH253847   0.705   2.977   6.182 -0.5259 -0.5832 -0.5567
10811TIP3    H153848   0.708   3.071   6.164  0.8749 -0.8472 -1.8900
10811TIP3    H253849   0.745   2.967   6.268 -0.7831  0.0339 -0.3595
10812TIP3   OH253850   5.115   3.359  13.913  0.1330  0.0557 -0.1173
10812TIP3    H153851   5.153   3.375  14.000 -2.2264  1.6299  0.7117
10812TIP3    H253852   5.070   3.440  13.891 -0.9852 -1.0008 -1.9470
10813TIP3   OH253853   2.600   1.624  14.992 -0.0796 -0.4940  0.7321
10813TIP3    H153854   2.633   1.699  14.942  0.0739  0.0278  1.6046
10813TIP3    H253855   2.556   1.662  15.067  0.0694 -1.2842  1.2361
10814TIP3   OH253856   6.485   4.527   1.743  0.2167 -0.0979  0.1056
10814TIP3    H153857   6.489   4.438   1.779  1.1384 -0.1662 -0.1563
10814TIP3    H253858   6.435   4.518   1.662 -0.2267 -0.2647  0.3920
10815TIP3   OH253859   5.229   5.684   4.088  0.0667  0.6475 -0.5444
10815TIP3    H153860   5.183   5.649   4.012  0.1996 -0.7057 -0.0207
10815TIP3    H253861   5.322   5.681   4.063  0.3798 -2.4285  0.6316
10816TIP3   OH253862   1.736   6.429  13.077  0.0103 -0.2113 -0.4126
10816TIP3    H153863   1.663   6.404  13.133 -0.3835 -2.9072 -1.9822
10816TIP3    H253864   1.695   6.474  13.003 -0.0718 -1.4170 -1.1229
10817TIP3   OH253865   5.664   2.228   2.971  0.2232  0.1682 -0.4207
10817TIP3    H153866   5.633   2.273   3.050  1.4210  0.7016 -0.2345
10817TIP3    H253867   5.603   2.255   2.903 -1.8178 -1.5588  0.5955
10818TIP3   OH253868   4.585   3.087  17.145 -0.0323  0.7212 -0.2082
10818TIP3    H153869   4.536   3.077  17.227 -1.3015  1.4643 -0.8286
10818TIP3    H253870   4.517   3.102  17.079  0.6440 -3.2448 -2.0520
10819TIP3   OH253871   3.474   2.012   1.888 -0.5760  0.1318  0.9904
10819TIP3    H153872   3.477   2.042   1.797 -0.6959 -0.9394  0.6097
10819TIP3    H253873   3.557   1.965   1.900 -1.3354 -1.3175  0.8303
10820TIP3   OH253874   0.201   3.329   3.292 -0.6610  0.1626 -0.3330
10820TIP3    H153875   0.238   3.312   3.378 -1.9848  2.0023  0.6811
10820TIP3    H253876   0.275   3.357   3.239 -0.1577  1.4280  0.9561
10821TIP3   OH253877   2.949   2.362  16.739 -1.0125  0.0215 -0.0420
10821TIP3    H153878   2.880   2.314  16.694 -1.0791 -0.4424  0.5493
10821TIP3    H253879   2.919   2.370  16.829 -1.6955  2.4807 -0.4153
10822TIP3   OH253880   2.871   3.746   5.833 -0.2007  0.1042 -0.3595
10822TIP3    H153881   2.807   3.811   5.805 -0.3246 -0.4678 -1.4718
10822TIP3    H253882   2.953   3.774   5.793  0.0727  0.3979  0.4031
10823TIP3   OH253883   6.737   6.165  12.018 -0.1713  0.0880  0.0326
10823TIP3    H153884   6.700   6.080  12.043  0.4815  0.1499  1.2493
10823TIP3    H253885   6.826   6.144  11.987  0.3627  0.4222  1.2923
10824TIP3   OH253886   3.522   0.804   1.723 -0.6416 -0.1699  0.3855
10824TIP3    H153887   3.506   0.850   1.805 -0.5627  0.8096 -0.1336
10824TIP3    H253888   3.593   0.853   1.681 -0.9591 -0.4084 -0.4564
10825TIP3   OH253889   0.060   6.738   2.944  0.2737 -0.7904  0.2004
10825TIP3    H153890   0.038   6.807   3.006  0.7170 -1.5804  1.2819
10825TIP3    H253891   0.154   6.749   2.928 -0.2451  0.8615 -2.2316
10826TIP3   OH253892   6.697   1.536  11.670  0.6694 -0.0746  0.0175
10826TIP3    H153893   6.613   1.511  11.632  1.3037  1.8003 -2.9057
10826TIP3    H253894   6.676   1.566  11.759 -1.1833 -2.7985  0.6182
10827TIP3   OH253895   3.502   5.517  13.618 -0.1653 -0.1911 -0.2969
10827TIP3    H153896   3.413   5.495  13.647 -0.4353 -0.3302 -1.1916
10827TIP3    H253897   3.489   5.565  13.536  0.5653  0.2550 -0.1540
10828TIP3   OH253898   5.919   2.036  12.161 -0.1929  0.5313 -0.7475
10828TIP3    H153899   5.932   1.942  12.174 -0.7423  0.6891  1.3710
10828TIP3    H253900   5.828   2.052  12.189  0.4500  1.9259  0.7638
10829TIP3   OH253901   6.754   3.859  15.483 -0.6138 -0.0958  0.2355
10829TIP3    H153902   6.788   3.948  15.471  0.1064 -0.4333 -0.2276
10829TIP3    H253903   6.795   3.807  15.414 -0.3659 -0.9704  1.0193
10830TIP3   OH253904   0.389   4.252   2.268  0.0755 -0.2352  0.0217
10830TIP3    H153905   0.438   4.228   2.346 -0.1722 -0.8000  0.0037
10830TIP3    H253906   0.298   4.251   2.295  0.0883  1.4819  0.2356
10831TIP3   OH253907   2.463   2.539  13.317  0.5351  0.4704 -0.2125
10831TIP3    H153908   2.385   2.538  13.262 -0.1696  1.2585  0.7504
10831TIP3    H253909   2.509   2.619  13.292  1.7776 -0.6374 -1.7274
10832TIP3   OH253910   3.218   5.656   5.447  0.1617 -0.3100 -0.5584
10832TIP3    H153911   3.145   5.693   5.397  0.1738  0.5381  0.0284
10832TIP3    H253912   3.270   5.609   5.382 -1.2009 -1.4214 -0.8939
10833TIP3   OH253913   5.331   2.753  11.806  0.0337  0.0164 -0.4595
10833TIP3    H153914   5.391   2.781  11.736 -0.1238 -0.1547 -0.6635
10833TIP3    H253915   5.313   2.661  11.787  0.2510 -0.1271 -0.0012
10834TIP3   OH253916   2.077   2.485   6.414  0.0870  0.2727 -0.9907
10834TIP3    H153917   1.982   2.497   6.406  0.2415  0.8205 -2.2687
10834TIP3    H253918   2.106   2.561   6.464  0.0469  0.9890 -2.0355
10835TIP3   OH253919   1.547   4.101  14.270  0.1433 -0.3591  0.3648
10835TIP3    H153920   1.619   4.049  14.234 -0.7316 -1.9753  0.8562
10835TIP3    H253921   1.510   4.146  14.195  1.8884  0.8401  0.1514
10836TIP3   OH253922   1.007   5.815   4.775 -0.3735 -0.1885 -0.2430
10836TIP3    H153923   0.978   5.899   4.740  0.9504  0.1876 -0.4831
10836TIP3    H253924   0.942   5.793   4.841  0.8043  2.4934  1.9798
10837TIP3   OH253925   6.220   3.127   5.641 -0.4587  0.7039  0.1395
10837TIP3    H153926   6.149   3.172   5.686  0.1490  0.6323  1.1900
10837TIP3    H253927   6.195   3.035   5.644 -1.6878  0.8974 -1.9853
10838TIP3   OH253928   3.042   3.973   2.911 -0.0232 -0.4336  0.2015
10838TIP3    H153929   2.967   3.991   2.854 -0.4185 -2.4426  0.0173
10838TIP3    H253930   3.104   3.926   2.856  0.4277 -0.7216  0.9346
10839TIP3   OH253931   5.168   3.760   5.503  0.1940 -0.1062 -0.2614
10839TIP3    H153932   5.239   3.738   5.563  0.3768  1.4498  0.1234
10839TIP3    H253933   5.200   3.837   5.455 -1.0053  0.2784 -0.4680
10840TIP3   OH253934   0.551   1.205  10.986  0.0419 -0.4997 -0.1672
10840TIP3    H153935   0.550   1.165  10.899  0.3985  0.0172 -0.4198
10840TIP3    H253936   0.575   1.135  11.046  1.8726 -0.4219 -0.7405
10841TIP3   OH253937   5.990   3.278  12.038  0.3814 -0.1941  0.6377
10841TIP3    H153938   5.899   3.260  12.015  0.1835  0.4061  0.9328
10841TIP3    H253939   5.990   3.284  12.133  0.7961 -0.5245  0.6626
10842TIP3   OH253940   1.129   0.559  14.419 -0.0413 -0.0984  0.2281
10842TIP3    H153941   1.058   0.527  14.363  0.4234  0.9925 -1.0217
10842TIP3    H253942   1.209   0.526  14.377  0.2284 -1.9389  2.0203
10843TIP3   OH253943   4.865   5.647   5.978  0.9352 -0.2084 -0.0948
10843TIP3    H153944   4.913   5.615   6.054 -0.1074 -0.1739  0.6062
10843TIP3    H253945   4.814   5.571   5.948 -0.9841  0.5272  1.1279
10844TIP3   OH253946   3.301   2.903  15.829 -0.5272 -0.1696  0.1137
10844TIP3    H153947   3.334   2.980  15.874  2.0461 -0.3366 -1.3308
10844TIP3    H253948   3.275   2.935  15.742 -1.6060 -0.5750  0.2635
10845TIP3   OH253949   3.243   3.299  15.854  0.8992 -0.2369  0.0778
10845TIP3    H153950   3.303   3.243  15.902  0.4909 -1.0729 -0.3577
10845TIP3    H253951   3.295   3.335  15.783  0.6354 -1.8931 -1.0074
10846TIP3   OH253952   0.736   6.134   1.174  0.2990  0.0496  0.1683
10846TIP3    H153953   0.755   6.085   1.254 -0.3527  0.6702  0.7203
10846TIP3    H253954   0.756   6.225   1.196 -0.1984  0.2699 -0.2639
10847TIP3   OH253955   6.467   2.293  17.085  0.6146  0.1296 -0.2543
10847TIP3    H153956   6.372   2.288  17.083  0.6088 -3.6769  1.1741
10847TIP3    H253957   6.486   2.381  17.117 -2.3882  1.0026 -0.6050
10848TIP3   OH253958   1.484   6.236   2.751 -0.5055  0.3014  0.4972
10848TIP3    H153959   1.489   6.326   2.783 -0.9254  1.1233 -1.5321
10848TIP3    H253960   1.390   6.219   2.741 -0.4306 -0.3983  0.9583
10849TIP3   OH253961   4.391   0.641   3.292  0.1611  0.0626 -0.2912
10849TIP3    H153962   4.339   0.584   3.350  0.8688 -0.0358  0.2697
10849TIP3    H253963   4.436   0.580   3.234 -0.2714  0.1435 -0.7187
10850TIP3   OH253964   3.938   4.703  15.024  0.0514  0.2088  0.3225
10850TIP3    H153965   3.851   4.731  14.996  0.0870 -0.2431 -0.2599
10850TIP3    H253966   3.930   4.609  15.039  0.6111  0.0339 -0.4228
10851TIP3   OH253967   1.722   0.189   5.745  0.3491  0.4562  0.7911
10851TIP3    H153968   1.675   0.141   5.813  0.0396 -0.6120 -0.1358
10851TIP3    H253969   1.655   0.246   5.706 -0.0766 -0.6552 -0.1561
10852TIP3   OH253970   5.415   5.133  16.154 -0.2316  0.5765  0.1395
10852TIP3    H153971   5.362   5.202  16.112 -0.2372  0.2528 -0.3967
10852TIP3    H253972   5.446   5.173  16.235 -0.8973  0.9390  0.2235
10853TIP3   OH253973   6.360   4.754  11.432  0.4638  0.1292  0.0635
10853TIP3    H153974   6.416   4.755  11.509  0.0685 -2.0819  0.4495
10853TIP3    H253975   6.371   4.841  11.394  0.6321  1.3307  2.6124
10854TIP3   OH253976   4.874   1.568  13.230 -0.3995  0.4034 -0.1478
10854TIP3    H153977   4.943   1.606  13.175 -0.6642  1.2410  0.0815
10854TIP3    H253978   4.887   1.473  13.223  0.4630  0.5374 -0.5064
10855TIP3   OH253979   2.243   1.652  15.054  0.4585 -0.0726 -0.2874
10855TIP3    H153980   2.196   1.715  15.000 -0.1142 -1.5725 -1.6101
10855TIP3    H253981   2.214   1.566  15.023  0.3388 -1.0208  2.2053
10856TIP3   OH253982   5.846   2.583   2.937  0.6225  0.4980 -0.0898
10856TIP3    H153983   5.830   2.572   2.843 -1.1242 -0.2824  0.2434
10856TIP3    H253984   5.798   2.663   2.960 -2.1592 -1.2362  0.7222
10857TIP3   OH253985   3.768   2.690   0.644  0.3348  0.6532 -0.1331
10857TIP3    H153986   3.701   2.757   0.657 -2.2799 -1.8328  0.1455
10857TIP3    H253987   3.765   2.637   0.724  0.1181 -1.5431 -1.5063
10858TIP3   OH253988   3.227   2.834   4.079 -0.5300 -0.0541 -0.0122
10858TIP3    H153989   3.173   2.883   4.018  0.1419  0.8152  0.0688
10858TIP3    H253990   3.176   2.833   4.160  0.2664  2.3001  0.6083
10859TIP3   OH253991   2.465   4.816  15.118  0.1708 -0.3241  0.0720
10859TIP3    H153992   2.434   4.728  15.095  0.1233 -0.3356  0.1806
10859TIP3    H253993   2.463   4.864  15.035  0.1123 -0.3996  0.0294
10860TIP3   OH253994   3.405   4.704   3.812 -0.2608  0.1375  0.1746
10860TIP3    H153995   3.396   4.771   3.880  0.3264  1.6353 -1.1469
10860TIP3    H253996   3.323   4.709   3.762  0.8230  1.9461 -1.6243
10861TIP3   OH253997   0.510   5.394  13.763 -0.0052  0.1784  0.7117
10861TIP3    H153998   0.559   5.336  13.705 -0.9727 -0.6773  0.7307
10861TIP3    H253999   0.525   5.482  13.726 -0.4023 -0.3202 -0.7007
10862TIP3   OH254000   2.804   6.190  15.941  0.1748 -0.1683 -0.2602
10862TIP3    H154001   2.857   6.190  16.020  1.2244  1.7424 -0.8951
10862TIP3    H254002   2.771   6.101  15.934  2.2351 -1.0876  0.8685
10863TIP3   OH254003   1.622   0.557  15.272  0.1319  0.3285  0.3953
10863TIP3    H154004   1.655   0.624  15.332  0.9854 -0.7263  1.1274
10863TIP3    H254005   1.528   0.555  15.289 -0.0349  1.8498 -0.1803
10864TIP3   OH254006   1.130   3.082  10.328 -0.2133  0.0412 -0.2098
10864TIP3    H154007   1.156   3.158  10.379 -0.8063 -0.4360  0.8204
10864TIP3    H254008   1.034   3.084  10.327 -0.2489 -0.9662  0.2575
10865TIP3   OH254009   4.627   2.259  17.244 -0.2513  0.2264 -0.1254
10865TIP3    H154010   4.617   2.193  17.313  2.2026 -0.2178 -0.0950
10865TIP3    H254011   4.592   2.340  17.282  2.5235  0.4018  2.3906
10866TIP3   OH254012   6.451   2.593  14.753  0.1242 -0.3276 -0.0562
10866TIP3    H154013   6.472   2.527  14.819 -0.2774  0.8224  1.2658
10866TIP3    H254014   6.535   2.614  14.712  0.2677 -1.5699 -0.4416
10867TIP3   OH254015   4.342   3.828  13.765  0.0537  0.4622 -0.0793
10867TIP3    H154016   4.362   3.735  13.759 -1.2450  0.1247  0.4738
10867TIP3    H254017   4.346   3.847  13.859 -2.0381  0.3769  0.0700
10868TIP3   OH254018   1.251   4.525   3.218 -0.0806 -0.4897 -0.4222
10868TIP3    H154019   1.250   4.461   3.147 -2.7457  1.6529 -2.5368
10868TIP3    H254020   1.314   4.591   3.190 -0.0751 -0.3534 -0.0905
10869TIP3   OH254021   0.802   5.943  11.841 -0.5113  0.4023 -0.0972
10869TIP3    H154022   0.741   6.003  11.798  0.5760 -0.3584 -2.8637
10869TIP3    H254023   0.758   5.858  11.838  0.2831  0.0208 -1.2960
10870TIP3   OH254024   6.735   4.152   1.781  0.0824 -0.5163 -0.0835
10870TIP3    H154025   6.788   4.226   1.809 -1.5098  1.1057 -1.1402
10870TIP3    H254026   6.781   4.116   1.706  1.1046 -0.9207  0.7182
10871TIP3   OH254027   3.312   4.171   5.251 -0.6077 -0.0874  0.2790
10871TIP3    H154028   3.221   4.142   5.249 -0.5201 -0.3294 -0.2936
10871TIP3    H254029   3.360   4.104   5.202 -0.0153 -0.3293  1.1712
10872TIP3   OH254030   1.559   5.298  11.218 -0.5456 -0.3905  0.1376
10872TIP3    H154031   1.563   5.245  11.297  2.0204 -0.8991 -0.2615
10872TIP3    H254032   1.602   5.246  11.151  0.4400  1.4347 -0.7252
10873TIP3   OH254033   2.720   3.301   6.260  0.5119 -0.3773  0.4991
10873TIP3    H154034   2.676   3.386   6.271 -0.2260 -0.6125 -0.4718
10873TIP3    H254035   2.664   3.239   6.306 -0.9079 -0.8730 -1.7663
10874TIP3   OH254036   4.050   1.468  15.827  0.2643 -0.4702 -0.0707
10874TIP3    H154037   4.104   1.543  15.853  1.1415 -0.5365 -1.5850
10874TIP3    H254038   3.963   1.489  15.860  0.2648  1.7056 -1.2209
10875TIP3   OH254039   0.221   1.906   2.726 -0.0944 -0.4169 -0.1786
10875TIP3    H154040   0.259   1.922   2.813 -2.0868 -0.5689  0.7931
10875TIP3    H254041   0.165   1.982   2.711  0.5885 -0.1645 -1.5731
10876TIP3   OH254042   2.647   1.872   1.869 -0.2457 -0.1724  0.2766
10876TIP3    H154043   2.597   1.893   1.948 -1.3984  2.0190 -0.9381
10876TIP3    H254044   2.738   1.888   1.894 -0.7008  1.9338  0.8166
10877TIP3   OH254045   1.763   0.556  14.003  0.5498  0.0745  0.0471
10877TIP3    H154046   1.694   0.598  14.055 -0.1549 -0.2577 -0.5904
10877TIP3    H254047   1.836   0.617  14.007  0.2180  0.4420  0.7324
10878TIP3   OH254048   1.214   4.612  14.736  0.3329  0.3188 -0.0534
10878TIP3    H154049   1.283   4.607  14.670  1.2939 -2.0127  0.9977
10878TIP3    H254050   1.148   4.550  14.705  0.0279  0.4512  0.3385
10879TIP3   OH254051   4.193   0.361   1.462 -0.3090  0.3992  0.0535
10879TIP3    H154052   4.112   0.311   1.470  0.7103 -1.2910  0.1283
10879TIP3    H254053   4.168   0.451   1.485 -2.4517  0.2192 -1.3183
10880TIP3   OH254054   3.762   0.843  13.158 -0.8093 -0.0026 -0.3315
10880TIP3    H154055   3.724   0.763  13.122 -1.0063 -0.1448  0.1891
10880TIP3    H254056   3.834   0.813  13.213 -0.9423  0.1738 -0.0632
10881TIP3   OH254057   2.448   3.722   5.816 -0.2357  0.5386  0.6613
10881TIP3    H154058   2.448   3.661   5.742  0.4851  0.9261  0.3317
10881TIP3    H254059   2.493   3.676   5.886  1.4064  1.0990  0.0367
10882TIP3   OH254060   3.497   3.419   2.150 -0.0567 -0.4634 -0.3451
10882TIP3    H154061   3.490   3.324   2.136 -0.7565 -0.7730  1.6715
10882TIP3    H254062   3.411   3.444   2.184  0.4732  0.6841  0.2072
10883TIP3   OH254063   0.378   0.263   2.507 -0.2851 -0.3815 -0.1114
10883TIP3    H154064   0.436   0.314   2.451 -1.0762 -0.7291 -1.2853
10883TIP3    H254065   0.436   0.205   2.555  0.2933 -1.8147 -2.3965
10884TIP3   OH254066   5.556   2.019  11.852 -0.6110  0.3495  0.2821
10884TIP3    H154067   5.563   1.924  11.839 -1.7655  0.4192 -1.0854
10884TIP3    H254068   5.623   2.057  11.796 -1.4181  0.3976 -0.6748
10885TIP3   OH254069   4.302   3.496  11.620 -0.2841  0.0782  0.1387
10885TIP3    H154070   4.216   3.500  11.576  0.5343  1.0313 -1.4862
10885TIP3    H254071   4.305   3.577  11.672 -1.8787 -1.7457  3.3952
10886TIP3   OH254072   1.763   0.591   0.301 -0.3956  0.0926  0.0529
10886TIP3    H154073   1.734   0.682   0.297  0.5627  0.5427  2.0747
10886TIP3    H254074   1.685   0.539   0.283 -1.4028  1.3055  0.8384
10887TIP3   OH254075   2.879   3.274   1.177  0.5064 -0.4885  0.1883
10887TIP3    H154076   2.802   3.272   1.120  0.6316  1.1462 -0.0748
10887TIP3    H254077   2.947   3.316   1.124  1.0526 -0.2702  1.0416
10888TIP3   OH254078   2.775   3.170  15.667  0.4200 -0.0902  0.9923
10888TIP3    H154079   2.850   3.154  15.725 -0.0412  0.3760  1.7204
10888TIP3    H254080   2.723   3.237  15.711 -1.2968 -1.5504  1.3075
10889TIP3   OH254081   2.126   0.746  14.942  0.2563  0.2547  0.2442
10889TIP3    H154082   2.212   0.787  14.950  0.8688 -1.2325  1.8727
10889TIP3    H254083   2.086   0.755  15.029 -1.0476  0.4782 -0.3451
10890TIP3   OH254084   1.758   5.996  16.012  0.1941 -0.2864  0.2184
10890TIP3    H154085   1.663   6.009  16.016  0.0378 -0.7324 -1.4092
10890TIP3    H254086   1.774   5.923  16.071 -0.4430 -0.0407  0.7105
10891TIP3   OH254087   6.569   5.046   1.446 -0.3252 -0.5034 -0.0333
10891TIP3    H154088   6.489   5.058   1.395 -1.3744  4.0233  2.1860
10891TIP3    H254089   6.542   4.995   1.522 -1.6398  2.1703  1.4144
10892TIP3   OH254090   4.647   4.611   4.227  0.5486  0.2652  0.0291
10892TIP3    H154091   4.621   4.637   4.138  1.6534  0.1945 -0.3304
10892TIP3    H254092   4.683   4.691   4.265 -0.5647  0.4755  0.6802
10893TIP3   OH254093   1.665   2.896   1.413 -0.5357  0.1866  0.5327
10893TIP3    H154094   1.588   2.951   1.397 -0.5061  0.0283 -0.1984
10893TIP3    H254095   1.722   2.949   1.468  0.9526  2.2841 -2.6811
10894TIP3   OH254096   5.850   2.209   5.767  0.4890  0.2470 -0.1060
10894TIP3    H154097   5.793   2.233   5.695 -0.2705  0.1303  0.4502
10894TIP3    H254098   5.862   2.289   5.818  0.7643  0.2538 -0.1770
10895TIP3   OH254099   0.129   3.410  12.487 -0.0816 -0.3730  0.0772
10895TIP3    H154100   0.043   3.447  12.506  0.6234  1.4447  0.0116
10895TIP3    H254101   0.119   3.316  12.501 -1.8450 -0.1091  0.8846
10896TIP3   OH254102   1.053   0.752   3.468  0.2945 -0.0510 -0.3497
10896TIP3    H154103   0.984   0.701   3.426 -1.0863  2.2318 -1.0540
10896TIP3    H254104   1.097   0.690   3.526 -2.9954 -1.4436  0.9471
10897TIP3   OH254105   0.785   2.610  16.315 -0.2630  0.1646 -0.0890
10897TIP3    H154106   0.785   2.691  16.366  0.9197  0.4127 -0.4651
10897TIP3    H254107   0.816   2.635  16.228  2.1024 -0.9789  0.3260
10898TIP3   OH254108   2.758   2.712   6.283  0.1910  0.0762  0.0326
10898TIP3    H154109   2.700   2.652   6.237 -1.5774  1.5352  0.2270
10898TIP3    H254110   2.846   2.682   6.261 -0.5982 -0.9474 -2.0469
10899TIP3   OH254111   4.150   6.012   5.869 -0.2168 -0.2739 -0.0488
10899TIP3    H154112   4.194   6.038   5.950 -0.5053  1.1506 -0.3212
10899TIP3    H254113   4.057   6.012   5.892 -0.3616  0.9272 -0.5637
10900TIP3   OH254114   3.505   3.529  12.279 -0.1782  0.3549 -0.4942
10900TIP3    H154115   3.417   3.533  12.240 -0.7738 -0.3753  0.7079
10900TIP3    H254116   3.515   3.614  12.323 -1.1732 -0.3293  1.1351
10901TIP3   OH254117   1.072   4.151  13.930  0.1604  0.2850  0.5134
10901TIP3    H154118   0.990   4.131  13.885  0.1010  1.3883  0.1080
10901TIP3    H254119   1.119   4.067  13.934  1.2877  0.5087 -3.7767
10902TIP3   OH254120   6.612   3.433  14.033 -0.4523  0.5241  0.1481
10902TIP3    H154121   6.543   3.385  13.988 -0.9091 -0.0840  1.4328
10902TIP3    H254122   6.677   3.367  14.055  0.3324  1.0161 -0.6475
10903TIP3   OH254123   1.536   4.194  16.210  0.5096 -0.7601  1.0037
10903TIP3    H154124   1.590   4.153  16.143 -0.1004 -1.8903  1.1885
10903TIP3    H254125   1.600   4.235  16.269  1.2308 -2.4739  1.4819
10904TIP3   OH254126   4.665   2.526  16.137 -0.0289  0.0712 -0.1562
10904TIP3    H154127   4.597   2.474  16.180 -1.1953  0.8100 -1.0158
10904TIP3    H254128   4.721   2.462  16.093 -1.3093 -0.5102 -1.0092
10905TIP3   OH254129   6.190   0.586  15.047  0.0488  0.1803 -0.0908
10905TIP3    H154130   6.135   0.631  15.110  0.6121 -2.0312  2.1260
10905TIP3    H254131   6.133   0.519  15.009 -0.3263  1.5597 -2.1606
10906TIP3   OH254132   3.320   6.280   5.112 -0.0859 -0.2488 -0.1606
10906TIP3    H154133   3.364   6.333   5.178 -1.2125 -0.7314  1.0023
10906TIP3    H254134   3.259   6.341   5.069  0.4955  0.0133 -0.6263
10907TIP3   OH254135   4.741   0.216  12.549 -0.5206 -0.0904  0.0622
10907TIP3    H154136   4.761   0.125  12.528 -3.4264 -0.5837 -0.9528
10907TIP3    H254137   4.763   0.264  12.470  0.7929  0.1063  0.5178
10908TIP3   OH254138   2.455   6.018  11.944  0.4434  0.5261  0.2140
10908TIP3    H154139   2.532   5.967  11.968  0.5373  0.6057  0.0861
10908TIP3    H254140   2.413   5.968  11.875 -0.0890  0.0593  0.8659
10909TIP3   OH254141   4.077   4.001   4.657 -0.2839 -0.1399 -0.3517
10909TIP3    H154142   4.002   3.993   4.599 -0.2048 -0.1482 -0.4532
10909TIP3    H254143   4.146   4.039   4.602  0.0099 -0.8053 -0.4577
10910TIP3   OH254144   4.993   6.061  12.703  0.6912 -0.4329 -0.1067
10910TIP3    H154145   5.072   6.020  12.667  1.2609  1.1991 -0.8410
10910TIP3    H254146   4.950   5.991  12.752  1.1294 -2.1352 -1.9847
10911TIP3   OH254147   3.889   2.886   4.776 -0.1267 -0.7620  0.1330
10911TIP3    H154148   3.971   2.843   4.799  2.4098  4.4153  2.5005
10911TIP3    H254149   3.902   2.914   4.685  2.2734  2.3839  1.2625
10912TIP3   OH254150   5.509   1.916   1.366 -0.6097 -0.3361 -0.1230
10912TIP3    H154151   5.457   1.836   1.374  0.7079 -1.2230 -0.1428
10912TIP3    H254152   5.513   1.934   1.272 -1.8068  0.3983 -0.0597
10913TIP3   OH254153   3.550   2.251  13.837  0.4755 -0.9344  0.5091
10913TIP3    H154154   3.474   2.199  13.810  0.8398 -1.7121  0.9546
10913TIP3    H254155   3.592   2.199  13.906  0.7392  0.0534  1.1031
10914TIP3   OH254156   0.853   1.495   1.082  0.6548  0.1429  0.5593
10914TIP3    H154157   0.860   1.585   1.114  0.5525  0.0674  0.7974
10914TIP3    H254158   0.776   1.496   1.025  0.8245  0.2723  0.3267
10915TIP3   OH254159   4.766   4.982  10.907 -0.5999 -0.3511 -0.9801
10915TIP3    H154160   4.722   5.056  10.949 -0.4234 -0.0943 -1.2491
10915TIP3    H254161   4.761   5.000  10.813 -1.6769 -1.3068 -1.1345
10916TIP3   OH254162   0.065   3.820  12.668  0.2693  0.3036  0.1482
10916TIP3    H154163   0.056   3.912  12.642  0.9316  0.1427 -0.6941
10916TIP3    H254164   0.069   3.822  12.764 -2.7979  0.8678  0.3513
10917TIP3   OH254165   2.805   6.083  11.365  0.1600  0.3505 -0.1989
10917TIP3    H154166   2.870   6.074  11.295  1.0900  1.2520  0.5185
10917TIP3    H254167   2.721   6.086  11.319  0.7675  1.2075 -1.3039
10918TIP3   OH254168   0.552   4.261  13.379  0.2501  0.1157 -0.0889
10918TIP3    H154169   0.560   4.178  13.427  1.3677  0.0155 -0.4165
10918TIP3    H254170   0.469   4.255  13.333 -0.2311 -0.3286  0.8210
10919TIP3   OH254171   3.892   1.830  11.065  0.3823 -0.1627  0.5837
10919TIP3    H154172   3.890   1.846  10.970 -0.8960  1.1185  0.7873
10919TIP3    H254173   3.900   1.735  11.073  0.9464 -0.2521 -0.8094
10920TIP3   OH254174   5.468   4.222   4.769 -0.5755 -0.3473 -0.3850
10920TIP3    H154175   5.517   4.283   4.825 -0.2157 -0.1967 -0.8613
10920TIP3    H254176   5.493   4.246   4.680 -2.4388  0.5581 -0.7237
10921TIP3   OH254177   5.533   6.194   5.416 -0.0422 -0.1981 -0.8104
10921TIP3    H154178   5.622   6.188   5.452 -0.1694  2.4358  0.1124
10921TIP3    H254179   5.546   6.190   5.321  1.1184  0.5709 -0.7011
10922TIP3   OH254180   3.622   2.502   5.883  0.1275 -0.5803 -0.2574
10922TIP3    H154181   3.546   2.556   5.858 -0.0887 -0.4375  0.6752
10922TIP3    H254182   3.620   2.429   5.822 -0.4187 -0.2696 -0.6267
10923TIP3   OH254183   1.234   4.157  14.698  0.1315  0.7146  0.0190
10923TIP3    H154184   1.235   4.246  14.732 -0.6634  0.5049  0.6191
10923TIP3    H254185   1.302   4.156  14.630  0.6997  1.5533  0.5587
10924TIP3   OH254186   0.655   2.517  11.508 -0.3047  0.8680 -0.5561
10924TIP3    H154187   0.712   2.577  11.557  0.5062  0.4248 -0.9329
10924TIP3    H254188   0.628   2.568  11.431 -0.8523  1.2590 -0.1092
10925TIP3   OH254189   0.411   4.924   1.382  0.2208 -0.2859  0.0379
10925TIP3    H154190   0.497   4.882   1.379  0.5979  0.5030 -1.1776
10925TIP3    H254191   0.349   4.853   1.365  0.8328 -0.4457 -1.8477
10926TIP3   OH254192   4.666   5.500   5.842 -0.5644  0.4758  0.0002
10926TIP3    H154193   4.582   5.526   5.803 -0.0552  1.9211 -0.2017
10926TIP3    H254194   4.717   5.467   5.767  0.6891  3.9529 -0.8783
10927TIP3   OH254195   1.641   0.584  16.063 -0.0798 -0.2108  0.5938
10927TIP3    H154196   1.627   0.597  16.157 -1.1651  0.7923  0.3119
10927TIP3    H254197   1.576   0.519  16.038  0.6584 -0.9914  0.6421
10928TIP3   OH254198   2.661   1.550  17.054  0.4330 -0.1883 -0.2054
10928TIP3    H154199   2.598   1.478  17.060 -0.4252  0.5544 -0.1304
10928TIP3    H254200   2.641   1.606  17.129  0.8284  0.3379 -0.4879
10929TIP3   OH254201   4.920   2.872   2.004  0.0764  0.1836  0.2025
10929TIP3    H154202   5.000   2.903   1.961  0.2810 -0.6155 -0.0154
10929TIP3    H254203   4.940   2.876   2.097  0.4862 -0.2923  0.1423
10930TIP3   OH254204   4.912   5.993  16.337 -0.2259  0.3926 -0.5126
10930TIP3    H154205   4.957   6.010  16.420 -1.5700 -2.0639  0.8433
10930TIP3    H254206   4.831   6.043  16.344  0.3355  1.4017 -1.0553
10931TIP3   OH254207   6.090   2.515  12.053  0.6050 -0.0283  0.2674
10931TIP3    H154208   6.119   2.425  12.035 -2.4193 -1.3525  1.4944
10931TIP3    H254209   6.063   2.514  12.144 -1.7918  1.4363 -0.3471
10932TIP3   OH254210   0.314   2.583  15.383  0.1019 -1.1164  0.7052
10932TIP3    H154211   0.265   2.657  15.421  1.0553 -0.0996  0.0129
10932TIP3    H254212   0.328   2.524  15.457  1.7139  0.7066  1.9643
10933TIP3   OH254213   2.209   1.151   0.181 -1.1437 -0.2220  0.4715
10933TIP3    H154214   2.140   1.158   0.115 -0.2252  0.1377 -0.4589
10933TIP3    H254215   2.237   1.060   0.178  1.2082  0.4845 -2.0500
10934TIP3   OH254216   4.214   0.580   0.237 -0.3605 -0.0321  0.1677
10934TIP3    H154217   4.295   0.629   0.221  0.9428 -1.5997  1.6363
10934TIP3    H254218   4.172   0.626   0.310  0.7682 -0.9501  1.4258
10935TIP3   OH254219   4.480   5.034  13.186  0.1418 -0.3614 -0.3390
10935TIP3    H154220   4.571   5.049  13.210  0.4189  0.1199 -1.6697
10935TIP3    H254221   4.455   5.109  13.133 -1.0159 -0.5218 -0.0608
10936TIP3   OH254222   2.721   0.429   3.978 -0.1668  0.9551  0.2951
10936TIP3    H154223   2.647   0.468   3.931 -1.7443 -0.0344  1.8425
10936TIP3    H254224   2.709   0.335   3.967 -0.3970  0.7144  2.3821
10937TIP3   OH254225   6.695   5.046   3.169 -0.5695 -0.0039 -0.4410
10937TIP3    H154226   6.677   5.139   3.178 -2.0600 -0.2949 -0.2055
10937TIP3    H254227   6.790   5.039   3.178 -0.1588  1.7243 -2.7070
10938TIP3   OH254228   3.104   3.008  14.035 -0.7835 -1.2279  0.6981
10938TIP3    H154229   3.156   3.003  14.115  1.3697 -0.6633 -0.5780
10938TIP3    H254230   3.013   2.995  14.064 -0.2789  0.5910  3.4099
10939TIP3   OH254231   5.800   5.619   6.172 -0.2665 -0.1525  0.0528
10939TIP3    H154232   5.799   5.695   6.113 -0.4427 -0.2153 -0.0270
10939TIP3    H254233   5.713   5.620   6.213 -0.4102 -0.5320 -0.2362
10940TIP3   OH254234   3.259   5.709   3.335  0.2368 -0.2485 -0.6485
10940TIP3    H154235   3.179   5.733   3.382  1.5011  0.9459  1.0398
10940TIP3    H254236   3.257   5.763   3.256  0.4293  1.5736  0.5115
10941TIP3   OH254237   0.420   5.912  11.652 -0.1283  0.7995  0.5199
10941TIP3    H154238   0.471   5.963  11.715 -0.0018  0.6083  0.5720
10941TIP3    H254239   0.470   5.919  11.570  0.6073 -0.3585  0.8512
10942TIP3   OH254240   2.067   0.880   5.860  0.5762  0.3808 -0.6228
10942TIP3    H154241   2.088   0.973   5.863  2.1571  0.1439 -2.5346
10942TIP3    H254242   2.092   0.853   5.772 -1.1609 -1.5768 -0.5875
10943TIP3   OH254243   5.623   0.779  13.407  0.3370  0.8797 -0.3003
10943TIP3    H154244   5.663   0.808  13.325  1.4370  0.8733  0.2035
10943TIP3    H254245   5.698   0.770  13.468 -0.6033  2.4485  1.1788
10944TIP3   OH254246   0.476   6.587   0.943  0.0547 -0.4083  0.5076
10944TIP3    H154247   0.469   6.656   0.876  0.1275 -0.2686  0.6431
10944TIP3    H254248   0.570   6.568   0.947  0.1861  0.3826  1.3767
10945TIP3   OH254249   1.739   1.777   3.055  0.6096 -0.4760 -1.0765
10945TIP3    H154250   1.800   1.732   2.997 -0.1532 -3.1228  0.0053
10945TIP3    H254251   1.781   1.774   3.141 -0.1955 -0.6192 -0.6773
10946TIP3   OH254252   5.793   6.043   3.745 -0.3489  0.1451  0.5109
10946TIP3    H154253   5.790   6.017   3.837  0.9190  0.2502  0.5969
10946TIP3    H254254   5.821   5.965   3.698  1.6384  0.7838  0.5534
10947TIP3   OH254255   6.477   4.331  12.710 -0.4226  0.4924  0.1907
10947TIP3    H154256   6.537   4.298  12.777  0.6770  2.2066  0.1065
10947TIP3    H254257   6.492   4.273  12.635  2.4594  1.8251 -0.4134
10948TIP3   OH254258   1.853   3.419   3.656  0.0961  0.1650  0.3999
10948TIP3    H154259   1.892   3.423   3.568  0.4299  0.6653  0.5665
10948TIP3    H254260   1.808   3.503   3.666  1.2966  0.7401  1.2668
10949TIP3   OH254261   4.674   3.799   5.264  0.0412  0.0970  0.2013
10949TIP3    H154262   4.742   3.748   5.308 -0.4629 -0.4992  0.2923
10949TIP3    H254263   4.621   3.835   5.335 -0.5506 -0.5612  0.1024
10950TIP3   OH254264   3.471   6.283  16.575 -0.1838 -0.0886 -0.1044
10950TIP3    H154265   3.430   6.197  16.564  0.0731  0.0315 -2.6142
10950TIP3    H254266   3.531   6.272  16.649 -1.9701 -1.3178  1.2490
10951TIP3   OH254267   5.637   5.175   2.418  0.0631 -0.1756 -0.3581
10951TIP3    H154268   5.657   5.123   2.495  1.0569 -1.9945 -1.7631
10951TIP3    H254269   5.548   5.149   2.393 -0.3796  0.6469  0.3237
10952TIP3   OH254270   2.338   3.693   4.513 -0.2214  0.3334  0.2641
10952TIP3    H154271   2.332   3.771   4.569 -1.8492 -0.8018  1.7605
10952TIP3    H254272   2.251   3.686   4.473  0.1392 -0.3134 -0.4274
10953TIP3   OH254273   2.516   4.342   0.998 -0.0929  0.0700 -0.1973
10953TIP3    H154274   2.547   4.386   1.077  0.5884 -0.6815 -0.0227
10953TIP3    H254275   2.532   4.404   0.928 -0.8399  0.8044  0.2705
10954TIP3   OH254276   2.054   4.497  13.674  0.1752  0.1625  0.3690
10954TIP3    H154277   2.008   4.575  13.705 -0.9212  0.2023 -1.2154
10954TIP3    H254278   1.989   4.451  13.621  1.3158 -0.9608 -0.1074
10955TIP3   OH254279   3.287   2.368   3.520 -0.0751  0.2158  0.0271
10955TIP3    H154280   3.233   2.440   3.555  1.0400  1.6033 -0.9608
10955TIP3    H254281   3.377   2.395   3.540  0.3440 -1.3628  0.3939
10956TIP3   OH254282   5.175   2.367  14.676 -0.3861  1.1699  0.2969
10956TIP3    H154283   5.232   2.418  14.733  0.0875 -0.3159  1.1941
10956TIP3    H254284   5.088   2.375  14.714  0.1561 -0.9957  2.1516
10957TIP3   OH254285   1.191   2.262   4.554 -0.0665  0.2526 -0.0982
10957TIP3    H154286   1.179   2.216   4.637  0.2893 -1.4778 -0.9486
10957TIP3    H254287   1.157   2.350   4.570 -0.3127 -0.1394  1.7678
10958TIP3   OH254288   3.618   6.408  10.636  0.2042  0.0106  0.4081
10958TIP3    H154289   3.663   6.493  10.631 -1.5552  1.0023  0.6300
10958TIP3    H254290   3.677   6.348  10.591  1.4549  1.3582  0.1372
10959TIP3   OH254291   3.046   4.096  16.740 -0.5179  0.0455  0.2367
10959TIP3    H154292   3.066   4.003  16.747 -1.8094 -0.4334 -1.6627
10959TIP3    H254293   3.021   4.122  16.829 -2.0927 -1.9346  0.4359
10960TIP3   OH254294   5.657   1.603  14.387 -0.7419 -0.7596  0.1359
10960TIP3    H154295   5.616   1.538  14.444  0.6275 -0.9845  0.9311
10960TIP3    H254296   5.614   1.685  14.409  0.5462 -0.6042  2.4607
10961TIP3   OH254297   0.039   3.949  16.364  0.1359  0.1012  0.3800
10961TIP3    H154298   0.133   3.951  16.351  0.1727 -0.2322  0.5791
10961TIP3    H254299   0.025   3.877  16.426 -0.0566  1.3463  1.8670
10962TIP3   OH254300   2.659   0.549   0.928  0.0133 -0.3438  0.1469
10962TIP3    H154301   2.626   0.483   0.988 -1.7731  1.6017  1.4612
10962TIP3    H254302   2.618   0.528   0.844 -0.9607 -0.6245  0.6706
10963TIP3   OH254303   1.855   6.081   4.048  0.1522 -0.8810 -0.4559
10963TIP3    H154304   1.881   6.004   3.999 -1.5562 -0.7267 -1.7205
10963TIP3    H254305   1.767   6.061   4.079 -0.4746  0.6318 -1.1115
10964TIP3   OH254306   6.272   3.370  14.583 -0.2148 -0.6034 -0.3425
10964TIP3    H154307   6.226   3.434  14.637 -1.0514 -0.0172 -1.6864
10964TIP3    H254308   6.317   3.423  14.517  1.5781 -1.2360  0.3365
10965TIP3   OH254309   5.908   1.943  15.430  0.7824  0.7327  0.1125
10965TIP3    H154310   5.981   1.942  15.492  2.3437  1.4332 -1.6125
10965TIP3    H254311   5.923   1.866  15.375 -0.7857 -0.0882  0.7908
10966TIP3   OH254312   6.133   0.139   1.507  0.0486 -0.2675 -0.6018
10966TIP3    H154313   6.099   0.224   1.480 -0.3612 -0.2013  0.1027
10966TIP3    H254314   6.105   0.129   1.597  1.9311 -0.1916  0.0399
10967TIP3   OH254315   1.779   1.331   5.104 -0.2274 -0.1137  0.5472
10967TIP3    H154316   1.867   1.370   5.102  0.5456 -1.7915  0.0172
10967TIP3    H254317   1.795   1.238   5.122 -1.7034 -0.9000 -1.8036
10968TIP3   OH254318   6.049   1.949  16.969  0.3778 -0.2977 -0.3841
10968TIP3    H154319   5.969   1.990  17.003  0.8333  1.1620 -0.9816
10968TIP3    H254320   6.120   1.998  17.011  0.9517 -0.7740 -0.7923
10969TIP3   OH254321   1.572   2.705   2.631  0.0376  0.2257 -0.0235
10969TIP3    H154322   1.660   2.667   2.628 -1.0379 -2.4302 -1.2850
10969TIP3    H254323   1.557   2.737   2.542 -0.2132  0.8387  0.2369
10970TIP3   OH254324   0.134   5.579   4.414 -0.0739  0.2076 -0.0904
10970TIP3    H154325   0.143   5.569   4.319 -3.7477 -1.2437 -0.4576
10970TIP3    H254326   0.085   5.502   4.442 -0.3047  1.2665  2.7817
10971TIP3   OH254327   0.053   4.118  15.453 -0.7580  0.2157  0.4574
10971TIP3    H154328   0.076   4.198  15.501  1.1038  0.7894 -1.2877
10971TIP3    H254329   0.050   4.144  15.362 -2.4654 -1.2485  0.0395
10972TIP3   OH254330   0.097   2.374   0.313  0.1204 -0.5230 -0.7343
10972TIP3    H154331   0.048   2.323   0.249  1.3950 -0.0110 -2.1771
10972TIP3    H254332   0.157   2.311   0.353  2.1205 -0.1789 -2.9412
10973TIP3   OH254333   1.192   4.847   0.456  0.7278  0.0755 -0.5595
10973TIP3    H154334   1.099   4.864   0.472  0.7041 -0.6962  0.2100
10973TIP3    H254335   1.193   4.773   0.396  0.8500  0.2747 -0.8058
10974TIP3   OH254336   2.595   6.245   1.658  0.2638  0.4577  0.0299
10974TIP3    H154337   2.543   6.208   1.587  2.6816 -0.5660 -1.3220
10974TIP3    H254338   2.581   6.185   1.732 -0.2243  0.0197 -0.4081
10975TIP3   OH254339   1.742   0.430  11.279 -0.2486 -0.4107  0.2187
10975TIP3    H154340   1.715   0.515  11.315  0.4381  1.3990 -3.1068
10975TIP3    H254341   1.661   0.393  11.243 -0.0702  0.4740 -1.2074
10976TIP3   OH254342   4.854   3.411   5.338  0.7945  0.4572  0.2242
10976TIP3    H154343   4.777   3.461   5.312 -0.3830 -0.8000  1.1696
10976TIP3    H254344   4.923   3.477   5.349 -0.0383  1.5684 -0.9197
10977TIP3   OH254345   1.144   5.512   1.657 -0.3508 -0.4237 -0.1548
10977TIP3    H154346   1.074   5.574   1.637 -2.2765 -2.0141  1.2665
10977TIP3    H254347   1.124   5.480   1.745  3.0944  0.1869  1.0130
10978TIP3   OH254348   1.099   0.832   5.536  0.6133  0.1313 -0.4889
10978TIP3    H154349   1.122   0.766   5.471  3.0694  2.1354 -1.8385
10978TIP3    H254350   1.133   0.799   5.618  1.2666 -0.5576 -1.0268
10979TIP3   OH254351   3.486   5.494  11.981  0.2751  0.5550 -0.1870
10979TIP3    H154352   3.392   5.509  11.992  0.0979  1.8805 -2.7428
10979TIP3    H254353   3.492   5.410  11.937  0.0961  1.4374 -1.9687
10980TIP3   OH254354   2.804   6.141   1.165  0.0759  0.2678  0.0676
10980TIP3    H154355   2.764   6.099   1.240  0.2646  0.2245  0.1439
10980TIP3    H254356   2.781   6.085   1.091  0.6519 -0.1795  0.2241
10981TIP3   OH254357   3.255   3.265  12.155 -0.3022  0.1279  0.0395
10981TIP3    H154358   3.255   3.173  12.128  0.6829  0.1215  0.0245
10981TIP3    H254359   3.260   3.314  12.073  1.9762  0.1208  0.1048
10982TIP3   OH254360   5.761   2.070   3.963 -0.2249  0.3388 -0.5482
10982TIP3    H154361   5.851   2.086   3.935 -0.5179 -0.0322 -1.7217
10982TIP3    H254362   5.736   1.988   3.921 -0.7298 -0.1721  0.7000
10983TIP3   OH254363   5.233   2.529  16.572 -0.7027 -0.2007 -0.2960
10983TIP3    H154364   5.223   2.623  16.585  0.8327  0.1623 -1.4775
10983TIP3    H254365   5.294   2.502  16.641 -2.4883 -0.7290  1.1834
10984TIP3   OH254366   5.758   5.367  17.157 -0.0422 -0.4753  0.2606
10984TIP3    H154367   5.767   5.285  17.206  3.4230  0.1706  0.9901
10984TIP3    H254368   5.732   5.340  17.069 -0.3583 -2.2213  0.8554
10985TIP3   OH254369   3.956   2.149   3.142  0.3171  0.4241  0.1995
10985TIP3    H154370   4.024   2.084   3.128 -0.0105 -0.0709  0.8515
10985TIP3    H254371   3.993   2.230   3.107  0.3021 -0.3219 -1.6301
10986TIP3   OH254372   5.289   0.283  13.683 -0.8879 -0.1612 -0.0581
10986TIP3    H154373   5.364   0.237  13.646 -0.8561 -1.5269  1.5576
10986TIP3    H254374   5.254   0.336  13.611  1.0176 -0.2567 -1.1057
10987TIP3   OH254375   3.616   6.726  11.955  0.0400  0.1758 -0.7178
10987TIP3    H154376   3.590   6.647  11.906  1.0734 -0.2014 -0.6897
10987TIP3    H254377   3.644   6.693  12.040 -0.2268  0.6623 -0.4405
10988TIP3   OH254378   2.459   4.626  16.379  0.2113 -0.2522  0.1810
10988TIP3    H154379   2.532   4.656  16.325  0.2507 -0.3587  0.1752
10988TIP3    H254380   2.403   4.576  16.320 -0.8362  1.3829 -0.2617
10989TIP3   OH254381   1.782   3.964   0.372 -0.2686 -0.6167 -0.4461
10989TIP3    H154382   1.706   3.906   0.365 -2.0529  1.5288 -0.3932
10989TIP3    H254383   1.746   4.043   0.413  2.3079  0.0355  0.7084
10990TIP3   OH254384   0.022   6.248   0.502 -0.5180 -0.6093  0.0291
10990TIP3    H154385   0.069   6.290   0.574 -1.0023  1.8916 -1.0173
10990TIP3    H254386   0.090   6.213   0.446 -0.0563 -0.5822  0.5653
10991TIP3   OH254387   6.299   2.594   5.043  0.1214 -0.0837  0.2377
10991TIP3    H154388   6.378   2.593   5.097  0.2584  0.8888  0.0688
10991TIP3    H254389   6.243   2.525   5.081  2.1015 -2.7471 -1.3037
10992TIP3   OH254390   1.575   1.902   2.849 -0.2826  0.7475 -0.2489
10992TIP3    H154391   1.583   1.855   2.766 -0.7608 -1.0643  0.6711
10992TIP3    H254392   1.633   1.854   2.908 -0.5574  1.5222  0.6579
10993TIP3   OH254393   1.623   3.266   1.603  0.4296  0.1184  0.0277
10993TIP3    H154394   1.581   3.197   1.654  0.8608 -0.6207 -0.5759
10993TIP3    H254395   1.551   3.313   1.561  0.1600 -1.2809 -1.1916
10994TIP3   OH254396   2.354   6.375   1.914 -0.2611  0.6721  0.1726
10994TIP3    H154397   2.267   6.336   1.924 -0.8109  2.1515  1.6177
10994TIP3    H254398   2.414   6.301   1.924 -1.3049 -0.0677  1.4073
10995TIP3   OH254399   1.394   1.201   4.446 -0.1815 -0.0326  0.4108
10995TIP3    H154400   1.445   1.167   4.373  1.2226  0.6580  1.0281
10995TIP3    H254401   1.318   1.241   4.405 -0.2401 -1.0583 -0.5440
10996TIP3   OH254402   5.944   6.742  13.275  0.1752  0.2759 -0.5725
10996TIP3    H154403   5.932   6.831  13.242  1.4681  0.7387  0.1247
10996TIP3    H254404   5.855   6.712  13.295 -0.2677  1.5147 -0.5687
10997TIP3   OH254405   6.398   4.825  12.317  0.2057 -0.7431  0.3764
10997TIP3    H154406   6.444   4.883  12.378  0.7157  0.7658 -1.3521
10997TIP3    H254407   6.307   4.827  12.346  0.4132  0.0633  1.0142
10998TIP3   OH254408   5.139   5.943  11.277  1.3809 -0.4120 -0.4697
10998TIP3    H154409   5.160   6.023  11.229  0.7432 -0.8783 -1.5501
10998TIP3    H254410   5.045   5.947  11.291  1.1656 -1.4646 -1.4756
10999TIP3   OH254411   1.911   4.964  15.410  0.4081  0.4504 -0.8875
10999TIP3    H154412   1.895   4.873  15.433  3.1254  0.1120  0.1365
10999TIP3    H254413   1.953   4.960  15.324  0.0571  0.7690 -1.0728
11000TIP3   OH254414   6.582   4.015  13.151 -0.2093  0.2649  0.3482
11000TIP3    H154415   6.574   3.930  13.109  0.2282  0.7752 -0.8074
11000TIP3    H254416   6.502   4.023  13.204 -0.0950 -0.9840  0.7486
11001TIP3   OH254417   5.966   5.689   5.593  0.8188 -0.1296  0.5671
11001TIP3    H154418   6.040   5.706   5.534  1.6179  0.5084  1.7231
11001TIP3    H254419   5.984   5.742   5.670 -0.0418 -1.1932  1.5301
11002TIP3   OH254420   2.818   3.404   3.204  0.0227 -0.1518 -0.0871
11002TIP3    H154421   2.814   3.356   3.287 -0.1614 -0.5417 -0.3200
11002TIP3    H254422   2.783   3.491   3.226  0.7637  0.0264  0.4338
11003TIP3   OH254423   2.781   1.465  10.799 -0.4282 -0.5692  0.3017
11003TIP3    H154424   2.841   1.428  10.735 -0.9122  0.0338 -0.5311
11003TIP3    H254425   2.698   1.473  10.753 -0.3830  1.4130  0.4449
11004TIP3   OH254426   6.401   5.981   4.727 -0.2634 -0.1989  0.2351
11004TIP3    H154427   6.475   6.009   4.674  0.1314 -2.1633 -0.3454
11004TIP3    H254428   6.333   6.047   4.711  1.0646  1.1785  0.1343
11005TIP3   OH254429   1.982   0.659   2.393  0.5269  0.5620 -0.1041
11005TIP3    H154430   1.971   0.587   2.455 -1.3124  0.9823  0.1163
11005TIP3    H254431   1.994   0.736   2.448  1.5604  0.5776 -0.3300
11006TIP3   OH254432   1.207   0.641  12.925  0.3829  0.4822 -0.3756
11006TIP3    H154433   1.271   0.664  12.992 -0.4135 -0.0944  0.6035
11006TIP3    H254434   1.196   0.547  12.933  0.0398  0.4497 -1.1177
11007TIP3   OH254435   6.043   6.468   1.641  0.0767  0.4518 -0.2148
11007TIP3    H154436   6.057   6.406   1.713  0.8088  0.4520 -0.3501
11007TIP3    H254437   6.012   6.548   1.684  2.9362  1.3250  0.4381
11008TIP3   OH254438   1.276   3.290   2.138  0.2527  0.0282  0.4674
11008TIP3    H154439   1.326   3.227   2.087  0.9654 -0.9483  2.2615
11008TIP3    H254440   1.187   3.255   2.137 -0.0670  0.7835 -1.2063
11009TIP3   OH254441   0.497   4.238   3.211  0.4608  0.6726 -0.0497
11009TIP3    H154442   0.436   4.181   3.258 -0.6716  2.3692  0.6721
11009TIP3    H254443   0.565   4.259   3.275  1.7038 -0.9634 -0.7583
11010TIP3   OH254444   3.033   4.469  15.960  0.0707  0.0976 -0.9552
11010TIP3    H154445   3.084   4.395  15.991  0.3957  0.7889  0.2235
11010TIP3    H254446   2.989   4.437  15.881  0.0410 -1.3991 -0.3623
11011TIP3   OH254447   1.062   1.546   4.859  0.3035 -0.4670  0.2520
11011TIP3    H154448   1.047   1.452   4.859  3.7610 -1.1876  1.3924
11011TIP3    H254449   1.073   1.568   4.952  2.5543  0.3637 -0.1396
11012TIP3   OH254450   1.202   1.864  12.398  0.2387 -0.0274 -0.0555
11012TIP3    H154451   1.166   1.946  12.432 -1.6562 -0.1240 -1.6403
11012TIP3    H254452   1.270   1.890  12.337  2.1401  0.1985  2.0419
11013TIP3   OH254453   2.911   3.519  12.676  0.1766 -0.7364 -0.2363
11013TIP3    H154454   2.819   3.541  12.688 -0.2958 -2.1299 -1.0153
11013TIP3    H254455   2.913   3.468  12.595  1.5565 -1.1797  0.0466
11014TIP3   OH254456   4.807   1.255  17.106  0.1998  0.3583  0.2141
11014TIP3    H154457   4.753   1.324  17.144 -1.0249 -0.4500  0.0278
11014TIP3    H254458   4.792   1.179  17.163  1.0925  0.0842  0.1040
11015TIP3   OH254459   0.164   6.269   2.943  0.0647 -0.0581 -0.0257
11015TIP3    H154460   0.181   6.208   3.015 -0.0479  0.4770  0.4647
11015TIP3    H254461   0.152   6.354   2.986 -0.4167  0.1940 -0.6442
11016TIP3   OH254462   0.213   0.906  11.503  0.7471 -0.8432  0.2660
11016TIP3    H154463   0.232   0.916  11.596  0.8940  2.1542  0.0029
11016TIP3    H254464   0.141   0.843  11.499 -2.0028  1.8573  2.7647
11017TIP3   OH254465   1.729   6.393  14.827 -0.0034  0.2112  0.2308
11017TIP3    H154466   1.725   6.426  14.917  2.0185 -3.2590  1.7981
11017TIP3    H254467   1.643   6.356  14.811  0.2785 -1.2136  1.7395
11018TIP3   OH254468   5.296   2.330   2.531  0.2652 -0.3468  0.1599
11018TIP3    H154469   5.289   2.415   2.575  1.3238 -0.2486  0.1590
11018TIP3    H254470   5.386   2.327   2.499  0.1438 -1.3400 -0.1138
11019TIP3   OH254471   4.115   4.479  11.403  0.2481  0.5700  0.0214
11019TIP3    H154472   4.177   4.547  11.430  0.7265  0.4499 -0.7339
11019TIP3    H254473   4.168   4.418  11.351 -0.2153 -0.2868  0.5345
11020TIP3   OH254474   1.140   4.128  12.694  0.5917 -0.4543  0.1220
11020TIP3    H154475   1.162   4.107  12.785 -0.1009  0.4839  0.5190
11020TIP3    H254476   1.056   4.084  12.679 -0.7410  1.6762  0.8793
11021TIP3   OH254477   1.665   5.465   3.590 -1.2946  0.3801  0.1289
11021TIP3    H154478   1.653   5.396   3.525 -0.9290 -0.3783  0.8382
11021TIP3    H254479   1.755   5.496   3.576 -0.1497 -1.7841  2.0802
11022TIP3   OH254480   1.179   3.161  12.489  0.1394  0.1965 -0.1689
11022TIP3    H154481   1.105   3.121  12.535  2.2054 -1.1356  2.3307
11022TIP3    H254482   1.202   3.237  12.543  2.0639 -0.8749  0.6576
11023TIP3   OH254483   3.187   3.629  14.646  0.0699  1.0248  0.0294
11023TIP3    H154484   3.097   3.616  14.677  0.1238  0.9065  0.1364
11023TIP3    H254485   3.177   3.673  14.561 -0.2056 -1.4278 -1.3019
11024TIP3   OH254486   5.644   6.342  16.558  0.3863  0.2191 -0.0953
11024TIP3    H154487   5.627   6.388  16.641  0.4650  0.3672 -0.1600
11024TIP3    H254488   5.733   6.371  16.534  1.4334 -1.8078  1.0783
11025TIP3   OH254489   3.735   3.460   1.640  0.4184 -0.3102  0.0365
11025TIP3    H154490   3.698   3.479   1.726 -0.1068 -0.2760 -0.1952
11025TIP3    H254491   3.679   3.508   1.579  0.8936 -0.1947 -0.3133
11026TIP3   OH254492   5.713   3.839   0.265 -0.2273  0.5130 -0.1731
11026TIP3    H154493   5.677   3.752   0.250  0.3370  0.1940  0.2879
11026TIP3    H254494   5.719   3.847   0.360  0.9480  0.5375 -0.2310
11027TIP3   OH254495   1.391   2.440   0.598 -0.2208 -0.4698 -0.6332
11027TIP3    H154496   1.401   2.369   0.535  0.7797  0.4735 -1.6013
11027TIP3    H254497   1.455   2.506   0.569 -0.4562  0.4201  0.7806
11028TIP3   OH254498   1.044   2.588  11.465  0.0369 -0.7856  0.0720
11028TIP3    H154499   1.072   2.655  11.527  0.8875  0.1200 -1.2393
11028TIP3    H254500   1.107   2.593  11.394 -1.9442 -0.4807 -1.7649
11029TIP3   OH254501   2.110   5.209  13.779  0.1055  0.2914  0.1546
11029TIP3    H154502   2.081   5.118  13.779 -1.0671  0.5243 -3.1244
11029TIP3    H254503   2.036   5.258  13.815 -1.0518  0.2440 -1.9764
11030TIP3   OH254504   2.510   2.199   2.873  0.6684 -0.2163  0.3894
11030TIP3    H154505   2.544   2.111   2.855  1.3262  0.3813 -1.4496
11030TIP3    H254506   2.502   2.202   2.969  0.1243 -2.4533  0.4809
11031TIP3   OH254507   6.528   1.397   2.076  0.8195  0.1622 -0.0880
11031TIP3    H154508   6.581   1.414   1.998  2.7950  1.4440  1.4117
11031TIP3    H254509   6.444   1.439   2.058  1.8338  2.0079 -0.8971
11032TIP3   OH254510   1.596   5.695  14.540 -0.3198 -0.1367 -0.2796
11032TIP3    H154511   1.675   5.721  14.589 -1.6606 -0.4054  2.1674
11032TIP3    H254512   1.571   5.774  14.492  0.7776  0.3113 -0.1487
11033TIP3   OH254513   5.931   0.215  17.185 -0.4609 -0.1508 -0.2001
11033TIP3    H154514   5.910   0.156  17.257 -0.1294 -2.1429 -1.6614
11033TIP3    H254515   5.851   0.266  17.172 -0.7970 -0.3256  1.0158
11034TIP3   OH254516   5.256   4.183  12.287 -0.4254  0.3861 -1.0680
11034TIP3    H154517   5.274   4.202  12.379 -2.8244  0.7464 -0.6085
11034TIP3    H254518   5.286   4.093  12.274 -0.2806  0.2478  0.1252
11035TIP3   OH254519   6.765   2.961   2.071 -0.2113  0.1385 -0.0681
11035TIP3    H154520   6.842   3.015   2.056  0.3835 -0.6616  0.0926
11035TIP3    H254521   6.698   3.023   2.100  0.4342  0.8027  0.0214
11036TIP3   OH254522   0.868   2.782  14.883 -0.2924  0.4111  0.0823
11036TIP3    H154523   0.859   2.718  14.953 -0.3630  2.4299  2.0228
11036TIP3    H254524   0.960   2.807  14.884  0.0115 -0.5247 -1.5066
11037TIP3   OH254525   2.204   4.342  15.845  0.5540  0.2858  0.0480
11037TIP3    H154526   2.205   4.270  15.782 -3.8129 -0.1023  0.1305
11037TIP3    H254527   2.157   4.412  15.800 -1.7841  0.3741  2.3648
11038TIP3   OH254528   0.162   6.603   3.458  0.3014 -0.2066 -0.2728
11038TIP3    H154529   0.203   6.610   3.372 -0.0699  2.2698 -0.3186
11038TIP3    H254530   0.210   6.665   3.513 -1.7169  0.9450  0.3095
11039TIP3   OH254531   0.554   1.991  11.903  0.7007  0.3988 -0.2494
11039TIP3    H154532   0.542   1.989  11.998  0.8624 -0.8628 -0.2291
11039TIP3    H254533   0.636   2.037  11.889  2.0436 -1.6244  0.4317
11040TIP3   OH254534   2.789   3.523  10.578 -0.8275  0.1491 -0.0307
11040TIP3    H154535   2.757   3.458  10.517 -1.5539  0.7480 -0.2986
11040TIP3    H254536   2.769   3.607  10.537  0.4772  0.5555  0.1044
11041TIP3   OH254537   1.790   2.834  11.398  0.0215 -0.1707  0.2363
11041TIP3    H154538   1.752   2.915  11.431 -0.0111  0.4654 -1.3004
11041TIP3    H254539   1.881   2.856  11.378  0.2681 -0.7663  0.6417
11042TIP3   OH254540   1.484   4.012   1.124 -0.2397 -0.2142 -0.2609
11042TIP3    H154541   1.472   4.079   1.191 -0.1238  0.2467 -0.6920
11042TIP3    H254542   1.520   3.936   1.171  0.5404  0.3532  0.0825
11043TIP3   OH254543   2.908   5.977   5.598 -0.7786  0.0467 -0.0788
11043TIP3    H154544   2.992   5.944   5.564 -0.2357  0.5238  0.7624
11043TIP3    H254545   2.860   6.005   5.520 -1.3006 -2.7309 -0.8506
11044TIP3   OH254546   2.101   4.701   3.000 -0.4998 -0.1492  0.2733
11044TIP3    H154547   2.138   4.630   2.947 -1.1278 -1.0969  1.0676
11044TIP3    H254548   2.050   4.753   2.939 -0.8727 -0.9885 -0.1436
11045TIP3   OH254549   0.221   5.363   2.016  0.1662  0.0085 -0.4355
11045TIP3    H154550   0.275   5.316   1.953  0.9303 -0.5093  0.5872
11045TIP3    H254551   0.156   5.408   1.962  1.1173  0.0012 -1.6305
11046TIP3   OH254552   4.533   4.477  14.182 -0.3786 -0.1269 -0.7165
11046TIP3    H154553   4.505   4.550  14.237  0.2782 -1.4174  1.4656
11046TIP3    H254554   4.541   4.403  14.243  1.1455 -1.4667 -2.4384
11047TIP3   OH254555   4.073   1.062  17.185 -0.2056  0.3824 -0.3927
11047TIP3    H154556   4.058   1.044  17.092  1.6758  0.2542 -0.7132
11047TIP3    H254557   3.996   1.027  17.229 -0.2388 -1.3682 -1.7291
11048TIP3   OH254558   4.526   3.660  16.100 -0.0549 -0.1807  0.3970
11048TIP3    H154559   4.456   3.724  16.111 -0.2490  0.1018 -2.0886
11048TIP3    H254560   4.606   3.708  16.117 -0.0404  1.3863 -3.2105
11049TIP3   OH254561   1.907   3.626  14.794  0.2813 -0.4927 -0.6272
11049TIP3    H154562   1.971   3.662  14.732  0.5935 -2.1703 -1.3097
11049TIP3    H254563   1.828   3.613  14.743 -0.8605  1.9801  0.3094
11050TIP3   OH254564   2.274   2.767  15.543  0.1405 -0.3719 -0.1121
11050TIP3    H154565   2.207   2.699  15.546  0.3074 -0.6393 -1.6568
11050TIP3    H254566   2.357   2.720  15.547  0.2541 -0.1193  0.6641
11051TIP3   OH254567   4.271   5.828  14.574 -0.0826 -0.3420  0.1791
11051TIP3    H154568   4.224   5.898  14.619 -0.5590  0.8705 -2.1024
11051TIP3    H254569   4.205   5.759  14.562  0.1010 -0.7716  1.4226
11052TIP3   OH254570   6.726   0.112  12.969  0.1516 -0.0323 -0.2901
11052TIP3    H154571   6.681   0.192  12.997 -0.7917 -0.3999 -0.7142
11052TIP3    H254572   6.704   0.047  13.036  1.9633  0.3456  0.7653
11053TIP3   OH254573   0.352   5.246  15.886 -0.1621 -0.0184  0.4134
11053TIP3    H154574   0.296   5.323  15.880  0.3511  0.2578 -1.4017
11053TIP3    H254575   0.362   5.217  15.795  0.6939 -1.4715  0.9400
11054TIP3   OH254576   1.326   0.182  15.222 -0.1239 -0.1712 -0.4788
11054TIP3    H154577   1.333   0.087  15.208 -0.9196 -0.3882  0.4632
11054TIP3    H254578   1.233   0.201  15.208  0.2573  0.7245 -2.0061
11055TIP3   OH254579   4.991   3.664  15.970 -0.3003  0.0135  0.0339
11055TIP3    H154580   5.038   3.581  15.977 -1.7900 -0.8586  0.1324
11055TIP3    H254581   5.014   3.697  15.883  0.5773 -0.3301  0.1271
11056TIP3   OH254582   1.493   0.106  13.002 -0.0930 -0.3045 -0.2633
11056TIP3    H154583   1.499   0.103  12.906  0.3349 -1.6041 -0.2067
11056TIP3    H254584   1.584   0.101  13.032 -0.1978  0.4707  0.2154
11057TIP3   OH254585   1.436   1.689   2.438 -0.1176  0.2790  0.2679
11057TIP3    H154586   1.448   1.726   2.350  1.3577  0.8776  0.6776
11057TIP3    H254587   1.398   1.603   2.423 -0.7065  0.7257 -0.9052
11058TIP3   OH254588   6.717   5.387  14.331 -0.4413 -0.8612 -0.0404
11058TIP3    H154589   6.813   5.385  14.338 -0.3857 -1.0936 -0.7732
11058TIP3    H254590   6.700   5.388  14.237 -1.1598 -0.5226  0.0850
11059TIP3   OH254591   1.528   2.223   1.959 -0.3099 -0.6760 -0.3448
11059TIP3    H154592   1.570   2.219   2.045  0.9644 -1.1620 -0.9516
11059TIP3    H254593   1.551   2.309   1.925 -0.9408 -0.4244 -0.1497
11060TIP3   OH254594   2.986   1.695   1.438  0.5764  0.6969  0.4043
11060TIP3    H154595   2.926   1.712   1.366  0.5238  2.1871  0.7648
11060TIP3    H254596   2.935   1.644   1.501  0.2698  0.3791 -0.1023
11061TIP3   OH254597   2.465   5.162   4.237  0.1413 -0.8616  0.0495
11061TIP3    H154598   2.431   5.160   4.327 -1.4643  0.7100 -0.4596
11061TIP3    H254599   2.397   5.206   4.187  1.4670 -0.7620 -1.7652
11062TIP3   OH254600   2.527   4.150  14.266  0.5251 -0.3593  0.4795
11062TIP3    H154601   2.600   4.132  14.325  0.9080 -0.6855 -0.0831
11062TIP3    H254602   2.524   4.246  14.259  1.3135 -0.3604  0.0070
11063TIP3   OH254603   0.187   0.495   6.108  0.0686 -0.2343  0.1106
11063TIP3    H154604   0.194   0.586   6.137 -0.9349 -0.0641 -0.1474
11063TIP3    H254605   0.106   0.463   6.148  0.3291 -0.9695  0.0690
11064TIP3   OH254606   0.137   5.915  11.572  0.4753 -0.2372  0.0249
11064TIP3    H154607   0.132   5.962  11.489 -0.9894 -0.9796 -0.3416
11064TIP3    H254608   0.225   5.933  11.604  1.2114 -0.2306 -1.8565
11065TIP3   OH254609   5.048   6.036  13.823 -0.1074 -0.5390  0.7384
11065TIP3    H154610   5.041   6.049  13.728 -1.1232  0.8525  0.9738
11065TIP3    H254611   4.985   5.967  13.842 -0.0520 -0.6766  0.4347
11066TIP3   OH254612   6.018   4.627  14.899  0.0502 -0.1443 -0.5063
11066TIP3    H154613   5.923   4.637  14.913 -0.0331 -0.2689 -0.9459
11066TIP3    H254614   6.058   4.675  14.971 -0.3493 -0.5698  0.0087
11067TIP3   OH254615   6.122   2.159   6.050  0.1050  0.2998 -0.6761
11067TIP3    H154616   6.210   2.190   6.068 -0.0140 -0.1037  0.6896
11067TIP3    H254617   6.079   2.233   6.007  0.3352  1.4394  0.9740
11068TIP3   OH254618   4.490   2.563   2.574  0.8112 -0.0253  0.3941
11068TIP3    H154619   4.412   2.615   2.591  1.0938  0.2982  0.7247
11068TIP3    H254620   4.490   2.549   2.479  1.0548  1.0958  0.2234
11069TIP3   OH254621   3.109   6.417  16.031 -0.7501 -0.2399 -0.3209
11069TIP3    H154622   3.120   6.509  16.004 -2.7408  0.0495 -0.3586
11069TIP3    H254623   3.014   6.409  16.046 -0.6267 -2.3376 -0.4572
11070TIP3   OH254624   5.695   0.899  11.653 -0.1469  0.1507  0.0726
11070TIP3    H154625   5.790   0.899  11.666 -0.1454 -1.8759  0.4693
11070TIP3    H254626   5.683   0.861  11.566 -0.5743  1.5522 -0.4962
11071TIP3   OH254627   0.964   3.780  11.369 -0.0376 -0.5574 -0.5690
11071TIP3    H154628   1.026   3.750  11.435  2.1089  2.1193 -1.1774
11071TIP3    H254629   0.989   3.733  11.290 -0.6167 -1.4781 -0.2295
11072TIP3   OH254630   4.946   5.666   3.334 -0.0653  0.4544 -0.3315
11072TIP3    H154631   5.001   5.744   3.333  1.1080 -0.3036  1.0708
11072TIP3    H254632   5.007   5.593   3.328 -1.1824 -0.3912 -2.2626
11073TIP3   OH254633   5.915   1.908   0.436  0.0414  0.2781 -0.3057
11073TIP3    H154634   5.854   1.938   0.504  1.2860  1.8588  0.1504
11073TIP3    H254635   5.994   1.883   0.483  0.1454 -0.7583 -0.9901
11074TIP3   OH254636   1.805   2.366   0.185  0.1764  0.0144  0.4301
11074TIP3    H154637   1.858   2.440   0.215 -1.0874  1.2834 -0.3159
11074TIP3    H254638   1.869   2.303   0.151  1.2362  1.6131 -0.7098
11075TIP3   OH254639   3.598   5.916   0.894  0.2412 -0.1374 -0.1516
11075TIP3    H154640   3.555   5.966   0.825  0.0317  2.8075  1.8969
11075TIP3    H254641   3.527   5.879   0.946  0.3643 -0.9550 -0.5512
11076TIP3   OH254642   4.842   0.764  11.640 -0.1668 -0.3556 -0.5506
11076TIP3    H154643   4.870   0.802  11.556  0.8342  0.1087 -0.0257
11076TIP3    H254644   4.893   0.684  11.648  0.2201 -0.0681 -0.0920
11077TIP3   OH254645   5.344   2.201  10.697  0.2151  0.6945 -0.0864
11077TIP3    H154646   5.440   2.208  10.694  0.2429  0.7909  0.6232
11077TIP3    H254647   5.324   2.117  10.657  0.5955  0.7152 -0.3175
11078TIP3   OH254648   2.684   1.413  11.372 -0.0887 -0.4676 -0.7906
11078TIP3    H154649   2.666   1.442  11.282  0.4499 -0.0632 -0.7756
11078TIP3    H254650   2.776   1.386  11.371 -0.1304 -0.6390 -0.4034
11079TIP3   OH254651   3.214   5.127  15.487 -0.2707 -0.1179  0.1047
11079TIP3    H154652   3.233   5.197  15.425 -1.5181 -0.7632 -1.0706
11079TIP3    H254653   3.269   5.146  15.563  1.3656  0.6822 -1.1967
11080TIP3   OH254654   3.700   1.374  14.744 -0.0890 -0.2294 -0.1089
11080TIP3    H154655   3.636   1.409  14.681 -0.0131 -0.6006 -0.3972
11080TIP3    H254656   3.770   1.439  14.745 -0.1264 -0.1842 -0.3509
11081TIP3   OH254657   1.464   0.856   5.343 -0.2793 -0.3007  0.2175
11081TIP3    H154658   1.505   0.933   5.381  0.4001 -0.7490  0.4129
11081TIP3    H254659   1.431   0.806   5.418 -0.0706 -0.5515  0.1474
11082TIP3   OH254660   1.342   6.705   2.958  0.1759 -0.5804  0.3224
11082TIP3    H154661   1.292   6.751   2.892 -0.3216 -0.1835  0.9586
11082TIP3    H254662   1.316   6.746   3.041 -0.9442 -2.5729  1.0146
11083TIP3   OH254663   6.671   4.237   2.173 -0.0030 -0.4182  0.3566
11083TIP3    H154664   6.698   4.300   2.107  0.2729 -0.1320  0.7365
11083TIP3    H254665   6.701   4.153   2.140 -0.0292 -0.2996  0.0327
11084TIP3   OH254666   1.690   6.096   1.509 -0.1077 -0.3471 -0.2447
11084TIP3    H154667   1.692   6.109   1.414  0.5023  0.9650 -0.0598
11084TIP3    H254668   1.717   6.180   1.546  0.2429 -1.0199  1.0862
11085TIP3   OH254669   2.926   3.109  12.291  0.1900  0.2508 -0.1546
11085TIP3    H154670   2.998   3.046  12.280  0.6091  0.6364  0.2952
11085TIP3    H254671   2.883   3.082  12.372 -1.7856 -1.5178 -1.6886
11086TIP3   OH254672   6.082   2.271   2.322 -0.3348 -0.2528  0.8989
11086TIP3    H154673   5.995   2.292   2.289 -0.0969  0.7618  0.8967
11086TIP3    H254674   6.122   2.220   2.251 -0.1510  1.1545 -0.0415
11087TIP3   OH254675   1.449   2.729   2.889  0.4010 -0.0625 -0.3731
11087TIP3    H154676   1.513   2.795   2.915  1.2375 -1.7491  2.3176
11087TIP3    H254677   1.477   2.700   2.803  1.3957  1.4206 -0.5716
11088TIP3   OH254678   0.264   3.309  17.107 -0.0929 -0.3987 -0.0417
11088TIP3    H154679   0.248   3.215  17.116 -1.1733 -0.2433 -0.1203
11088TIP3    H254680   0.231   3.331  17.019 -1.0028  0.2543  0.4402
11089TIP3   OH254681   4.846   2.384  12.291  0.6590 -0.2098  0.4119
11089TIP3    H154682   4.818   2.396  12.201  2.9565  0.5978 -0.2566
11089TIP3    H254683   4.807   2.300  12.317  1.2747 -1.2847 -1.8750
11090TIP3   OH254684   5.144   6.154  15.195 -0.0380 -0.9319 -0.2138
11090TIP3    H154685   5.223   6.184  15.241 -0.1899 -1.4539  0.4005
11090TIP3    H254686   5.078   6.144  15.264 -0.5784 -0.7076 -0.6939
11091TIP3   OH254687   4.375   4.742   0.939 -0.3889 -0.7372 -0.6295
11091TIP3    H154688   4.435   4.811   0.911 -0.1107 -1.3824 -1.6827
11091TIP3    H254689   4.303   4.788   0.983  1.0813  0.0406  1.1176
11092TIP3   OH254690   3.777   4.279  16.036 -0.3015 -0.0277  0.4090
11092TIP3    H154691   3.828   4.298  16.115 -2.2328 -1.6628  2.1569
11092TIP3    H254692   3.827   4.211  15.991  0.9510  1.1032  0.0005
11093TIP3   OH254693   4.601   5.167  14.279 -0.1631  0.4888 -0.5925
11093TIP3    H154694   4.538   5.096  14.295  0.9632 -0.5272 -0.5259
11093TIP3    H254695   4.587   5.191  14.188 -0.6762  0.3103 -0.5685
11094TIP3   OH254696   4.837   1.272  16.356  0.1380 -0.1599  0.0838
11094TIP3    H154697   4.758   1.218  16.357 -0.4030  0.6284  0.7302
11094TIP3    H254698   4.835   1.320  16.439  0.1897  1.4419 -0.8103
11095TIP3   OH254699   0.189   3.446   0.843 -0.5898 -0.0817 -0.7978
11095TIP3    H154700   0.117   3.392   0.811 -0.1606 -0.3566 -1.3153
11095TIP3    H254701   0.257   3.437   0.777 -0.1075  0.2420 -0.3542
11096TIP3   OH254702   3.695   0.029   6.503  0.1005 -0.3263  0.7185
11096TIP3    H154703   3.643   0.090   6.450 -0.5045 -1.6963 -0.3300
11096TIP3    H254704   3.756  -0.011   6.441  0.9418 -0.3199  1.5178
11097TIP3   OH254705   6.709   1.922   1.250  0.1044 -0.0550 -0.8880
11097TIP3    H154706   6.722   2.008   1.290 -0.0159  0.1939 -1.3851
11097TIP3    H254707   6.759   1.863   1.306 -0.2938  0.2448 -0.1946
11098TIP3   OH254708   2.959   1.364   1.130 -0.0022 -0.0195  0.6174
11098TIP3    H154709   3.030   1.363   1.195 -0.1148  1.5798  0.8217
11098TIP3    H254710   2.884   1.400   1.179  0.0433  1.6889 -0.4807
11099TIP3   OH254711   4.117   5.739  15.615 -0.0737  0.1932 -0.1719
11099TIP3    H154712   4.112   5.794  15.537 -0.5702 -1.9193 -1.7431
11099TIP3    H254713   4.211   5.730  15.632  0.1553 -0.8004 -1.7291
11100TIP3   OH254714   2.537   5.791   0.648  0.5939 -0.2640 -0.5702
11100TIP3    H154715   2.633   5.788   0.651  0.6551  0.8897 -0.9721
11100TIP3    H254716   2.517   5.875   0.608 -0.5781 -1.2484 -2.1796
11101TIP3   OH254717   6.128   4.803   5.933 -0.3043  0.1355  0.2606
11101TIP3    H154718   6.159   4.849   6.011  4.2216 -2.9776  0.6589
11101TIP3    H254719   6.182   4.837   5.862  0.6372 -1.9759 -0.0878
11102TIP3   OH254720   4.414   1.901   3.309  0.6033 -0.1532  0.1624
11102TIP3    H154721   4.403   1.863   3.222 -2.7020  1.7673 -0.4140
11102TIP3    H254722   4.382   1.834   3.369 -0.3881 -0.2247 -0.4247
11103TIP3   OH254723   2.757   5.459   3.317  0.3196 -0.2696 -0.3455
11103TIP3    H154724   2.757   5.541   3.367  0.6733  0.0869 -0.9237
11103TIP3    H254725   2.847   5.429   3.319 -0.0066 -1.2479  0.8124
11104TIP3   OH254726   4.609   4.024   3.819  0.0791  0.5857  0.3423
11104TIP3    H154727   4.662   4.047   3.895  1.5844  1.9404 -1.0227
11104TIP3    H254728   4.572   4.107   3.790  1.8461  0.6602 -2.0130
11105TIP3   OH254729   2.156   6.655  16.286 -0.2207 -0.0303 -0.3078
11105TIP3    H154730   2.149   6.745  16.254 -0.4389 -0.4116 -1.3636
11105TIP3    H254731   2.082   6.609  16.245 -1.4092 -0.2338  1.8929
11106TIP3   OH254732   1.358   0.483   5.860 -0.0280  0.3834  0.2126
11106TIP3    H154733   1.306   0.448   5.933  0.6058 -0.8396  0.1144
11106TIP3    H254734   1.299   0.480   5.785 -0.5645  1.2843  0.5918
11107TIP3   OH254735   2.695   1.957   0.436 -0.2769 -0.2426  1.2117
11107TIP3    H154736   2.680   2.045   0.471 -0.2874 -0.3168  1.3941
11107TIP3    H254737   2.737   1.909   0.507 -0.3256 -0.4024  1.1342
11108TIP3   OH254738   2.789   2.251   4.461  0.4330  0.3650  0.0253
11108TIP3    H154739   2.773   2.320   4.525  0.3288 -1.2639  1.8729
11108TIP3    H254740   2.885   2.242   4.460  0.4758  0.8567 -0.5910
11109TIP3   OH254741   2.567   1.490   2.435 -0.0993  0.4548  0.2347
11109TIP3    H154742   2.553   1.397   2.453  1.1934 -0.0938 -1.3654
11109TIP3    H254743   2.628   1.491   2.361 -0.5863  2.5811 -0.1856
11110TIP3   OH254744   0.959   2.590  13.084 -0.0931  0.5055  0.3190
11110TIP3    H154745   1.007   2.539  13.150  0.9469  1.5946  0.4500
11110TIP3    H254746   0.893   2.530  13.051  0.4870 -0.6258  1.1201
11111TIP3   OH254747   0.747   5.975   3.875  0.2391  0.1645 -0.3361
11111TIP3    H154748   0.733   5.933   3.790 -0.6186  0.3833 -0.3186
11111TIP3    H254749   0.658   5.986   3.911  0.2942  3.0871 -0.8638
11112TIP3   OH254750   1.687   4.557  13.699  0.0907  0.6275  0.5102
11112TIP3    H154751   1.611   4.607  13.669  0.5768  0.8980 -0.2854
11112TIP3    H254752   1.738   4.540  13.620 -0.0714 -1.1691  0.7509
11113TIP3   OH254753   0.002   0.553   2.134 -1.0204  0.0885  0.6747
11113TIP3    H154754  -0.044   0.519   2.210 -2.0528  0.3346  0.1683
11113TIP3    H254755  -0.043   0.634   2.112  1.0527  1.5378  1.5157
11114TIP3   OH254756   5.427   0.635  12.513 -0.4927  0.3148  0.0791
11114TIP3    H154757   5.469   0.710  12.472  0.6697  0.2928  1.1534
11114TIP3    H254758   5.383   0.589  12.442 -0.0916  1.2722 -0.8064
11115TIP3   OH254759   1.435   4.464   5.630  0.3368 -0.4250 -0.3043
11115TIP3    H154760   1.497   4.532   5.602  0.1947 -0.2946 -0.3006
11115TIP3    H254761   1.421   4.410   5.552  0.0590 -0.1528 -0.4447
11116TIP3   OH254762   5.877   1.587  16.317 -0.2104  0.3313 -0.3974
11116TIP3    H154763   5.867   1.662  16.376  0.1350  0.9823 -1.1425
11116TIP3    H254764   5.939   1.530  16.362 -0.3484  0.5710  0.1084
11117TIP3   OH254765   4.536   0.634   2.755  0.1159  0.5159  0.5011
11117TIP3    H154766   4.503   0.545   2.764  2.2628 -0.5353 -1.0263
11117TIP3    H254767   4.477   0.675   2.692 -1.1133  0.3219  1.4975
11118TIP3   OH254768   0.342   0.361   3.801 -0.3219 -0.6200 -0.2159
11118TIP3    H154769   0.335   0.276   3.845 -1.0071 -1.0340 -1.0979
11118TIP3    H254770   0.417   0.351   3.741 -0.6589 -0.7432 -0.6188
11119TIP3   OH254771   1.809   4.040  15.066  0.8391 -0.4316  0.3932
11119TIP3    H154772   1.781   4.063  14.977 -0.2901 -1.6956  0.3807
11119TIP3    H254773   1.827   3.946  15.061 -0.2575 -0.7456  1.7115
11120TIP3   OH254774   4.009   0.650  14.480  0.1433  0.6545 -0.0138
11120TIP3    H154775   3.935   0.636  14.422  0.2470  0.2420 -0.0471
11120TIP3    H254776   4.074   0.696  14.427  0.9374 -1.2330 -0.7676
11121TIP3   OH254777   4.386   6.684   3.607  0.0397  0.2121 -0.0076
11121TIP3    H154778   4.326   6.721   3.542  0.4596  1.6629  0.3958
11121TIP3    H254779   4.373   6.738   3.685  0.8556 -0.3553  0.5312
11122TIP3   OH254780   0.953   4.499  14.996 -0.3520 -0.0138 -0.0449
11122TIP3    H154781   1.011   4.423  14.998  0.6807  0.6613 -1.7878
11122TIP3    H254782   1.013   4.574  14.987 -1.3113  1.0892  1.9844
11123TIP3   OH254783   2.134   0.132  16.530  0.2113 -0.6022 -0.0910
11123TIP3    H154784   2.059   0.079  16.557 -1.9195  1.9534 -0.5705
11123TIP3    H254785   2.100   0.187  16.459  2.1656  1.6145  0.5717
11124TIP3   OH254786   1.301   4.211  11.036 -0.4042 -0.4278  0.0369
11124TIP3    H154787   1.219   4.163  11.045  0.0847 -1.3933 -0.4526
11124TIP3    H254788   1.358   4.152  10.987  0.1980  0.7048 -0.6700
11125TIP3   OH254789   3.574   2.322  12.431  0.1473 -0.2269  0.7929
11125TIP3    H154790   3.666   2.302  12.451  0.3997 -0.0140 -0.0828
11125TIP3    H254791   3.570   2.417  12.434 -0.1116 -0.2496  1.1082
11126TIP3   OH254792   2.220   1.634  13.182 -0.1958 -0.0754 -0.3608
11126TIP3    H154793   2.224   1.601  13.092 -0.0424 -0.8453 -0.0860
11126TIP3    H254794   2.233   1.728  13.174  1.1596 -0.2851 -1.0492
11127TIP3   OH254795   1.700   5.246   4.438 -0.2312 -0.0614  0.4182
11127TIP3    H154796   1.714   5.340   4.436  0.7270 -0.1876  0.9034
11127TIP3    H254797   1.608   5.235   4.414 -0.9554  1.1414  2.4112
11128TIP3   OH254798   0.943   2.701   0.865  0.1250 -1.1996 -0.3310
11128TIP3    H154799   0.953   2.606   0.874 -1.3117 -1.4048 -0.7160
11128TIP3    H254800   0.854   2.713   0.832 -0.2052  0.3618  1.0141
11129TIP3   OH254801   3.340   0.735   0.386 -0.1831 -0.0479  0.2713
11129TIP3    H154802   3.307   0.704   0.302  0.5702 -0.3833  0.0870
11129TIP3    H254803   3.312   0.826   0.391  1.5164  0.6197 -1.3126
11130TIP3   OH254804   1.036   4.321   1.655 -0.3804  0.1986  0.2761
11130TIP3    H154805   0.999   4.344   1.569  0.9366 -1.3539 -0.7777
11130TIP3    H254806   0.966   4.271   1.698 -0.1075 -1.5303 -1.1409
11131TIP3   OH254807   0.369   0.417  16.478 -0.7012 -0.5529 -0.3996
11131TIP3    H154808   0.340   0.497  16.521  1.0291 -0.6366  1.1002
11131TIP3    H254809   0.458   0.404  16.511 -0.7247 -2.7770 -1.0543
11132TIP3   OH254810   6.638   6.487   2.856  0.7853  0.4362  0.1827
11132TIP3    H154811   6.646   6.410   2.800  1.1945 -0.4206  1.3686
11132TIP3    H254812   6.726   6.524   2.857  0.6019  0.8914 -0.3397
11133TIP3   OH254813   0.523   2.171  11.315 -0.4573  0.0582 -0.3146
11133TIP3    H154814   0.520   2.255  11.269 -0.6882 -0.0149 -0.4358
11133TIP3    H254815   0.590   2.183  11.382  0.0745  0.0767 -0.8432
11134TIP3   OH254816   2.847   4.474   5.664 -0.2592 -0.3946 -0.2130
11134TIP3    H154817   2.851   4.383   5.632  1.6456 -0.3439 -0.2239
11134TIP3    H254818   2.807   4.522   5.592 -1.4416 -1.2435 -0.1483
11135TIP3   OH254819   3.771   3.110  13.525  0.0797 -0.3678  0.0740
11135TIP3    H154820   3.735   3.052  13.591  0.7949  0.0134  0.8291
11135TIP3    H254821   3.731   3.195  13.543 -0.9408 -0.6043 -1.0059
11136TIP3   OH254822   3.106   1.993   5.396 -0.4712 -0.0146  0.3240
11136TIP3    H154823   3.074   1.903   5.399 -0.7993  0.1256  1.1684
11136TIP3    H254824   3.167   1.994   5.322 -2.4797 -0.2660 -1.4403
11137TIP3   OH254825   3.409   1.903  12.800 -0.5070  0.2642 -0.2823
11137TIP3    H154826   3.426   1.937  12.712 -0.0211 -2.5412 -1.3546
11137TIP3    H254827   3.317   1.924  12.816 -0.7065  0.5004 -1.6114
11138TIP3   OH254828   1.052   3.135   5.483  0.3520  0.7850 -0.0308
11138TIP3    H154829   1.018   3.069   5.544 -0.9815  1.8903  0.4797
11138TIP3    H254830   1.094   3.084   5.414  0.4042 -0.5560  0.9516
11139TIP3   OH254831   1.013   3.373  12.364  0.1817 -0.1868  0.1410
11139TIP3    H154832   0.967   3.372  12.448  1.8058 -0.2021  1.0578
11139TIP3    H254833   1.092   3.321  12.379  0.2969 -0.5451 -1.5235
11140TIP3   OH254834   5.343   2.620   3.583 -0.3081 -0.3239 -0.8244
11140TIP3    H154835   5.311   2.540   3.624 -1.4008  0.5086  0.0162
11140TIP3    H254836   5.287   2.690   3.620 -0.9461  0.5499 -3.2667
11141TIP3   OH254837   3.039   6.718  13.739  0.1148  0.2981  0.1308
11141TIP3    H154838   3.035   6.730  13.833  0.9638 -1.9829  0.5151
11141TIP3    H254839   3.131   6.734  13.716  0.1263 -0.1138 -0.1338
11142TIP3   OH254840   2.400   0.020   5.780  0.0492  0.4542 -0.4852
11142TIP3    H154841   2.401  -0.075   5.794 -0.4199  0.7663  1.9948
11142TIP3    H254842   2.323   0.051   5.827 -0.4185  1.9904 -2.1444
11143TIP3   OH254843   5.979   3.974   2.713 -1.0073 -0.1592 -0.5701
11143TIP3    H154844   5.976   3.998   2.805  0.2517  1.9931 -1.0204
11143TIP3    H254845   6.064   3.932   2.702 -1.4883 -1.1604 -0.6317
11144TIP3   OH254846   4.074   2.245  13.906  0.2730  0.0537  0.1596
11144TIP3    H154847   3.989   2.258  13.950  0.3282  1.9934 -0.2203
11144TIP3    H254848   4.052   2.246  13.813  0.6645  0.1136  0.0698
11145TIP3   OH254849   6.285   1.244   5.732  0.1168  0.0445  0.4242
11145TIP3    H154850   6.368   1.204   5.757 -0.7288 -1.3896  1.1036
11145TIP3    H254851   6.257   1.291   5.811 -0.5468 -0.9592  0.7990
11146TIP3   OH254852   6.357   6.305  14.455  0.2122 -0.2340 -0.1763
11146TIP3    H154853   6.336   6.213  14.465  2.9942 -0.8528  0.8728
11146TIP3    H254854   6.378   6.335  14.544 -0.4093  1.3794 -0.5303
11147TIP3   OH254855   0.145   0.977  13.074 -0.5764 -0.1402  0.8194
11147TIP3    H154856   0.116   0.891  13.104  0.0242  0.0071  1.8639
11147TIP3    H254857   0.091   0.995  12.997 -0.5877 -1.5272  0.4731
11148TIP3   OH254858   1.030   2.282  16.510 -0.7013  0.2729 -0.1765
11148TIP3    H154859   0.965   2.269  16.441 -1.1225 -1.6746  0.5079
11148TIP3    H254860   0.999   2.227  16.582  2.3722 -1.9053 -0.2934
11149TIP3   OH254861   0.604   6.594  11.738  0.0979 -0.2346  0.2285
11149TIP3    H154862   0.678   6.652  11.719  1.1353 -1.3824  0.6379
11149TIP3    H254863   0.570   6.570  11.652  0.4379  0.0101  0.0220
11150TIP3   OH254864   3.759   2.090  13.232 -0.2041 -0.2266  0.1622
11150TIP3    H154865   3.758   1.995  13.217 -2.9304  0.0214 -1.9862
11150TIP3    H254866   3.823   2.124  13.170  2.9004 -0.7296  2.8091
11151TIP3   OH254867   0.848   4.291  13.278 -0.0874  0.5080  0.5858
11151TIP3    H154868   0.874   4.244  13.199 -1.1092  2.3699 -0.9467
11151TIP3    H254869   0.786   4.233  13.322  1.1668 -0.9287  0.5307
11152TIP3   OH254870   1.887   2.755   4.778 -0.1581  0.1436  0.1694
11152TIP3    H154871   1.916   2.664   4.780 -0.3804  0.0424 -0.6535
11152TIP3    H254872   1.947   2.801   4.836 -0.4599 -0.6396  1.1330
11153TIP3   OH254873   2.178   1.314   0.400  0.5911  0.0831  0.6462
11153TIP3    H154874   2.260   1.361   0.387 -0.3335  1.3255 -1.1424
11153TIP3    H254875   2.180   1.243   0.336 -0.0414  0.6150  0.0147
11154TIP3   OH254876   6.512   4.514  17.229  0.4215 -0.5091 -0.0593
11154TIP3    H154877   6.579   4.461  17.187  0.5031 -0.2031 -0.3244
11154TIP3    H254878   6.443   4.523  17.162  0.0891 -0.8736  0.2344
11155TIP3   OH254879   0.531   4.554  15.256 -0.1310 -0.2555  0.9403
11155TIP3    H154880   0.558   4.532  15.167  1.2663  0.7992  1.0639
11155TIP3    H254881   0.485   4.637  15.247 -0.6610 -0.5309  1.1081
11156TIP3   OH254882   3.093   2.910  14.475  0.1643  0.0119  0.1424
11156TIP3    H154883   3.161   2.866  14.527 -0.3600  0.1470  0.9711
11156TIP3    H254884   3.141   2.967  14.415  0.7886  0.0973  0.7113
11157TIP3   OH254885   4.000   4.311   4.743  1.3156  0.5499  0.0195
11157TIP3    H154886   4.076   4.279   4.693  0.1808 -1.5390 -0.4781
11157TIP3    H254887   3.976   4.238   4.799 -1.2510  0.5827 -0.9248
11158TIP3   OH254888   0.025   6.530   4.257  0.6236 -0.2656 -0.3261
11158TIP3    H154889  -0.055   6.571   4.226 -0.1906 -2.1078 -0.7975
11158TIP3    H254890   0.092   6.556   4.193  0.1429  0.2776 -0.6195
11159TIP3   OH254891   3.113   1.240   4.943 -0.1784  0.3321  0.1187
11159TIP3    H154892   3.187   1.180   4.942 -0.4783 -0.0512  0.5082
11159TIP3    H254893   3.102   1.266   4.851  0.7597  0.8042  0.1320
11160TIP3   OH254894   5.949   3.754  15.093  0.0594  1.1538  0.0478
11160TIP3    H154895   5.856   3.731  15.090 -0.3336  2.7414 -0.8092
11160TIP3    H254896   5.953   3.844  15.061  1.9409  0.9987 -0.2666
11161TIP3   OH254897   3.577   6.179  12.067 -0.0351  0.8454 -0.2722
11161TIP3    H154898   3.593   6.228  12.148  0.4386  0.0414  0.1284
11161TIP3    H254899   3.631   6.224  12.001  1.0833  0.3608  0.2811
11162TIP3   OH254900   1.909   6.341   3.979 -0.2652  0.1904 -0.0129
11162TIP3    H154901   1.886   6.266   4.034  1.0534 -0.4214 -0.2659
11162TIP3    H254902   1.874   6.417   4.026 -2.6826 -0.6385 -0.3355
11163TIP3   OH254903   0.003   4.166  13.253 -0.0854  0.1158  0.2923
11163TIP3    H154904  -0.076   4.137  13.206  1.4375  0.2365 -2.5953
11163TIP3    H254905   0.009   4.107  13.328 -2.2577 -0.6483 -0.0361
11164TIP3   OH254906   0.717   2.351  16.568 -0.1408 -0.0953  0.0797
11164TIP3    H154907   0.684   2.277  16.619  0.0246 -0.1776  0.0688
11164TIP3    H254908   0.638   2.393  16.533 -0.1971 -1.5598 -1.7304
11165TIP3   OH254909   5.293   4.895  16.128 -0.0624 -0.8633  0.6265
11165TIP3    H154910   5.344   4.975  16.145 -1.7498  0.7602 -1.4093
11165TIP3    H254911   5.202   4.921  16.141 -0.7443 -2.0559 -1.3438
11166TIP3   OH254912   5.801   6.081   0.838  0.1959  0.5250 -0.3603
11166TIP3    H154913   5.725   6.122   0.797 -0.5870 -1.0516 -0.5873
11166TIP3    H254914   5.771   6.058   0.926  0.6957  0.6671 -0.1497
11167TIP3   OH254915   4.389   2.781  13.969 -0.1706 -0.1858  0.1881
11167TIP3    H154916   4.477   2.817  13.965  0.2362 -1.2250 -0.7472
11167TIP3    H254917   4.331   2.856  13.951  0.5713  0.2826 -0.2991
11168TIP3   OH254918   6.629   0.866  11.240  0.5792 -0.2467 -0.2556
11168TIP3    H154919   6.672   0.950  11.254  1.2245 -0.8576  1.7550
11168TIP3    H254920   6.701   0.805  11.220  0.3972 -0.7710  0.6333
11169TIP3   OH254921   3.876   1.987  16.875 -0.3864  0.3386 -0.3131
11169TIP3    H154922   3.801   2.030  16.833 -1.2187  0.1535  0.9287
11169TIP3    H254923   3.933   2.059  16.901 -0.7755  0.5639 -0.0817
11170TIP3   OH254924   2.933   2.878  16.219  0.2724  0.1034 -0.3622
11170TIP3    H154925   2.925   2.835  16.303  0.7301 -1.0253 -0.8789
11170TIP3    H254926   2.869   2.835  16.162  0.3119  0.5096 -0.7246
11171TIP3   OH254927   0.510   0.573   4.053  0.2629 -0.1675  0.0135
11171TIP3    H154928   0.596   0.553   4.014 -0.1238 -0.6045 -0.6315
11171TIP3    H254929   0.470   0.635   3.992 -0.2118 -0.5997 -0.1192
11172TIP3   OH254930   4.642   0.081  13.588 -0.3322 -0.6831  0.0091
11172TIP3    H154931   4.666   0.132  13.666 -2.1029 -2.1165  1.5710
11172TIP3    H254932   4.577   0.135  13.543  0.2921 -0.1018 -0.2345
11173TIP3   OH254933   1.578   0.045  13.622  0.2624  0.3114 -0.2105
11173TIP3    H154934   1.548   0.062  13.533 -2.4509  1.0383  0.7499
11173TIP3    H254935   1.585   0.132  13.662  0.5243 -0.0502  0.5455
11174TIP3   OH254936   2.163   5.327   4.101  0.0417  0.5788  0.0589
11174TIP3    H154937   2.241   5.381   4.088 -0.4451  1.3721  0.3621
11174TIP3    H254938   2.101   5.357   4.035 -0.6558  1.2272  0.9734
11175TIP3   OH254939   3.478   5.301   5.878 -0.3702  0.3213 -0.1891
11175TIP3    H154940   3.503   5.262   5.962  3.3144  2.2731 -0.1790
11175TIP3    H254941   3.408   5.362   5.900 -2.2104 -1.9484  0.6964
11176TIP3   OH254942   1.481   1.368   6.539  0.4510  0.4039  0.1658
11176TIP3    H154943   1.458   1.291   6.590  2.3804  0.4972  1.2507
11176TIP3    H254944   1.565   1.347   6.499  1.2455  2.0848  0.8506
11177TIP3   OH254945   1.143   3.136  11.678  0.4039 -0.0304 -0.6410
11177TIP3    H154946   1.192   3.202  11.727  0.1398 -0.6580  0.5060
11177TIP3    H254947   1.115   3.072  11.745 -3.0387  0.9230 -0.9907
11178TIP3   OH254948   3.079   4.194  11.503 -0.0734 -0.1472  0.1954
11178TIP3    H154949   2.998   4.224  11.461  0.3810  1.2650  0.3032
11178TIP3    H254950   3.121   4.140  11.436 -1.1750 -1.0749  0.2019
11179TIP3   OH254951   0.856   2.973  16.331  0.2614 -0.4259  0.1118
11179TIP3    H154952   0.806   2.930  16.400  0.7360 -0.4774  0.4334
11179TIP3    H254953   0.803   3.049  16.306 -0.7611 -1.3943 -0.7299
11180TIP3   OH254954   3.733   0.500  16.382 -0.0867  0.3596 -0.4035
11180TIP3    H154955   3.664   0.524  16.443 -1.7985 -2.2195 -1.1631
11180TIP3    H254956   3.687   0.466  16.305  2.0226 -0.0747 -1.5601
11181TIP3   OH254957   6.453   4.604   4.545  0.6974  0.1479 -0.0191
11181TIP3    H154958   6.491   4.544   4.609  0.9941 -0.9807 -1.1947
11181TIP3    H254959   6.401   4.665   4.597  1.7101 -0.1127  1.3656
11182TIP3   OH254960   3.905   5.827  12.127 -0.2319 -0.4718  0.0412
11182TIP3    H154961   3.837   5.854  12.064  0.9354  1.3844 -0.4981
11182TIP3    H254962   3.862   5.832  12.212 -0.4408  2.0633 -0.1547
11183TIP3   OH254963   2.211   5.522  15.519 -0.2521 -0.0912  0.6424
11183TIP3    H154964   2.234   5.476  15.599  0.1243  0.6121  0.9547
11183TIP3    H254965   2.288   5.511  15.462 -0.4122 -0.3700  0.4821
11184TIP3   OH254966   1.834   2.450   2.445  0.0656  0.7003  0.2614
11184TIP3    H154967   1.880   2.477   2.525 -0.0327 -1.1221  1.0063
11184TIP3    H254968   1.872   2.504   2.376  0.4302  2.0614  1.4813
11185TIP3   OH254969   0.825   1.549   4.200 -0.6678  0.1553  0.2893
11185TIP3    H154970   0.768   1.598   4.142 -0.4881  0.3109  0.2424
11185TIP3    H254971   0.831   1.462   4.161  0.0502  0.4752 -0.3363
11186TIP3   OH254972   6.482   0.903   1.424  0.1865  0.1483  0.0213
11186TIP3    H154973   6.561   0.953   1.404  0.8446 -1.5805 -1.9400
11186TIP3    H254974   6.509   0.842   1.493 -0.8138  2.7745  3.0031
11187TIP3   OH254975   4.976   5.647  14.336 -0.3347  0.4713  0.1606
11187TIP3    H154976   5.065   5.676  14.319 -0.2487  0.0289 -0.1878
11187TIP3    H254977   4.977   5.554  14.311 -1.4830  1.0030 -2.1087
11188TIP3   OH254978   0.761   2.817  12.036  0.6113 -0.1012 -0.2837
11188TIP3    H154979   0.696   2.798  12.104  1.1807 -0.4199  0.1861
11188TIP3    H254980   0.796   2.903  12.061 -0.1262  0.4070 -0.9436
11189TIP3   OH254981   4.331   0.803  14.362 -0.5750 -0.1844 -0.3343
11189TIP3    H154982   4.385   0.809  14.441 -0.3965  0.8592 -0.5203
11189TIP3    H254983   4.392   0.816  14.289 -1.1507  1.9153 -0.5217
11190TIP3   OH254984   0.815   6.735  17.048  0.2712  0.1678  0.0941
11190TIP3    H154985   0.735   6.775  17.013  0.2505 -1.6227 -2.1354
11190TIP3    H254986   0.785   6.683  17.122 -0.8114 -1.0925 -1.1845
11191TIP3   OH254987   1.641   0.062  11.242 -0.4460 -0.7610 -0.2237
11191TIP3    H154988   1.652   0.046  11.148  0.6562  0.9786 -0.4284
11191TIP3    H254989   1.577   0.133  11.247 -0.8437 -1.1529  0.3740
11192TIP3   OH254990   5.051   1.556   1.340  0.4230 -0.3030 -0.6904
11192TIP3    H154991   5.035   1.535   1.431  1.9357 -1.5516 -0.6784
11192TIP3    H254992   5.060   1.652   1.338  2.0528 -0.3873  0.7798
11193TIP3   OH254993   3.674   5.222  12.811  0.2090 -0.0296 -0.1768
11193TIP3    H154994   3.745   5.271  12.769 -1.5046  1.7940 -1.1419
11193TIP3    H254995   3.699   5.215  12.903  1.9752 -0.1553 -0.6405
11194TIP3   OH254996   1.978   6.522  16.809  0.4892  0.1327 -0.7292
11194TIP3    H154997   2.057   6.469  16.796 -1.3449 -2.7549 -0.9163
11194TIP3    H254998   1.991   6.562  16.895  1.1789 -2.2457  0.3570
11195TIP3   OH254999   0.388   5.229   2.211  0.2716 -0.0810  0.0239
11195TIP3    H155000   0.473   5.266   2.187  0.4259 -0.5001 -0.0920
11195TIP3    H255001   0.330   5.254   2.139  0.2966  0.1964  0.0979
11196TIP3   OH255002   2.159   0.283   6.142 -0.7583  0.2227 -0.3440
11196TIP3    H155003   2.243   0.239   6.147 -1.3584 -1.1632 -1.6306
11196TIP3    H255004   2.166   0.357   6.203  0.4413 -1.4132  1.6224
11197TIP3   OH255005   1.216   1.470   4.500 -0.3277 -0.1105 -0.3786
11197TIP3    H155006   1.302   1.445   4.532 -0.6566  0.1318  0.7355
11197TIP3    H255007   1.211   1.564   4.514 -0.3095  0.0792 -1.5849
11198TIP3   OH255008   6.325   1.627   3.033 -0.0564 -0.2075 -0.3298
11198TIP3    H155009   6.419   1.645   3.033 -0.0421 -0.0150  1.6224
11198TIP3    H255010   6.285   1.703   2.991  0.5121  1.0442  1.2937
11199TIP3   OH255011   4.440   5.763   3.366  0.0468 -0.1775  0.2117
11199TIP3    H155012   4.530   5.733   3.360  0.3125  0.8049 -1.5967
11199TIP3    H255013   4.388   5.688   3.336  0.4995  0.1609 -1.5164
11200TIP3   OH255014   4.209   1.892   4.089 -0.0924 -0.0679  0.5526
11200TIP3    H155015   4.234   1.941   4.167  2.1292 -0.2430  0.0205
11200TIP3    H255016   4.267   1.816   4.089  0.1431  0.0688 -1.3961
11201TIP3   OH255017   0.124   0.159   2.530  0.6478 -0.3332  0.3420
11201TIP3    H155018   0.209   0.202   2.520  0.2316  0.4575  0.0454
11201TIP3    H255019   0.098   0.137   2.440 -0.8755  2.3284  0.0153
11202TIP3   OH255020   0.410   1.354  14.342  1.1598  0.1639 -0.2472
11202TIP3    H155021   0.494   1.333  14.383  0.8162  0.8841  0.9064
11202TIP3    H255022   0.350   1.365  14.416 -0.0675 -0.7654 -1.0642
11203TIP3   OH255023   1.698   0.169  11.888  0.0343 -0.0493 -0.3215
11203TIP3    H155024   1.736   0.218  11.815 -0.1242  2.0197  0.9016
11203TIP3    H255025   1.767   0.109  11.916  0.4749 -0.0933 -1.4588
11204TIP3   OH255026   1.881   6.012   5.187 -0.0413  0.2872  0.0109
11204TIP3    H155027   1.808   6.063   5.153 -1.2570 -1.3582  0.0402
11204TIP3    H255028   1.911   5.959   5.112 -0.7386 -1.1035  0.6782
11205TIP3   OH255029   3.636   5.699  16.622  0.1979  0.1540  0.2826
11205TIP3    H155030   3.562   5.640  16.636 -0.7707  0.9031 -1.3545
11205TIP3    H255031   3.612   5.780  16.668  0.3568  0.1340  0.4019
11206TIP3   OH255032   3.744   3.994   0.363 -0.7138 -0.4562  0.3117
11206TIP3    H155033   3.726   4.087   0.346 -0.5795 -0.4250  0.3412
11206TIP3    H255034   3.727   3.951   0.279  1.4921 -0.0877 -0.3841
11207TIP3   OH255035   1.070   0.330  15.247 -0.0202 -0.0965  0.3015
11207TIP3    H155036   0.986   0.306  15.285 -1.0544  0.3978 -1.5059
11207TIP3    H255037   1.046   0.386  15.172  1.8711 -0.5839 -0.7193
11208TIP3   OH255038   6.749   0.331   0.284 -0.2223 -0.3930 -0.6009
11208TIP3    H155039   6.834   0.359   0.250 -0.5167 -0.8249 -1.7647
11208TIP3    H255040   6.759   0.238   0.302 -0.0470 -0.1532  0.6297
11209TIP3   OH255041   2.440   5.061  14.106  0.0183  0.7291  0.5721
11209TIP3    H155042   2.424   5.009  14.027  0.6851  3.4443 -1.5399
11209TIP3    H255043   2.455   4.997  14.175 -3.4216 -1.8529 -0.7954
11210TIP3   OH255044   4.450   4.548   0.741  0.3840  0.3848 -0.1190
11210TIP3    H155045   4.426   4.617   0.803 -1.1686 -0.7099  0.5715
11210TIP3    H255046   4.527   4.506   0.780  0.3407  0.6858  0.2992
11211TIP3   OH255047   4.158   1.894   5.147  0.2880 -0.0845  0.2674
11211TIP3    H155048   4.244   1.853   5.151  0.5383  0.2350 -1.1176
11211TIP3    H255049   4.164   1.971   5.204  1.3286  0.6184 -0.7542
11212TIP3   OH255050   5.427   5.334   1.383 -0.3060  0.3614 -0.0867
11212TIP3    H155051   5.385   5.260   1.340 -1.7021  0.2759  1.3352
11212TIP3    H255052   5.497   5.361   1.323  1.6504 -3.4028  0.2499
11213TIP3   OH255053   3.094   1.657  14.650  0.0264 -0.0470  0.8214
11213TIP3    H155054   3.136   1.728  14.699  0.4587  1.3577 -1.3927
11213TIP3    H255055   3.134   1.663  14.563 -3.6692  0.4115 -1.0199
11214TIP3   OH255056   6.581   5.803  15.275  0.3190 -0.0324  0.4144
11214TIP3    H155057   6.572   5.769  15.364 -1.1310 -0.7949  0.0150
11214TIP3    H255058   6.512   5.870  15.269 -0.6181 -1.0614 -0.5984
11215TIP3   OH255059   1.060   2.597   1.378  0.0116  0.4589  0.0247
11215TIP3    H155060   0.968   2.618   1.393  0.1997  0.7456  0.8198
11215TIP3    H255061   1.071   2.602   1.284 -0.8628  0.1168 -0.1055
11216TIP3   OH255062   4.330   3.203  14.199  0.2970 -0.6500  0.2584
11216TIP3    H155063   4.405   3.198  14.140  1.4765  2.5815  1.2961
11216TIP3    H255064   4.367   3.190  14.286 -0.8062 -1.5024  0.6201
11217TIP3   OH255065   1.464   4.979  13.910  0.4113 -0.6211  0.2166
11217TIP3    H155066   1.389   4.923  13.894 -0.5725  0.5182  0.7034
11217TIP3    H255067   1.522   4.964  13.836 -0.6047 -1.0134 -0.5171
11218TIP3   OH255068   5.136   0.713  13.227 -0.2910  0.1018  0.2441
11218TIP3    H155069   5.226   0.715  13.259  0.1957 -0.9833 -0.9506
11218TIP3    H255070   5.103   0.626  13.250 -1.0953  0.5384  0.7981
11219TIP3   OH255071   3.164   3.286  11.720 -0.1623  0.4137  0.2546
11219TIP3    H155072   3.177   3.205  11.769 -0.9356  0.0260 -0.1562
11219TIP3    H255073   3.156   3.258  11.629 -1.0416  0.8670  0.1749
11220TIP3   OH255074   5.910   0.458   0.210 -0.2388 -0.1498  0.0674
11220TIP3    H155075   5.970   0.396   0.170  1.0259  0.1283  1.4429
11220TIP3    H255076   5.942   0.468   0.300  1.5780  4.7828 -0.8251
11221TIP3   OH255077   0.617   0.562   0.193  0.1719  0.4246 -0.5302
11221TIP3    H155078   0.555   0.591   0.260 -1.2428  0.2951 -1.7374
11221TIP3    H255079   0.693   0.619   0.205 -0.7755  1.6157  0.0181
11222TIP3   OH255080   3.260   6.764  14.437 -0.0278  0.5006  0.2652
11222TIP3    H155081   3.243   6.687  14.383  0.2132 -0.2217  1.1825
11222TIP3    H255082   3.279   6.834  14.374  1.6136 -0.6369 -0.5838
11223TIP3   OH255083   5.279   6.591  12.392  0.0330  0.1919 -0.8854
11223TIP3    H155084   5.254   6.499  12.382  1.9298 -0.2819 -1.8931
11223TIP3    H255085   5.206   6.632  12.437 -0.2698 -2.1092  0.8712
11224TIP3   OH255086   4.586   5.535   2.498  0.7320  0.1136  0.0168
11224TIP3    H155087   4.584   5.606   2.561 -1.4321 -0.5697  0.8073
11224TIP3    H255088   4.631   5.464   2.543 -0.5051 -0.2598  0.6996
11225TIP3   OH255089   1.955   0.058  15.750 -0.1651 -0.2922  0.2173
11225TIP3    H155090   1.887   0.016  15.803 -1.4493 -0.0407 -1.1511
11225TIP3    H255091   1.925   0.046  15.659  1.9531 -0.7187 -0.4745
11226TIP3   OH255092   1.089   5.841  13.535 -0.3971 -0.1551  0.0691
11226TIP3    H155093   1.150   5.767  13.540  0.1427  0.1929 -1.1590
11226TIP3    H255094   1.051   5.845  13.623  2.8393  0.8743  1.5987
11227TIP3   OH255095   4.297   5.621   4.181  0.1172  0.2363 -0.2829
11227TIP3    H155096   4.345   5.692   4.223 -0.2983  0.6557 -0.5034
11227TIP3    H255097   4.264   5.568   4.254 -0.0841  0.6141 -0.0974
11228TIP3   OH255098   3.824   1.034   4.525  0.6118 -0.2886  0.0548
11228TIP3    H155099   3.758   1.103   4.520  0.2087 -0.6587  0.1852
11228TIP3    H255100   3.774   0.953   4.513  0.5071 -0.8326  3.1651
11229TIP3   OH255101   5.501   5.435   1.007 -0.2046 -0.4046  0.3117
11229TIP3    H155102   5.551   5.456   1.085  0.1914 -0.7874  0.1662
11229TIP3    H255103   5.503   5.339   1.002 -2.3379 -0.5548  1.2231
11230TIP3   OH255104   5.647   2.208  14.602  0.1106  0.2306  0.0783
11230TIP3    H155105   5.643   2.175  14.692  0.8155 -0.0787 -0.0019
11230TIP3    H255106   5.678   2.134  14.550 -1.3412  0.0589 -0.6173
11231TIP3   OH255107   3.193   6.761  16.629  0.4744 -0.4024 -0.2176
11231TIP3    H155108   3.214   6.669  16.610 -2.0344 -0.9276 -0.7940
11231TIP3    H255109   3.254   6.811  16.574  1.6587 -1.6895 -0.1546
11232TIP3   OH255110   6.160   4.696  16.428  0.2091 -0.0820  0.4099
11232TIP3    H155111   6.080   4.696  16.375 -0.1875 -1.3961  0.9606
11232TIP3    H255112   6.183   4.788  16.438 -0.1256  0.2354 -1.4087
11233TIP3   OH255113   5.238   0.063  14.118  0.1143 -0.0511 -0.2808
11233TIP3    H155114   5.173   0.129  14.141  1.2000  0.7220  0.6294
11233TIP3    H255115   5.287   0.101  14.046 -0.2087 -0.5032 -0.7525
11234TIP3   OH255116   0.934   1.955  14.182  0.4541  0.3262 -0.4251
11234TIP3    H155117   0.889   2.025  14.230 -0.7510 -0.7086  0.0258
11234TIP3    H255118   0.868   1.886  14.173  0.7587  0.2866 -3.2124
11235TIP3   OH255119   3.723   5.975  11.935  0.4746  0.2715  0.8623
11235TIP3    H155120   3.646   6.010  11.980 -0.8584  0.6470 -1.5475
11235TIP3    H255121   3.748   6.044  11.874  1.7273 -0.5096  0.4669
11236TIP3   OH255122   1.145   4.905  14.630  0.2888  0.0739 -0.5035
11236TIP3    H155123   1.119   4.996  14.619  0.6034  0.2986  0.4750
11236TIP3    H255124   1.238   4.908  14.649  0.2786 -0.4415 -0.3345
11237TIP3   OH255125   6.676   6.182  11.716 -0.1207  0.7068 -0.3612
11237TIP3    H155126   6.726   6.232  11.780  1.1916 -1.7295  0.6120
11237TIP3    H255127   6.602   6.146  11.765  0.0507  0.0748 -0.5546
11238TIP3   OH255128   3.347   0.092   0.443  0.3386 -0.3025 -0.0627
11238TIP3    H155129   3.335   0.125   0.532  0.4281 -0.0094 -0.1596
11238TIP3    H255130   3.441   0.093   0.429  0.2658  0.7385 -0.5685
11239TIP3   OH255131   6.065   5.706  15.723 -0.0969  0.7847 -0.7711
11239TIP3    H155132   6.129   5.660  15.777 -0.6743  1.7589  0.8294
11239TIP3    H255133   6.118   5.750  15.656  0.5759 -0.9613 -1.4509
11240TIP3   OH255134   2.285   0.012   5.333  0.2835 -0.4780  0.8429
11240TIP3    H155135   2.361   0.061   5.301 -0.8122  1.8217  1.5183
11240TIP3    H255136   2.216   0.029   5.269 -0.8997  1.2416  2.4623
11241TIP3   OH255137   2.314   1.506  14.325  0.3712 -0.3164 -0.0233
11241TIP3    H155138   2.363   1.460  14.256  0.6015 -1.4961  0.9009
11241TIP3    H255139   2.359   1.590  14.333  0.4538 -0.2255 -1.1726
11242TIP3   OH255140   3.018   5.434   3.243  0.1590  0.0457  0.1978
11242TIP3    H155141   2.964   5.510   3.220  0.2736  0.0465 -0.0765
11242TIP3    H255142   3.043   5.396   3.158  1.5534  0.7226  0.2711
11243TIP3   OH255143   1.528   2.151  13.950 -0.3398 -0.4230 -0.0510
11243TIP3    H155144   1.481   2.070  13.929  1.2203 -1.0594 -1.2613
11243TIP3    H255145   1.521   2.159  14.045 -2.6529 -0.5955 -0.1366
11244TIP3   OH255146   1.130   6.006   2.391 -0.5493  0.5997  0.0390
11244TIP3    H155147   1.167   5.945   2.326  0.5770  1.0882  0.1970
11244TIP3    H255148   1.061   6.053   2.343 -0.2494  0.4155 -0.5872
11245TIP3   OH255149   1.149   4.458  12.500  0.4405  0.1106  0.2815
11245TIP3    H155150   1.101   4.478  12.580  0.0290 -0.7565  0.2700
11245TIP3    H255151   1.240   4.447  12.529  0.6028  1.5170  0.3410
11246TIP3   OH255152   4.863   5.736  14.565  0.0562 -0.1147  0.1966
11246TIP3    H155153   4.919   5.715  14.490 -0.8521 -1.7888 -0.0664
11246TIP3    H255154   4.918   5.720  14.641  0.8554  1.1839 -0.0801
11247TIP3   OH255155   3.360   6.399  15.406  0.7703 -0.8464 -0.1371
11247TIP3    H155156   3.338   6.322  15.353 -1.4063 -1.7214  1.8662
11247TIP3    H255157   3.275   6.438  15.428  1.7943  2.3433 -1.2270
11248TIP3   OH255158   3.258   6.084  15.418  0.0887 -0.4308  0.7318
11248TIP3    H155159   3.211   6.045  15.492  0.7117 -0.6804  1.0009
11248TIP3    H255160   3.346   6.046  15.422  0.4758  0.4198  0.5477
11249TIP3   OH255161   5.220   6.200   0.556 -0.0105  0.1130 -0.3601
11249TIP3    H155162   5.148   6.261   0.571  0.6256  1.2470 -1.6681
11249TIP3    H255163   5.188   6.116   0.588 -2.6767  0.1609 -2.5102
11250TIP3   OH255164   0.371   6.242  15.931  0.0068 -0.1213 -0.1402
11250TIP3    H155165   0.375   6.338  15.936  0.3236 -0.0090 -1.8977
11250TIP3    H255166   0.312   6.217  16.002  0.2855  1.3383  0.6476
11251TIP3   OH255167   4.456   4.111   0.885  0.0217 -0.1945 -0.1525
11251TIP3    H155168   4.538   4.086   0.927  0.1289 -0.1373 -0.3255
11251TIP3    H255169   4.460   4.069   0.799  1.4358  2.5572 -1.5540
11252TIP3   OH255170   5.108   3.406   0.511  0.4093 -0.0932 -0.2744
11252TIP3    H155171   5.030   3.449   0.476  1.7403  2.4180 -0.4056
11252TIP3    H255172   5.101   3.418   0.606  0.7691  0.4252 -0.3091
11253TIP3   OH255173   2.043   3.885   1.031 -0.0674 -0.4779 -0.2760
11253TIP3    H155174   1.978   3.954   1.045 -1.1941 -1.1611 -1.8552
11253TIP3    H255175   2.084   3.907   0.947 -0.1833 -1.5093 -0.6152
11254TIP3   OH255176   3.882   1.505   2.866  0.1355  0.4483  0.7928
11254TIP3    H155177   3.883   1.430   2.926  2.9111 -0.6530 -0.4797
11254TIP3    H255178   3.946   1.566   2.902 -0.6517  1.3228  0.7370
11255TIP3   OH255179   2.385   5.272   5.641  0.3596  0.1407 -0.2407
11255TIP3    H155180   2.435   5.292   5.562 -1.6235 -0.5286 -1.7349
11255TIP3    H255181   2.344   5.356   5.665 -0.2300  0.0277 -0.8250
11256TIP3   OH255182   0.112   2.181   2.992  0.1689 -0.0830 -0.4370
11256TIP3    H155183   0.085   2.140   2.909 -0.0658 -0.8718  0.0167
11256TIP3    H255184   0.056   2.257   3.001 -1.4884 -1.3159  0.1516
11257TIP3   OH255185   0.296   6.274  12.631 -0.3468 -0.5862 -0.0982
11257TIP3    H155186   0.207   6.272  12.598  0.0395  0.8377 -1.3478
11257TIP3    H255187   0.348   6.312  12.560  1.1699 -0.8776  0.7915
11258TIP3   OH255188   5.825   2.535   2.665  0.3416 -0.3382  0.3263
11258TIP3    H155189   5.736   2.536   2.629 -0.1289 -0.1642  1.4715
11258TIP3    H255190   5.880   2.567   2.593 -0.5777  0.0195 -0.2310
11259TIP3   OH255191   6.298   3.468  13.867  0.5083  0.3895 -0.4659
11259TIP3    H155192   6.261   3.460  13.955  0.2479  1.7951 -0.4365
11259TIP3    H255193   6.241   3.413  13.813  0.8469 -0.7280  0.2651
11260TIP3   OH255194   4.687   2.575   6.081  0.2185  0.5135  0.0105
11260TIP3    H155195   4.683   2.506   6.146 -0.9793 -1.3829 -1.9296
11260TIP3    H255196   4.610   2.629   6.097  0.0329  0.1669  0.2784
11261TIP3   OH255197   2.888   2.664   5.991 -0.2314  0.1483  0.7569
11261TIP3    H155198   2.792   2.661   5.999 -0.2480  0.1374  0.5518
11261TIP3    H255199   2.905   2.743   5.939 -0.2091 -0.6917 -0.5373
11262TIP3   OH255200   0.758   4.266  16.623  0.2348  0.3356  0.4795
11262TIP3    H155201   0.796   4.332  16.681  1.1287  1.8529 -1.6965
11262TIP3    H255202   0.700   4.315  16.565  0.3493 -0.8972 -0.7335
11263TIP3   OH255203   4.510   4.209  12.444 -0.0431 -0.3572  0.2626
11263TIP3    H155204   4.490   4.293  12.486  1.8667  0.4128 -0.2636
11263TIP3    H255205   4.437   4.194  12.383  0.1675  1.5450 -0.5160
11264TIP3   OH255206   4.516   4.131   4.724 -0.4284  0.0020  0.1985
11264TIP3    H155207   4.433   4.147   4.769 -0.1290 -0.6588  1.0043
11264TIP3    H255208   4.496   4.063   4.660 -0.4700 -0.2876  0.5183
11265TIP3   OH255209   2.154   0.127   3.780 -0.1761 -0.0214 -0.2870
11265TIP3    H155210   2.127   0.186   3.850  1.6491 -1.4056  1.7212
11265TIP3    H255211   2.078   0.071   3.765 -0.9158  0.9099 -0.1108
11266TIP3   OH255212   4.592   2.774   4.241 -0.2695  0.8458 -0.1137
11266TIP3    H155213   4.677   2.755   4.203 -0.5877 -1.3508  0.1488
11266TIP3    H255214   4.611   2.802   4.331  0.1805  0.3744 -0.0608
11267TIP3   OH255215   0.731   2.579  12.749 -0.3866  0.3048  0.0938
11267TIP3    H155216   0.703   2.489  12.761  0.4822  0.0476  0.2692
11267TIP3    H255217   0.714   2.598  12.657 -0.7000  0.0112  0.0905
11268TIP3   OH255218   5.935   0.076   5.216  0.3480 -0.0636  0.0758
11268TIP3    H155219   5.853   0.030   5.236 -0.2215  0.8270 -0.1219
11268TIP3    H255220   6.003   0.023   5.258 -0.5709  0.5903  2.6044
11269TIP3   OH255221   3.332   1.072   4.896  0.2237  0.2245  0.0794
11269TIP3    H155222   3.392   1.121   4.839  2.2044 -0.6302  1.3136
11269TIP3    H255223   3.362   0.982   4.891 -2.0959 -0.5891 -0.5624
11270TIP3   OH255224   4.208   2.354  17.219  0.4197 -0.0178 -0.1392
11270TIP3    H155225   4.155   2.423  17.179  0.6696  0.2609  0.0103
11270TIP3    H255226   4.286   2.348  17.165 -0.4316 -1.5123 -1.3061
11271TIP3   OH255227   1.869   4.083  13.131  0.1544 -0.3677  0.5171
11271TIP3    H155228   1.897   4.002  13.172 -0.8364 -0.9174  0.1500
11271TIP3    H255229   1.883   4.069  13.037 -1.5073 -0.7717  0.2889
11272TIP3   OH255230   2.369   0.697   5.765  0.6356  0.3259 -0.0814
11272TIP3    H155231   2.437   0.679   5.829 -0.7797  1.0679  1.7003
11272TIP3    H255232   2.376   0.791   5.747 -0.6242  0.6545  1.0156
11273TIP3   OH255233   5.731   1.011   2.309  0.2021 -0.0166  0.3679
11273TIP3    H155234   5.803   0.953   2.334 -0.1116 -1.4883 -1.8552
11273TIP3    H255235   5.653   0.955   2.311 -0.3101  0.6245 -0.6412
11274TIP3   OH255236   1.928   1.671  12.783  0.0688  0.1367  0.2937
11274TIP3    H155237   1.998   1.689  12.846  0.4997  0.5661 -0.2898
11274TIP3    H255238   1.972   1.625  12.711 -0.6294 -1.3768  0.7990
11275TIP3   OH255239   1.700   4.233   0.448  0.3770  0.1672 -0.0381
11275TIP3    H155240   1.793   4.249   0.461  0.4619  0.5382 -1.0469
11275TIP3    H255241   1.666   4.217   0.537  1.2155  0.9667  0.4419
11276TIP3   OH255242   2.130   5.058  15.553 -0.4717  0.2828 -0.4946
11276TIP3    H155243   2.156   5.080  15.464 -0.0957  0.5302 -0.3258
11276TIP3    H255244   2.036   5.041  15.547 -0.1161 -1.7867 -1.3433
11277TIP3   OH255245   1.623   5.538   4.154 -0.1813  0.0399 -0.0762
11277TIP3    H155246   1.662   5.507   4.073  0.0943 -1.0257  0.4409
11277TIP3    H255247   1.562   5.468   4.179 -0.4477  0.4703  0.5026
11278TIP3   OH255248   4.265   0.497   3.501 -0.5524  0.0837  0.5252
11278TIP3    H155249   4.322   0.437   3.550  0.8739  0.6631 -0.3612
11278TIP3    H255250   4.274   0.581   3.546 -0.6703  0.1873  0.3564
11279TIP3   OH255251   3.060   1.266  14.490 -0.4446  0.2796  0.0453
11279TIP3    H155252   3.006   1.187  14.484 -0.4707  0.4030 -1.7955
11279TIP3    H255253   3.149   1.233  14.499 -0.1766 -0.1039 -2.9135
11280TIP3   OH255254   5.071   0.759   3.886 -0.2160 -0.3804 -0.3716
11280TIP3    H155255   5.158   0.771   3.923  0.2691 -0.5221 -1.4370
11280TIP3    H255256   5.055   0.665   3.893  0.6577 -0.7160 -2.1330
11281TIP3   OH255257   1.404   5.031  14.225  0.2279  0.2806 -0.7111
11281TIP3    H155258   1.495   5.055  14.205 -0.0952  1.2444 -1.0717
11281TIP3    H255259   1.383   4.964  14.159  0.9729 -0.6845 -0.0110
11282TIP3   OH255260   3.766   0.030  14.466 -0.1189 -0.1126  0.0211
11282TIP3    H155261   3.680   0.030  14.424  0.5987 -2.8200 -1.7259
11282TIP3    H255262   3.760  -0.039  14.532  0.8436 -0.7091 -0.4990
11283TIP3   OH255263   2.690   1.556   3.773  0.7125 -0.0950  0.0763
11283TIP3    H155264   2.759   1.576   3.836 -0.2417  0.5729  0.9518
11283TIP3    H255265   2.612   1.541   3.827 -0.1252  0.4514 -0.9450
11284TIP3   OH255266   5.736   5.032  15.189 -0.0814 -0.2297  1.0703
11284TIP3    H155267   5.745   5.080  15.271 -1.8230  0.1425  1.0826
11284TIP3    H255268   5.719   4.942  15.216 -1.0701 -0.0317  1.1569
11285TIP3   OH255269   2.653   4.177  14.784 -0.3485 -0.0162 -0.1830
11285TIP3    H155270   2.634   4.242  14.852 -0.0666 -0.2202  0.0923
11285TIP3    H255271   2.570   4.131  14.772  0.0410 -1.2230  1.3561
11286TIP3   OH255272   1.435   6.084  14.667 -0.3468  0.1622  0.5017
11286TIP3    H155273   1.524   6.093  14.700 -0.1765 -1.0496  0.4138
11286TIP3    H255274   1.395   6.169  14.682  0.9956  0.9075  0.0085
11287TIP3   OH255275   6.554   0.349   4.946 -0.1789 -0.5558  0.2868
11287TIP3    H155276   6.565   0.405   5.023 -0.4386  0.2402 -0.2403
11287TIP3    H255277   6.640   0.308   4.934  0.6583  1.2667 -0.4646
11288TIP3   OH255278   2.627   5.691  16.397  0.2465  0.2009 -0.4067
11288TIP3    H155279   2.636   5.669  16.490  0.6217  0.3385 -0.4068
11288TIP3    H255280   2.574   5.771  16.396  0.5818  0.4250 -0.2863
11289TIP3   OH255281   2.869   5.274  17.119  0.0034 -0.5522  0.4104
11289TIP3    H155282   2.965   5.272  17.120  0.0612 -0.1816 -1.2951
11289TIP3    H255283   2.846   5.344  17.181  0.8202 -0.7513  0.9489
11290TIP3   OH255284   0.683   0.591  15.183  0.1367  0.1018  0.7465
11290TIP3    H155285   0.726   0.657  15.130 -0.9947  0.4292  0.2246
11290TIP3    H255286   0.644   0.639  15.256  0.0387 -0.0928  0.8260
11291TIP3   OH255287   5.423   5.296  11.180 -0.3857 -0.5982 -0.4696
11291TIP3    H155288   5.398   5.211  11.143 -4.1207  0.1863 -0.1261
11291TIP3    H255289   5.340   5.340  11.197  1.3873  2.9680 -0.1454
11292TIP3   OH255290   1.978   0.314   5.323  0.1823  0.5871 -0.3384
11292TIP3    H155291   1.976   0.316   5.418  1.8796 -2.3462 -0.1038
11292TIP3    H255292   1.897   0.269   5.298  0.1834  0.5160 -0.2144
11293TIP3   OH255293   6.294   0.831   5.794  0.7970  0.3642 -0.2600
11293TIP3    H155294   6.349   0.864   5.723 -0.0200  0.4697 -0.8591
11293TIP3    H255295   6.272   0.908   5.846  0.6505  0.4259 -0.4151
11294TIP3   OH255296   3.466   5.919  11.463 -0.8992 -0.4465 -0.2070
11294TIP3    H155297   3.545   5.957  11.424 -1.1411 -1.4904 -1.8047
11294TIP3    H255298   3.499   5.862  11.532 -0.5021  2.0370  1.7965
11295TIP3   OH255299   1.306   4.790   5.440 -0.0525  0.0850  0.0040
11295TIP3    H155300   1.383   4.837   5.471 -0.0423  0.3713 -0.4471
11295TIP3    H255301   1.251   4.857   5.400  0.7231 -0.4933 -2.1965
11296TIP3   OH255302   2.232   5.786   0.606 -0.1623  0.1405 -0.8843
11296TIP3    H155303   2.199   5.746   0.686  0.3693 -1.7569 -1.5535
11296TIP3    H255304   2.328   5.779   0.613 -0.0312  1.5737 -0.9216
11297TIP3   OH255305   1.019   4.937   3.392  0.7003  0.5263 -0.1620
11297TIP3    H155306   0.934   4.980   3.408  0.6559  0.7939 -1.0808
11297TIP3    H255307   0.997   4.860   3.340  1.2456  1.9399 -2.6192
11298TIP3   OH255308   1.077   4.471   2.813  0.5683 -0.6734 -0.1602
11298TIP3    H155309   0.993   4.428   2.799  0.0348  0.3071 -0.1119
11298TIP3    H255310   1.127   4.412   2.869 -0.0604 -1.2928 -0.2491
11299TIP3   OH255311   1.815   2.517   6.377  0.6224  0.1729  0.0752
11299TIP3    H155312   1.766   2.438   6.399 -1.0249  1.4462  1.2502
11299TIP3    H255313   1.748   2.585   6.365  1.7240  0.7751 -4.1861
11300TIP3   OH255314   6.676   2.988   5.296 -0.4249  0.5166  0.5573
11300TIP3    H155315   6.734   3.053   5.334 -1.0720  1.8120 -0.6009
11300TIP3    H255316   6.707   2.904   5.331  1.8323  1.2093  0.3459
11301TIP3   OH255317   2.758   5.456  12.209  0.1483 -0.2834 -0.5713
11301TIP3    H155318   2.683   5.401  12.230  0.1576 -0.0855  0.0110
11301TIP3    H255319   2.720   5.542  12.191  0.0897 -0.5708 -1.9424
11302TIP3   OH255320   3.916   0.337   0.381  0.3787  0.2091 -0.2297
11302TIP3    H155321   3.965   0.256   0.393 -0.0065  0.0577  0.3838
11302TIP3    H255322   3.829   0.318   0.417 -0.3406  0.2698 -1.8591
11303TIP3   OH255323   6.420   2.870  15.321  0.2523  0.1662  0.2937
11303TIP3    H155324   6.396   2.953  15.281  0.5747  0.9214  1.6051
11303TIP3    H255325   6.341   2.843  15.368 -1.2542 -2.3135 -3.2074
11304TIP3   OH255326   0.300   0.261  13.475 -0.4084  0.6221  0.0782
11304TIP3    H155327   0.331   0.171  13.467  0.0393  0.8526 -0.8587
11304TIP3    H255328   0.286   0.272  13.569  0.3034 -0.1715  0.2947
11305TIP3   OH255329   6.099   4.039  11.607  0.4705  0.2784 -0.0275
11305TIP3    H155330   6.173   4.095  11.584  0.9675 -0.6132 -0.6560
11305TIP3    H255331   6.022   4.085  11.572  1.0002 -0.0288 -1.6846
11306TIP3   OH255332   4.070   3.585  16.939 -0.2806 -0.2131 -0.3314
11306TIP3    H155333   4.055   3.648  16.869 -0.5224 -0.0569 -0.1429
11306TIP3    H255334   4.150   3.616  16.982  0.1809 -0.6234 -0.8758
11307TIP3   OH255335   5.635   2.998   1.624  0.1306 -0.1787  0.2440
11307TIP3    H155336   5.687   2.920   1.645 -2.4736 -1.7773  1.1421
11307TIP3    H255337   5.549   2.981   1.662 -0.2246  3.7509  1.6756
11308TIP3   OH255338   2.942   0.787   0.248  0.1563 -0.2051  0.1320
11308TIP3    H155339   3.032   0.767   0.224  0.3602 -2.3622  2.3255
11308TIP3    H255340   2.949   0.853   0.317 -0.0101  0.1570 -0.1910
11309TIP3   OH255341   5.934   0.756  11.861 -0.0009  0.2645 -0.5953
11309TIP3    H155342   5.964   0.708  11.784 -1.5217 -1.1925 -0.3406
11309TIP3    H255343   5.953   0.698  11.934  0.7255  1.3093  0.0772
11310TIP3   OH255344   5.462   6.533  13.056  0.5127  0.0553 -0.6506
11310TIP3    H155345   5.513   6.531  13.136  1.2936  1.3897 -1.0796
11310TIP3    H255346   5.412   6.615  13.061 -0.5693 -0.5827 -0.8434
11311TIP3   OH255347   4.859   1.878  16.475 -0.6875 -0.7647  0.5454
11311TIP3    H155348   4.859   1.973  16.458  0.3649 -0.7352  0.6644
11311TIP3    H255349   4.879   1.840  16.389 -1.2915 -0.8949  0.4590
11312TIP3   OH255350   3.104   4.606  13.912  0.3753 -0.2203 -0.1684
11312TIP3    H155351   3.086   4.512  13.907 -0.0373 -0.1210 -0.5524
11312TIP3    H255352   3.141   4.618  14.000  0.8975 -0.8146 -0.2988
11313TIP3   OH255353   4.005   1.120   2.741 -0.0398  0.6236 -0.3248
11313TIP3    H155354   4.017   1.061   2.667 -0.0709 -0.2924  0.3822
11313TIP3    H255355   3.916   1.103   2.771 -0.1783  1.3016 -0.3392
11314TIP3   OH255356   2.178   1.314   4.478 -0.2517  0.4165  0.1463
11314TIP3    H155357   2.180   1.370   4.401 -0.9703 -0.6446 -0.6728
11314TIP3    H255358   2.095   1.267   4.472  1.5747 -3.0360 -0.9462
11315TIP3   OH255359   0.662   5.208  13.553 -0.0534  0.5869  0.1748
11315TIP3    H155360   0.640   5.199  13.460  1.6570 -1.3506 -0.1213
11315TIP3    H255361   0.725   5.280  13.555 -0.6447  1.1220 -0.0347
11316TIP3   OH255362   5.288   2.324  11.439 -0.9811  0.7139 -0.4129
11316TIP3    H155363   5.278   2.232  11.463 -0.5044  0.7414 -0.1053
11316TIP3    H255364   5.248   2.330  11.352 -0.5093  0.0897 -0.6837
11317TIP3   OH255365   1.714   2.854  13.973  0.0963  0.3438 -0.1214
11317TIP3    H155366   1.694   2.761  13.964  0.5910  0.1899  0.3518
11317TIP3    H255367   1.629   2.898  13.962 -0.1282 -0.1562 -0.3992
11318TIP3   OH255368   0.474   0.568  11.351  0.1351 -0.1214  0.5198
11318TIP3    H155369   0.563   0.584  11.380 -0.0989 -0.1893  1.2839
11318TIP3    H255370   0.437   0.656  11.335 -0.2873  0.0196  2.1193
11319TIP3   OH255371   5.860   4.711  13.242 -0.4405  0.3006 -0.7903
11319TIP3    H155372   5.886   4.690  13.153  0.4529  0.7451 -0.6397
11319TIP3    H255373   5.912   4.787  13.266  0.9663 -1.0774  0.8617
11320TIP3   OH255374   4.114   4.209   1.559  0.3643 -0.1540  0.1780
11320TIP3    H155375   4.070   4.132   1.593  0.3534  0.3347  1.3236
11320TIP3    H255376   4.043   4.271   1.540  0.4192 -0.1769 -0.1171
11321TIP3   OH255377   6.478   5.751   0.470 -0.3817  0.0818 -0.1562
11321TIP3    H155378   6.458   5.680   0.409 -1.3583  0.5445 -0.3959
11321TIP3    H255379   6.409   5.817   0.454 -0.1904  0.5583  0.8856
11322TIP3   OH255380   0.152   1.747  16.756  0.2191 -0.1162 -0.2271
11322TIP3    H155381   0.241   1.741  16.789  0.3680 -0.1886 -0.6349
11322TIP3    H255382   0.153   1.698  16.673  0.1689  1.0887 -0.9654
11323TIP3   OH255383   1.202   2.728   2.772 -0.5721 -0.3701 -0.3810
11323TIP3    H155384   1.261   2.788   2.726  0.6676 -1.0064  0.3211
11323TIP3    H255385   1.207   2.754   2.863 -1.9891  0.0418 -0.4066
11324TIP3   OH255386   4.089   5.172   3.162  0.2022  0.7598  0.3406
11324TIP3    H155387   4.075   5.124   3.243  0.2611  0.9557  0.4661
11324TIP3    H255388   4.008   5.158   3.112  0.4960 -0.0336  0.0870
11325TIP3   OH255389   6.769   3.417  10.817 -0.2883  0.1335  0.1312
11325TIP3    H155390   6.752   3.339  10.763  3.1599 -0.4350 -0.3637
11325TIP3    H255391   6.754   3.388  10.907  0.2255 -0.9154 -0.1060
11326TIP3   OH255392   4.721   2.687   5.759 -0.0510  0.4160  0.1846
11326TIP3    H155393   4.653   2.642   5.709  1.6462 -1.8051 -0.2683
11326TIP3    H255394   4.797   2.686   5.701  1.1687  0.2975  1.7429
11327TIP3   OH255395   3.378   1.251  13.822 -0.3643  0.4813  0.4282
11327TIP3    H155396   3.338   1.276  13.906  0.2513 -1.0473  1.2042
11327TIP3    H255397   3.333   1.170  13.797  1.3428 -0.5856  0.6923
11328TIP3   OH255398   5.097   0.855   3.617  0.1961  0.2587  0.0075
11328TIP3    H155399   5.123   0.830   3.706 -0.6981  1.0033  0.4836
11328TIP3    H255400   5.166   0.914   3.587  1.6416 -1.6449 -0.6334
11329TIP3   OH255401   6.593   6.671  14.982  0.6155  0.0643 -0.2016
11329TIP3    H155402   6.531   6.732  15.021  0.1575 -0.3294 -0.3055
11329TIP3    H255403   6.629   6.717  14.907  0.1880  0.1625 -0.3467
11330TIP3   OH255404   4.642   1.904  12.546  0.3104 -0.2519  0.2444
11330TIP3    H155405   4.706   1.881  12.479  1.6529 -1.5096  1.8706
11330TIP3    H255406   4.675   1.987  12.582 -0.6079  0.6134 -0.8327
11331TIP3   OH255407   4.403   6.630  12.857  0.1545  0.3599  0.2067
11331TIP3    H155408   4.434   6.718  12.834  0.4106  0.4640  0.9317
11331TIP3    H255409   4.438   6.574  12.787  1.3663  0.5920  0.6018
11332TIP3   OH255410   6.038   0.417   1.414 -0.5026  0.3692 -0.3017
11332TIP3    H155411   6.036   0.447   1.505  0.4778  3.0663 -1.0627
11332TIP3    H255412   6.130   0.429   1.387 -0.2476 -2.5747 -1.0368
11333TIP3   OH255413   5.256   4.497   2.340  0.4202 -0.2235 -0.4441
11333TIP3    H155414   5.267   4.468   2.431  0.5725 -0.8800 -0.6660
11333TIP3    H255415   5.192   4.436   2.303  0.9712 -0.4820 -1.0043
11334TIP3   OH255416   4.752   4.738  11.032 -0.2525  0.8256  0.2752
11334TIP3    H155417   4.760   4.808  10.968  0.5589  1.0349  0.5898
11334TIP3    H255418   4.841   4.705  11.043 -0.6267 -0.2792  0.1153
11335TIP3   OH255419   4.043   6.414   0.617 -0.1762 -0.6051 -0.5428
11335TIP3    H155420   4.012   6.504   0.622 -0.4837 -0.5732 -2.4195
11335TIP3    H255421   4.085   6.398   0.702  2.0277  2.0790 -0.9998
11336TIP3   OH255422   2.744   4.190   5.027 -0.2405  0.3458 -0.7731
11336TIP3    H155423   2.830   4.167   5.062  1.1523  2.7386 -2.3113
11336TIP3    H255424   2.722   4.119   4.967  1.1067  0.0903 -0.9990
11337TIP3   OH255425   3.693   3.054   1.116  0.6540  0.0536  0.2941
11337TIP3    H155426   3.742   2.978   1.149  2.2696  1.5222  1.4513
11337TIP3    H255427   3.621   3.064   1.178 -0.9446 -1.8017 -1.1225
11338TIP3   OH255428   2.237   1.241  10.786 -0.2670  0.3777 -0.9417
11338TIP3    H155429   2.308   1.184  10.758 -0.4477 -0.3242 -0.0226
11338TIP3    H255430   2.158   1.188  10.775 -0.1768 -0.8485  2.9362
11339TIP3   OH255431   3.848   4.668   5.261 -0.4604 -0.0093 -0.2304
11339TIP3    H155432   3.839   4.756   5.225 -0.4475  0.0610 -0.0652
11339TIP3    H255433   3.868   4.612   5.186 -2.9700 -0.3079 -0.7644
11340TIP3   OH255434   5.935   0.543  12.321  0.3855  0.1211 -0.1737
11340TIP3    H155435   5.966   0.611  12.380 -0.8526  1.3114 -0.8331
11340TIP3    H255436   5.952   0.461  12.367 -0.7219  1.0118  1.9393
11341TIP3   OH255437   4.312   6.079   5.650 -0.2075 -0.5274 -0.6778
11341TIP3    H155438   4.261   6.046   5.723 -0.8567 -1.4508 -1.5179
11341TIP3    H255439   4.391   6.024   5.649  0.3235  0.2053 -0.0213
11342TIP3   OH255440   0.378   2.890  12.243 -0.3793  0.5530 -0.5533
11342TIP3    H155441   0.344   2.802  12.254  0.1559  0.5589  1.6861
11342TIP3    H255442   0.312   2.935  12.190 -1.4940 -0.7176 -0.3016
11343TIP3   OH255443   6.288   0.273  13.883 -0.3950  0.3500  0.1652
11343TIP3    H155444   6.217   0.303  13.940 -0.0679  0.1505  0.6871
11343TIP3    H255445   6.368   0.306  13.925 -0.2683  2.5365 -1.5958
11344TIP3   OH255446   2.837   1.785  12.299 -0.1818  0.1552 -0.2763
11344TIP3    H155447   2.795   1.726  12.362  0.2606  1.0917  0.9245
11344TIP3    H255448   2.919   1.742  12.277  0.2513  0.4064  0.7828
11345TIP3   OH255449   1.021   4.638  16.965  0.5055 -0.3550 -0.0180
11345TIP3    H155450   1.053   4.661  16.878  0.5751  2.0700  0.5519
11345TIP3    H255451   1.099   4.606  17.011  0.8420 -0.0878 -0.3879
11346TIP3   OH255452   2.201   6.470   6.015  0.2868  0.2907  0.2125
11346TIP3    H155453   2.133   6.421   5.969  0.5306  0.1719 -0.0228
11346TIP3    H255454   2.216   6.422   6.096 -1.1075  1.2325  1.0723
11347TIP3   OH255455   6.289   4.960  15.723  0.6628  0.4227  0.7528
11347TIP3    H155456   6.268   4.953  15.816  1.0981  3.7205  1.2250
11347TIP3    H255457   6.205   4.982  15.681  0.7532  0.5755  0.6472
11348TIP3   OH255458   6.374   6.177  12.242  0.2655 -0.2377  0.4006
11348TIP3    H155459   6.428   6.207  12.315  2.0414 -1.0771 -0.5050
11348TIP3    H255460   6.326   6.101  12.276  0.0773  0.1633  1.0445
11349TIP3   OH255461   1.662   2.795   4.335  0.1677  0.1783 -0.0420
11349TIP3    H155462   1.709   2.831   4.410 -1.3941  1.2070  0.5016
11349TIP3    H255463   1.727   2.795   4.264  1.0141  1.4399  0.6909
11350TIP3   OH255464   3.126   3.644  15.582 -0.6163  0.2038 -0.3609
11350TIP3    H155465   3.054   3.585  15.559 -0.3113 -0.5510  0.5697
11350TIP3    H255466   3.097   3.688  15.662  0.0201 -0.2389  0.1219
11351TIP3   OH255467   5.602   4.014  17.086  0.0180 -0.4140 -0.5887
11351TIP3    H155468   5.576   4.106  17.095  0.5764 -0.1564 -1.4199
11351TIP3    H255469   5.629   3.988  17.174 -0.4998  0.1056 -0.2656
11352TIP3   OH255470   5.220   4.700  15.960 -0.5826 -0.0080 -0.3643
11352TIP3    H155471   5.231   4.769  16.025 -2.0626  1.4856 -1.6349
11352TIP3    H255472   5.206   4.620  16.011 -2.1382  1.1894  1.1656
11353TIP3   OH255473   6.327   2.244  16.106 -0.2745  0.1582 -0.9218
11353TIP3    H155474   6.246   2.261  16.057 -0.3839 -0.7227 -1.0621
11353TIP3    H255475   6.375   2.327  16.103 -0.3275  0.1519 -2.4329
11354TIP3   OH255476   0.603   5.251  11.318 -0.1008  0.0136 -0.3092
11354TIP3    H155477   0.638   5.186  11.378  0.3720 -0.2107 -0.8168
11354TIP3    H255478   0.672   5.265  11.253 -1.1935 -1.0311 -1.7949
11355TIP3   OH255479   5.429   1.321  13.572  0.3768  0.2036  0.0084
11355TIP3    H155480   5.392   1.262  13.638 -0.6718 -0.3194 -1.0055
11355TIP3    H255481   5.491   1.267  13.524  1.1476  0.5874  0.5509
11356TIP3   OH255482   0.734   0.778  12.609  0.0188  0.4006 -0.3409
11356TIP3    H155483   0.779   0.716  12.666 -1.2587 -0.4339 -0.1875
11356TIP3    H255484   0.778   0.861  12.624  0.5651 -0.0776  0.8591
11357TIP3   OH255485   1.934   4.363  13.201  0.3527 -0.2582  0.7837
11357TIP3    H155486   1.893   4.285  13.165 -0.5406  1.2338 -1.7422
11357TIP3    H255487   1.981   4.333  13.279 -0.7963 -3.0700  0.4895
11358TIP3   OH255488   1.958   4.716  16.896 -0.4206 -0.0476  0.6929
11358TIP3    H155489   1.904   4.663  16.954 -0.0909 -1.9091 -0.5968
11358TIP3    H255490   1.921   4.804  16.901 -2.7332 -0.9646  0.8822
11359TIP3   OH255491   3.283   4.900  16.557  0.5313 -0.7835 -0.0503
11359TIP3    H155492   3.352   4.836  16.575 -0.3308 -1.9113 -0.6220
11359TIP3    H255493   3.203   4.848  16.554 -0.5926  0.6990  2.1157
11360TIP3   OH255494   0.979   2.205   3.339 -0.2469 -0.3983 -0.4220
11360TIP3    H155495   0.886   2.219   3.324 -0.3012  1.4277  1.2357
11360TIP3    H255496   1.022   2.255   3.269 -0.5451  1.2383  0.4956
11361TIP3   OH255497   0.498   0.993  12.379  0.4514 -0.5771 -0.0950
11361TIP3    H155498   0.567   1.058  12.370 -0.1640 -0.1335 -2.2484
11361TIP3    H255499   0.480   0.989  12.473  0.5416  2.3138  0.1262
11362TIP3   OH255500   1.043   3.646  16.134  0.3279  0.3047 -0.0405
11362TIP3    H155501   0.957   3.633  16.093 -0.2425 -1.0326  1.4958
11362TIP3    H255502   1.106   3.611  16.070 -0.3545  0.2628 -0.6999
11363TIP3   OH255503   4.615   3.073   6.439  0.4078  0.1077  0.1468
11363TIP3    H155504   4.538   3.123   6.410  0.5755 -0.3187 -1.0869
11363TIP3    H255505   4.646   3.120   6.517 -1.6171 -0.2140  1.2319
11364TIP3   OH255506   1.007   0.945   5.165 -0.3402  0.5872 -0.6212
11364TIP3    H155507   1.006   0.976   5.075 -1.5320  1.2451 -0.3926
11364TIP3    H255508   0.917   0.957   5.196 -0.3834 -1.3021  0.0908
11365TIP3   OH255509   6.684   2.750  14.003  0.2567  0.1459 -0.4490
11365TIP3    H155510   6.661   2.747  13.910 -2.8815  0.9647  0.2005
11365TIP3    H255511   6.745   2.823  14.010  1.6647 -0.8006 -2.0062
11366TIP3   OH255512   4.737   4.863  16.466 -0.2013 -0.3142  0.6648
11366TIP3    H155513   4.797   4.790  16.482  1.3183  0.0563 -2.5227
11366TIP3    H255514   4.780   4.939  16.506 -1.3872 -0.9161  3.2635
11367TIP3   OH255515   5.753   4.884   2.434 -0.4126  0.2236  0.5206
11367TIP3    H155516   5.787   4.832   2.506  1.1853  0.1057 -0.2695
11367TIP3    H255517   5.659   4.867   2.434 -0.4756  0.3886  2.6758
11368TIP3   OH255518   1.358   4.827  14.865  0.3334  0.0151 -0.0692
11368TIP3    H155519   1.445   4.855  14.838  0.1126  0.2301 -0.5809
11368TIP3    H255520   1.341   4.747  14.814 -0.2217  0.6090 -0.8390
11369TIP3   OH255521   3.137   3.954   0.111  0.3805 -0.0152 -0.2511
11369TIP3    H155522   3.155   4.033   0.163  1.4063 -1.0770  1.0477
11369TIP3    H255523   3.069   3.908   0.160 -0.2004  0.0066 -0.9991
11370TIP3   OH255524   6.591   3.721  15.645 -0.0245 -0.0294 -0.2206
11370TIP3    H155525   6.627   3.779  15.577  0.6583 -0.7293 -0.4627
11370TIP3    H255526   6.666   3.698  15.699 -0.5491  0.4571  0.7495
11371TIP3   OH255527   5.571   1.972   1.869 -0.5991  0.2914 -0.1551
11371TIP3    H155528   5.542   1.989   1.779 -0.7938  3.0023  0.3294
11371TIP3    H255529   5.619   2.052   1.893  1.3984 -1.2847  1.4047
11372TIP3   OH255530   4.117   6.625   2.788  0.0196 -0.3211  0.4628
11372TIP3    H155531   4.091   6.687   2.856 -0.7421  1.3204 -1.2316
11372TIP3    H255532   4.034   6.592   2.752  0.3811 -0.5881 -0.1485
11373TIP3   OH255533   0.986   5.291   4.968 -0.4828  0.5622  0.4299
11373TIP3    H155534   0.988   5.365   4.907  0.1101  0.6314  0.5297
11373TIP3    H255535   0.899   5.253   4.956 -0.2214  0.2909 -0.8143
11374TIP3   OH255536   2.240   6.093  11.241  0.4353 -0.3470 -0.0732
11374TIP3    H155537   2.335   6.084  11.254  0.6820 -0.7515 -1.8693
11374TIP3    H255538   2.231   6.162  11.176 -0.5210 -0.2920  0.1064
11375TIP3   OH255539   2.069   2.721   4.527  0.4030  0.1197 -0.0798
11375TIP3    H155540   2.134   2.668   4.573  1.1103  0.3553 -0.7668
11375TIP3    H255541   2.092   2.811   4.550  0.4166  0.2105 -0.4400
11376TIP3   OH255542   2.240   6.400   0.336 -0.2461 -0.4803 -0.2016
11376TIP3    H155543   2.155   6.408   0.378 -0.5758 -2.7524 -0.3088
11376TIP3    H255544   2.238   6.314   0.293  2.5330 -1.1674  0.8435
11377TIP3   OH255545   4.763   4.370  12.629 -0.4534 -0.4729 -0.1867
11377TIP3    H155546   4.768   4.445  12.688  1.3854  0.3198 -1.2856
11377TIP3    H255547   4.669   4.355  12.618 -0.8470  0.5359  1.4304
11378TIP3   OH255548   3.901   6.070   2.996  0.2866 -0.3691 -0.0885
11378TIP3    H155549   3.903   5.976   3.012 -0.7114 -0.7942 -2.1864
11378TIP3    H255550   3.964   6.084   2.925  3.1674  1.1452  2.5105
11379TIP3   OH255551   1.059   5.390  11.845 -0.5568 -0.2502 -0.1594
11379TIP3    H155552   1.058   5.395  11.940 -0.1081  0.5537 -0.1880
11379TIP3    H255553   1.140   5.344  11.824 -1.0558 -1.1756 -0.1429
11380TIP3   OH255554   4.299   2.405   5.301  0.3510  0.1613 -0.6403
11380TIP3    H155555   4.370   2.353   5.339  0.0319 -0.2094 -0.5473
11380TIP3    H255556   4.304   2.387   5.207 -0.3431 -0.7791 -0.5099
11381TIP3   OH255557   3.528   2.296  11.490  0.4610  0.5438  0.0477
11381TIP3    H155558   3.465   2.340  11.546  1.0708  2.7325 -0.8705
11381TIP3    H255559   3.560   2.365  11.431 -0.8075 -1.7127 -3.6430
11382TIP3   OH255560   5.779   1.413  11.812 -0.8703  0.6493  0.0356
11382TIP3    H155561   5.773   1.317  11.818 -1.2277  0.7173  1.0686
11382TIP3    H255562   5.691   1.443  11.833 -1.0146  1.1917 -1.2457
11383TIP3   OH255563   5.987   0.052  14.387  0.1778  0.4598  0.8246
11383TIP3    H155564   5.978   0.100  14.469 -0.7850  0.7208  0.5760
11383TIP3    H255565   5.907  -0.001  14.381 -0.4164  1.4511 -0.5822
11384TIP3   OH255566   1.211   6.666   1.340 -0.1569  0.3836  0.1628
11384TIP3    H155567   1.167   6.656   1.256  0.9370  0.4782 -0.4441
11384TIP3    H255568   1.270   6.590   1.345  1.5097  1.5882 -0.2675
11385TIP3   OH255569   5.796   0.783  15.017 -0.3248 -0.2691  0.7343
11385TIP3    H155570   5.836   0.755  14.935 -0.0684 -1.1819  1.1713
11385TIP3    H255571   5.862   0.768  15.084 -0.6645  0.1319  1.1738
11386TIP3   OH255572   0.301   3.928  15.479 -0.2807 -0.0663 -0.3564
11386TIP3    H155573   0.330   3.971  15.399 -0.0236  2.7512  1.1123
11386TIP3    H255574   0.235   3.988  15.515 -0.4565 -1.2977  1.4923
11387TIP3   OH255575   3.474   0.825   4.883  0.0555  0.8989  0.1956
11387TIP3    H155576   3.459   0.792   4.795 -1.2645  2.1720 -0.1023
11387TIP3    H255577   3.569   0.831   4.891  0.2023  0.1159 -0.8761
11388TIP3   OH255578   3.425   1.115  16.319  0.0780  0.0522  0.1804
11388TIP3    H155579   3.456   1.044  16.376  0.8881  0.3106  0.0754
11388TIP3    H255580   3.342   1.142  16.358 -0.0532 -0.6923  0.4452
11389TIP3   OH255581   4.874   3.849   2.881  0.4422  0.2296 -0.2604
11389TIP3    H155582   4.943   3.838   2.947 -1.2377 -1.2029  1.3394
11389TIP3    H255583   4.793   3.856   2.931 -0.8360 -0.2746 -2.1602
11390TIP3   OH255584   2.201   2.193   1.901 -0.2384 -0.0510 -0.3485
11390TIP3    H155585   2.153   2.113   1.923 -0.3135 -0.6203 -2.3665
11390TIP3    H255586   2.281   2.161   1.859  0.7862  0.9335  0.7936
11391TIP3   OH255587   2.362   5.121   1.533 -0.1542 -0.1453  0.3935
11391TIP3    H155588   2.333   5.154   1.448  1.6151 -0.8049 -0.5317
11391TIP3    H255589   2.433   5.060   1.511 -0.8180 -1.6730  2.2627
11392TIP3   OH255590   2.330   3.463   2.114 -0.3663  0.4843  0.6635
11392TIP3    H155591   2.248   3.481   2.068  0.4965 -0.9903 -1.6754
11392TIP3    H255592   2.306   3.407   2.187 -1.3441 -1.2555 -0.9094
11393TIP3   OH255593   0.741   0.531  14.602 -0.3842  0.1612 -0.1942
11393TIP3    H155594   0.802   0.457  14.605  0.1069  0.5488 -0.4923
11393TIP3    H255595   0.655   0.490  14.609 -0.0631 -0.2748  1.7680
11394TIP3   OH255596   5.749   2.672  11.644  0.1074  0.2133 -0.5318
11394TIP3    H155597   5.780   2.588  11.676 -0.2522  1.1781  2.6724
11394TIP3    H255598   5.825   2.710  11.599  0.6648 -1.2390 -0.8585
11395TIP3   OH255599   4.164   1.162  15.297 -0.5194 -0.4197 -0.7819
11395TIP3    H155600   4.199   1.173  15.208 -0.8668 -0.0814 -0.8781
11395TIP3    H255601   4.071   1.142  15.283 -1.3537  2.7837 -0.4147
11396TIP3   OH255602   0.151   3.682   5.520  0.3325 -0.2615  0.5041
11396TIP3    H155603   0.071   3.730   5.501  1.5377  3.1541  3.0216
11396TIP3    H255604   0.217   3.721   5.462  0.4791 -2.3817 -0.8754
11397TIP3   OH255605   0.742   6.295   4.734  0.2070  0.9878 -0.8269
11397TIP3    H155606   0.738   6.343   4.651 -1.6742  2.2179 -0.0912
11397TIP3    H255607   0.802   6.346   4.788  0.2738  1.0212 -0.9316
11398TIP3   OH255608   0.102   3.156   5.668 -0.0370  0.8710  0.2984
11398TIP3    H155609   0.136   3.134   5.755  1.8815 -2.2269 -1.0575
11398TIP3    H255610   0.172   3.207   5.628  0.7453 -0.8117 -0.5938
11399TIP3   OH255611   1.298   1.315  15.640 -0.2667  0.0003  0.1092
11399TIP3    H155612   1.375   1.371  15.651  0.3759 -1.0588  1.3716
11399TIP3    H255613   1.293   1.299  15.546  1.9237 -1.0158  0.1086
11400TIP3   OH255614   1.658   6.586  11.812 -0.0675 -0.3436 -0.5430
11400TIP3    H155615   1.615   6.626  11.887  1.2541  3.4690 -1.5663
11400TIP3    H255616   1.742   6.555  11.846 -1.1523 -2.5658  0.2909
11401TIP3   OH255617   6.201   3.204  14.937  0.3064 -0.2730 -0.3346
11401TIP3    H155618   6.170   3.262  14.868  1.0464  0.2389 -0.2418
11401TIP3    H255619   6.208   3.259  15.015 -2.7346 -1.3057  0.8124
11402TIP3   OH255620   5.819   5.190   5.862  0.3635 -0.1774  0.8223
11402TIP3    H155621   5.766   5.234   5.796  0.5728 -0.5564  0.3965
11402TIP3    H255622   5.776   5.212   5.945 -0.2185 -0.1412  0.5205
11403TIP3   OH255623   1.076   0.174   3.309 -0.1575  0.2423 -0.6144
11403TIP3    H155624   1.121   0.138   3.233 -0.7240 -0.9073 -0.4202
11403TIP3    H255625   1.118   0.259   3.323  2.2022 -0.9095 -0.2307
11404TIP3   OH255626   1.278   1.799  11.555  0.2143 -0.3333 -0.1643
11404TIP3    H155627   1.245   1.713  11.581 -1.1433  0.8658  2.4772
11404TIP3    H255628   1.205   1.840  11.509 -0.0377  0.2968  0.7800
11405TIP3   OH255629   1.157   0.261   4.181  0.7193 -0.1082  0.0791
11405TIP3    H155630   1.215   0.335   4.197  1.6903 -0.2648 -2.3671
11405TIP3    H255631   1.069   0.295   4.197  1.2949  0.7827  1.5772
11406TIP3   OH255632   4.997   2.003  15.515  0.3418  0.5048  0.5523
11406TIP3    H155633   4.941   1.952  15.574  3.3036 -0.8062  2.4971
11406TIP3    H255634   5.019   2.082  15.565 -0.3008  1.3788 -0.4902
11407TIP3   OH255635   6.724   1.659  13.203 -0.0975 -0.1203  0.0074
11407TIP3    H155636   6.815   1.689  13.199  0.5057 -1.6429  1.0237
11407TIP3    H255637   6.673   1.731  13.166  1.5771  0.4701 -1.3047
11408TIP3   OH255638   3.963   0.477  17.041  0.0382 -0.3225  0.4826
11408TIP3    H155639   3.937   0.528  16.965 -0.0643 -0.7016  0.2603
11408TIP3    H255640   3.971   0.541  17.112 -0.2817 -0.0288  0.2540
11409TIP3   OH255641   3.234   1.044  14.804 -0.2995 -0.3944 -0.3853
11409TIP3    H155642   3.179   1.105  14.855 -0.6758 -1.0613  0.0252
11409TIP3    H255643   3.315   1.093  14.789  0.5586 -0.7459  2.3886
11410TIP3   OH255644   3.970   0.123  12.536 -0.2669  0.2929 -0.4744
11410TIP3    H155645   3.942   0.040  12.575  0.6601  0.4640  0.6094
11410TIP3    H255646   3.981   0.104  12.443  0.0644 -0.8226 -0.2196
11411TIP3   OH255647   2.388   6.695   1.393  0.1475  0.4020  0.8474
11411TIP3    H155648   2.363   6.707   1.485  0.1473 -0.7279  1.0099
11411TIP3    H255649   2.371   6.603   1.375  2.3957  0.0085  0.4055
11412TIP3   OH255650   6.736   4.821   2.694  0.0177  0.7483 -0.4288
11412TIP3    H155651   6.745   4.836   2.600 -0.5270 -1.5800 -0.9098
11412TIP3    H255652   6.647   4.847   2.714  0.3908  2.0403 -0.3551
11413TIP3   OH255653   1.852   5.142   5.666  0.2089 -0.1765  0.0634
11413TIP3    H155654   1.814   5.165   5.751 -0.1030 -0.9756  0.1483
11413TIP3    H255655   1.944   5.164   5.674 -0.0542  0.9093  0.1792
11414TIP3   OH255656   2.222   2.163   2.924  0.3771  0.0563 -0.2591
11414TIP3    H155657   2.265   2.089   2.968 -0.9936  0.0147  1.0997
11414TIP3    H255658   2.286   2.234   2.927  0.9348 -0.4599  0.2930
11415TIP3   OH255659   1.211   0.311   0.891  0.7788  0.0477  0.3098
11415TIP3    H155660   1.126   0.340   0.859  1.0949  0.7324  0.0714
11415TIP3    H255661   1.193   0.273   0.978 -0.1091 -1.9911 -0.6987
11416TIP3   OH255662   3.296   2.719  14.493  0.4882 -0.1175 -0.1955
11416TIP3    H155663   3.355   2.661  14.542  3.3791  0.8093 -2.3033
11416TIP3    H255664   3.281   2.673  14.411 -1.1039  0.0685 -0.0295
11417TIP3   OH255665   1.065   1.977  13.056 -0.1571 -0.0417 -0.3733
11417TIP3    H155666   1.114   1.900  13.028  0.4985 -0.0989  0.8656
11417TIP3    H255667   0.985   1.942  13.095 -0.6082 -0.0053 -1.2391
11418TIP3   OH255668   1.375   3.488  12.003 -0.6040 -0.0526 -0.4746
11418TIP3    H155669   1.355   3.450  12.089  1.2167  1.5182  0.7206
11418TIP3    H255670   1.344   3.578  12.009 -0.2593  0.1390 -1.4131
11419TIP3   OH255671   2.762   1.049   1.326  0.2767  0.1752 -0.4723
11419TIP3    H155672   2.729   1.111   1.260 -0.1106  0.7443  0.2383
11419TIP3    H255673   2.789   1.105   1.399  1.9663 -0.3407 -0.6474
11420TIP3   OH255674   3.308   2.986   5.448 -0.1829  0.1576 -0.2985
11420TIP3    H155675   3.367   3.049   5.488  0.9035 -1.7299  1.2641
11420TIP3    H255676   3.338   2.980   5.357  0.7597  0.6983 -0.0401
11421TIP3   OH255677   6.753   2.235  16.965  0.5091  0.5674  0.5713
11421TIP3    H155678   6.740   2.310  16.907  0.1503  0.4236  0.4641
11421TIP3    H255679   6.771   2.162  16.906 -0.4448  0.2919  0.5897
11422TIP3   OH255680   3.274   4.607  16.773 -0.0236 -0.7340  0.0715
11422TIP3    H155681   3.310   4.592  16.686 -0.8272  0.4701 -0.5097
11422TIP3    H255682   3.321   4.547  16.831  2.2463  0.1318 -0.7873
11423TIP3   OH255683   4.832   1.674  16.678 -0.5993 -0.2369 -0.5051
11423TIP3    H155684   4.842   1.749  16.619  1.3944  0.7831  1.0205
11423TIP3    H255685   4.782   1.708  16.752  1.2280 -0.0475  0.6937
11424TIP3   OH255686   4.968   0.822  10.511 -0.1389  0.1763 -0.2495
11424TIP3    H155687   4.931   0.751  10.564  1.0403  0.5494  1.1327
11424TIP3    H255688   4.893   0.878  10.490 -1.2379 -1.8491 -2.0499
11425TIP3   OH255689   3.324   3.903  11.396  0.3988  0.2854  0.5349
11425TIP3    H155690   3.314   3.818  11.353 -0.1348  0.0897  1.0172
11425TIP3    H255691   3.337   3.965  11.325 -0.4689 -0.0304  0.0871
11426TIP3   OH255692   0.966   2.597   2.719  0.1373  0.5670 -0.3209
11426TIP3    H155693   0.970   2.506   2.748 -0.6571  0.3098 -0.9850
11426TIP3    H255694   1.055   2.630   2.733 -0.0682  0.3273  1.8747
11427TIP3   OH255695   2.687   1.353  13.954 -0.4744 -0.0935 -0.3612
11427TIP3    H155696   2.678   1.281  13.893 -2.8152  0.6114 -0.9537
11427TIP3    H255697   2.738   1.317  14.027  0.4148 -1.6075 -1.6761
11428TIP3   OH255698   0.765   2.949   1.475  0.2854 -0.2430 -0.3468
11428TIP3    H155699   0.679   2.986   1.456  0.2629 -0.5503 -0.8671
11428TIP3    H255700   0.768   2.943   1.570 -0.2922 -0.2923 -0.3266
11429TIP3   OH255701   0.431   5.180  17.196 -0.4071  0.3746 -0.5205
11429TIP3    H155702   0.432   5.143  17.284 -2.1030 -0.1312 -0.6892
11429TIP3    H255703   0.489   5.123  17.145 -0.3160  0.0005 -0.0057
11430TIP3   OH255704   6.009   6.469   2.357  0.0716 -0.7127 -0.4083
11430TIP3    H155705   5.995   6.504   2.445 -0.7857 -0.0162 -0.7948
11430TIP3    H255706   6.068   6.395   2.369 -0.1691 -0.7318  0.7695
11431TIP3   OH255707   0.779   1.420   3.817  0.1722 -0.0540 -0.1066
11431TIP3    H155708   0.702   1.390   3.767  0.6824  0.9561 -1.5777
11431TIP3    H255709   0.781   1.514   3.803  0.3579  0.2713  1.8872
11432TIP3   OH255710   1.044   0.840   2.696  0.0560 -0.0767 -0.1013
11432TIP3    H155711   1.133   0.867   2.715  1.0606 -3.3463  0.5094
11432TIP3    H255712   1.028   0.869   2.606  1.3858  1.2927  0.0774
11433TIP3   OH255713   1.524   4.667   1.060  0.3437 -0.6966 -0.4423
11433TIP3    H155714   1.563   4.662   1.148  0.3597 -0.1594 -0.4170
11433TIP3    H255715   1.598   4.654   1.001  0.4947 -0.1042 -0.3876
11434TIP3   OH255716   1.535   0.250  15.038 -0.8410 -0.2610 -0.2948
11434TIP3    H155717   1.527   0.342  15.014  1.3144  0.7838  2.5413
11434TIP3    H255718   1.463   0.236  15.101  0.1911  0.1910  1.0254
11435TIP3   OH255719   1.744   5.374  12.423  0.2038  0.1726 -0.0605
11435TIP3    H155720   1.701   5.454  12.454  0.7690  0.3158  0.3526
11435TIP3    H255721   1.830   5.403  12.393  1.1310 -0.5582  1.8025
11436TIP3   OH255722   2.947   2.447  14.910 -0.0738  0.1889  0.0122
11436TIP3    H155723   3.035   2.482  14.897 -0.0164 -0.2680 -0.8860
11436TIP3    H255724   2.893   2.523  14.927  0.5284  0.4577  0.7971
11437TIP3   OH255725   6.568   3.783   4.368 -0.1403 -0.2557 -0.3143
11437TIP3    H155726   6.580   3.688   4.359  1.2703 -0.0502 -0.8630
11437TIP3    H255727   6.593   3.802   4.459 -1.4300 -0.5308  0.1160
11438TIP3   OH255728   0.939   2.450  15.374  0.0895  0.0555  0.0989
11438TIP3    H155729   0.932   2.531  15.425  1.9085  0.4977 -0.2868
11438TIP3    H255730   1.010   2.401  15.415 -1.1123 -1.4833  0.4508
11439TIP3   OH255731   0.931   4.914   0.547 -0.3613  0.3172 -0.2228
11439TIP3    H155732   0.878   4.892   0.623  2.3564 -0.3553  1.6202
11439TIP3    H255733   0.893   4.994   0.513 -2.2244  0.1335  1.2553
11440TIP3   OH255734   4.107   0.115   0.560  0.0602 -0.0661  0.0022
11440TIP3    H155735   4.176   0.050   0.575 -0.8961 -0.8871  0.9773
11440TIP3    H255736   4.124   0.183   0.625  0.1789 -0.0818 -0.0127
11441TIP3   OH255737   3.299   5.222  11.604  0.3573 -0.1892  0.4679
11441TIP3    H155738   3.375   5.183  11.647 -0.1664 -0.0406  1.5410
11441TIP3    H255739   3.336   5.277  11.535  1.2084 -0.3993  0.7497
11442TIP3   OH255740   2.727   3.465  12.943  0.8517 -0.2226  0.0917
11442TIP3    H155741   2.821   3.481  12.952  0.6396  1.8069 -0.7497
11442TIP3    H255742   2.686   3.544  12.979 -0.5239 -0.9567  0.1901
11443TIP3   OH255743   0.911   1.354  14.463 -0.1227  0.2375  0.8078
11443TIP3    H155744   0.958   1.271  14.476 -0.9531 -0.5337 -0.7874
11443TIP3    H255745   0.980   1.420  14.455  0.7093 -0.7292 -0.5140
11444TIP3   OH255746   3.532   3.811   3.713  0.4759 -0.3000  0.0171
11444TIP3    H155747   3.466   3.775   3.653  0.2040 -1.3014  0.8890
11444TIP3    H255748   3.616   3.781   3.678  0.2880 -1.2902  0.3883
11445TIP3   OH255749   6.230   0.259  17.138  0.2778 -0.2992 -0.6574
11445TIP3    H155750   6.147   0.213  17.125 -0.1288 -0.2099  1.2246
11445TIP3    H255751   6.217   0.345  17.098  0.0231 -0.8225 -1.7167
11446TIP3   OH255752   0.493   5.020  15.591 -0.5309  0.4227  0.1067
11446TIP3    H155753   0.440   4.954  15.635  0.5620 -0.7692 -0.3148
11446TIP3    H255754   0.489   4.997  15.498 -0.0171  0.8570 -0.0298
11447TIP3   OH255755   5.930   1.708  12.692  0.6084 -0.0284  0.2179
11447TIP3    H155756   5.998   1.760  12.734  0.2412 -0.8733  1.9772
11447TIP3    H255757   5.975   1.662  12.621  0.5437  4.1547 -2.9222
11448TIP3   OH255758   1.343   1.682  16.830 -0.1950  0.3240 -0.2263
11448TIP3    H155759   1.427   1.724  16.812  0.2640 -0.1867  0.6257
11448TIP3    H255760   1.310   1.655  16.744  1.2801 -0.8783 -0.4613
11449TIP3   OH255761   3.926   3.633   4.331  0.5878  0.4832  0.2570
11449TIP3    H155762   3.901   3.567   4.396 -0.4809  2.0872  1.5345
11449TIP3    H255763   3.991   3.588   4.276 -0.4410 -1.7780  0.7559
11450TIP3   OH255764   0.519   3.157  16.520 -0.3540 -0.2211 -0.8474
11450TIP3    H155765   0.547   3.066  16.535 -1.3309 -0.9267 -2.8938
11450TIP3    H255766   0.517   3.196  16.607 -3.0822 -3.1363  0.6068
11451TIP3   OH255767   5.961   0.886  11.599 -0.4656 -0.1993  0.2033
11451TIP3    H155768   6.030   0.822  11.580  0.3432  0.2207  1.6197
11451TIP3    H255769   5.937   0.921  11.513  0.2547 -1.1872 -0.4243
11452TIP3   OH255770   0.386   4.746   3.391 -0.0847 -0.4379  0.3000
11452TIP3    H155771   0.443   4.722   3.464 -1.5487 -2.5800  0.8508
11452TIP3    H255772   0.298   4.729   3.423 -0.8294 -0.6431 -1.7075
11453TIP3   OH255773   0.839   5.673   6.097  0.0275  0.2139  0.8377
11453TIP3    H155774   0.763   5.616   6.086  1.2805 -1.6268  1.3239
11453TIP3    H255775   0.886   5.636   6.172  1.4082  1.3236  0.5608
11454TIP3   OH255776   2.160   1.871  13.384 -0.3239 -0.0769  0.3004
11454TIP3    H155777   2.117   1.789  13.407 -1.6865  1.1645  2.4650
11454TIP3    H255778   2.229   1.881  13.449  0.5878 -0.0113 -0.6406
11455TIP3   OH255779   0.887   0.415  13.094  0.8377  0.4817  0.2157
11455TIP3    H155780   0.825   0.368  13.150 -1.9594  0.9542 -2.2409
11455TIP3    H255781   0.968   0.365  13.102 -0.5199 -1.6969  1.7022
11456TIP3   OH255782   0.506   1.080  14.214 -0.4040 -0.3302  0.2234
11456TIP3    H155783   0.522   0.994  14.176 -0.2596  0.9450 -2.8449
11456TIP3    H255784   0.414   1.100  14.194 -0.7724 -0.1888  1.8941
11457TIP3   OH255785   3.495   5.150  11.249  0.4971  0.3379 -0.1776
11457TIP3    H155786   3.566   5.106  11.202  2.1682 -0.3355  2.7152
11457TIP3    H255787   3.422   5.089  11.243 -0.0798  1.1888 -3.4863
11458TIP3   OH255788   1.880   5.769   5.790  0.2526 -0.5787 -0.0351
11458TIP3    H155789   1.797   5.738   5.827  0.5281 -0.7787  0.4322
11458TIP3    H255790   1.896   5.853   5.834 -0.5045  0.2684 -1.3161
11459TIP3   OH255791   1.547   3.435   1.249 -0.3212 -0.1744 -0.7383
11459TIP3    H155792   1.638   3.441   1.279 -0.7959  1.6492  0.4975
11459TIP3    H255793   1.494   3.446   1.328 -1.6179  1.8343 -1.7976
11460TIP3   OH255794   2.660   3.040  15.900 -0.0709 -0.4716 -0.3828
11460TIP3    H155795   2.649   3.135  15.887 -0.6920 -0.1842  1.7647
11460TIP3    H255796   2.580   3.014  15.946  0.1582 -2.0286 -0.8381
11461TIP3   OH255797   4.468   1.038   0.627  0.0773  0.0974 -0.3856
11461TIP3    H155798   4.387   1.062   0.582 -0.3456  0.9215  0.7603
11461TIP3    H255799   4.500   1.120   0.663  0.6431 -0.4588  0.4100
11462TIP3   OH255800   6.286   4.512  10.923 -0.4310 -0.1900  0.2433
11462TIP3    H155801   6.301   4.566  11.001  0.5180 -1.4587  0.9852
11462TIP3    H255802   6.369   4.514  10.876 -0.1268 -1.5332  0.6596
11463TIP3   OH255803   1.488   3.581   1.884 -0.4744 -0.1814  0.0876
11463TIP3    H155804   1.501   3.510   1.947  1.5183  0.1664  0.1248
11463TIP3    H255805   1.568   3.634   1.889 -0.2022 -0.1415 -2.7299
11464TIP3   OH255806   1.733   3.316  11.824 -0.2168 -0.8763 -0.5893
11464TIP3    H155807   1.650   3.267  11.829 -1.0974  0.3720 -2.1395
11464TIP3    H255808   1.710   3.397  11.779  1.6015  0.1241  0.1897
11465TIP3   OH255809   1.780   3.489  11.200  0.0298 -0.4159 -0.4203
11465TIP3    H155810   1.759   3.462  11.289  2.7520  0.8415  0.7058
11465TIP3    H255811   1.859   3.440  11.178  0.6743  0.9297 -1.2504
11466TIP3   OH255812   3.018   4.022   2.171 -0.3589  0.0748 -0.2731
11466TIP3    H155813   3.060   3.961   2.111 -0.1968 -0.8622  0.7546
11466TIP3    H255814   2.944   3.973   2.207 -2.4614  1.7230 -2.1110
11467TIP3   OH255815   1.957   2.166  14.481  0.2065 -0.5462  0.1012
11467TIP3    H155816   1.923   2.078  14.465 -0.7943  0.2244 -2.5797
11467TIP3    H255817   1.938   2.183  14.573  0.4257 -3.0864  0.6903
11468TIP3   OH255818   4.072   3.931   1.530 -0.5077  0.0359 -0.0491
11468TIP3    H155819   4.090   3.841   1.502 -2.0690 -0.2084 -0.3540
11468TIP3    H255820   4.037   3.974   1.452 -0.6044  0.6630  0.3293
11469TIP3   OH255821   2.398   2.474  15.303 -0.1959  0.2451  0.0384
11469TIP3    H155822   2.444   2.394  15.328 -1.9315 -0.6487  0.5944
11469TIP3    H255823   2.463   2.543  15.312  1.1624 -1.0032  0.2412
11470TIP3   OH255824   6.448   5.900   2.211  0.6843  0.4263  0.0391
11470TIP3    H155825   6.389   5.975   2.200 -0.4465 -0.3118  0.7743
11470TIP3    H255826   6.442   5.852   2.129 -2.0895 -1.1944  1.0304
11471TIP3   OH255827   2.095   4.044  12.059 -0.2383 -0.1153  0.1154
11471TIP3    H155828   2.168   4.106  12.071  1.3917 -1.7062 -1.1601
11471TIP3    H255829   2.081   4.041  11.965 -3.2239  1.4454  0.3855
11472TIP3   OH255830   5.764   2.187   5.470 -0.2980  0.1693 -0.0369
11472TIP3    H155831   5.742   2.096   5.452 -0.3699  0.0342  0.7227
11472TIP3    H255832   5.679   2.229   5.487 -0.2597  0.3617 -0.3181
11473TIP3   OH255833   2.412   2.773  11.177  0.3568 -0.1688  0.8014
11473TIP3    H155834   2.496   2.814  11.157  0.3227 -0.2752  0.4242
11473TIP3    H255835   2.353   2.804  11.108 -0.0082  0.1981  1.2741
11474TIP3   OH255836   0.542   1.386  13.745  0.3082  0.1338  0.0649
11474TIP3    H155837   0.552   1.291  13.755  0.9167  0.2207  0.2564
11474TIP3    H255838   0.457   1.396  13.702 -0.3909 -0.4273  1.2773
11475TIP3   OH255839   0.541   0.190   3.608 -0.2546  0.0863  0.3925
11475TIP3    H155840   0.572   0.267   3.561 -0.3684  0.7439  1.3870
11475TIP3    H255841   0.611   0.125   3.594 -0.1767  0.3380 -0.4786
11476TIP3   OH255842   6.707   6.522   3.572 -0.3534 -0.0649  0.1130
11476TIP3    H155843   6.793   6.529   3.531  0.4717 -3.1001  1.1392
11476TIP3    H255844   6.683   6.613   3.592  2.1662  0.9314 -0.9966
11477TIP3   OH255845   2.427   2.363   5.591 -0.4780 -0.4731  0.8244
11477TIP3    H155846   2.516   2.338   5.617  0.3231  0.7400 -0.6094
11477TIP3    H255847   2.416   2.452   5.625 -1.3756 -0.7911  1.4296
11478TIP3   OH255848   5.370   4.850   0.522 -0.5065 -0.1261 -0.2915
11478TIP3    H155849   5.443   4.815   0.472  0.5348  1.9935 -0.3496
11478TIP3    H255850   5.378   4.809   0.608 -0.6214 -1.6147 -0.9540
11479TIP3   OH255851   2.865   0.196  12.425 -0.7472  0.5893 -0.0484
11479TIP3    H155852   2.818   0.271  12.388  0.5525  0.9551 -1.0232
11479TIP3    H255853   2.956   0.210  12.401 -0.5596 -1.6724 -0.9362
11480TIP3   OH255854   4.758   2.136  16.502 -0.5531  0.4418  0.8715
11480TIP3    H155855   4.741   2.151  16.595 -1.6859 -0.4617  0.8343
11480TIP3    H255856   4.818   2.207  16.476 -3.3178  3.1563  1.3442
11481TIP3   OH255857   2.623   1.347   0.013 -0.4699 -0.1335  0.4463
11481TIP3    H155858   2.541   1.357   0.061 -1.1827  0.8683 -0.9037
11481TIP3    H255859   2.597   1.310  -0.072  0.1709  1.9554 -0.7361
11482TIP3   OH255860   6.550   0.193   6.711 -0.0787  0.2881 -0.3178
11482TIP3    H155861   6.480   0.246   6.672  0.2552  1.6662  0.8441
11482TIP3    H255862   6.620   0.256   6.728  1.8598 -1.1830 -2.2519
11483TIP3   OH255863   3.687   0.701  15.995 -0.0630  0.1804  0.3537
11483TIP3    H155864   3.645   0.622  15.962 -0.0977  1.0033 -1.6859
11483TIP3    H255865   3.617   0.750  16.038 -0.4329 -0.0519  0.0162
11484TIP3   OH255866   6.533   3.422  16.180  0.1841 -0.0659  0.1731
11484TIP3    H155867   6.588   3.344  16.174  0.9516  0.5639 -1.5115
11484TIP3    H255868   6.536   3.461  16.093 -1.2200  1.1670  0.6277
11485TIP3   OH255869   5.242   5.004  15.709  0.2945  0.0783  0.2963
11485TIP3    H155870   5.214   5.075  15.652  0.2382 -0.2234 -0.0548
11485TIP3    H255871   5.164   4.949  15.719  0.7097 -0.6760 -0.5528
11486TIP3   OH255872   2.289   3.493   4.026  0.4514  0.2809  0.1991
11486TIP3    H155873   2.320   3.438   4.098 -0.4527 -1.3476 -0.5987
11486TIP3    H255874   2.348   3.473   3.954 -0.9030 -0.9708 -0.5982
11487TIP3   OH255875   6.008   6.656   1.224 -0.4479  0.1384  0.4807
11487TIP3    H155876   5.928   6.698   1.256 -1.8817 -1.8690 -0.2496
11487TIP3    H255877   6.058   6.636   1.302 -2.0517 -1.1447  1.2434
11488TIP3   OH255878   4.805   3.749  16.507 -0.1018 -0.0961 -0.1390
11488TIP3    H155879   4.840   3.835  16.484  1.0497 -0.4891  0.0633
11488TIP3    H255880   4.854   3.688  16.451 -0.1728 -0.7050  0.4530
11489TIP3   OH255881   1.232   2.055   0.640 -0.4044  0.6563 -0.7716
11489TIP3    H155882   1.327   2.065   0.642 -0.3053 -0.3669  0.6582
11489TIP3    H255883   1.217   1.963   0.658 -1.7061  1.0518  0.3789
11490TIP3   OH255884   2.774   5.449   2.921  0.3108  0.3022 -0.7242
11490TIP3    H155885   2.722   5.394   2.980  1.9276  0.0857  0.5907
11490TIP3    H255886   2.752   5.417   2.834  0.2981 -1.6924 -0.0610
11491TIP3   OH255887   3.541   5.125  12.048  0.1777 -0.3889 -0.6384
11491TIP3    H155888   3.515   5.143  11.957  1.1063  0.3808 -0.7687
11491TIP3    H255889   3.493   5.046  12.071 -3.6491  1.7783 -0.2749
11492TIP3   OH255890   3.007   2.673  14.186  0.2248 -0.4176  0.8966
11492TIP3    H155891   2.986   2.587  14.152 -1.5353  0.0440  0.7329
11492TIP3    H255892   3.086   2.699  14.138 -0.8742 -0.7305 -1.1961
11493TIP3   OH255893   6.657   2.523  14.532  0.2240  0.4670 -0.4558
11493TIP3    H155894   6.617   2.438  14.547  0.4331  0.4510  0.0361
11493TIP3    H255895   6.626   2.550  14.446 -0.1856  0.0887 -0.4271
11494TIP3   OH255896   0.256   4.513  14.952  0.3410 -0.1862 -0.1171
11494TIP3    H155897   0.216   4.538  14.869 -0.9930  0.7402  0.7857
11494TIP3    H255898   0.333   4.570  14.960  1.0198 -0.9163 -1.1177
11495TIP3   OH255899   5.239   3.737   0.725  0.0509 -0.1824  0.6547
11495TIP3    H155900   5.309   3.700   0.779  0.6503 -0.9369 -0.5811
11495TIP3    H255901   5.199   3.662   0.682  0.9536  0.5105 -1.5206
11496TIP3   OH255902   0.895   4.402  16.800 -0.3432 -0.0884 -0.0459
11496TIP3    H155903   0.856   4.490  16.803 -1.1680 -0.4581  0.1465
11496TIP3    H255904   0.966   4.405  16.864 -1.1071  0.0896  0.8175
11497TIP3   OH255905   5.779   2.737  15.049  0.0864 -0.0530 -0.0014
11497TIP3    H155906   5.780   2.829  15.074 -0.8023  0.4280 -1.5622
11497TIP3    H255907   5.819   2.735  14.962 -0.5747 -1.0230 -0.3038
11498TIP3   OH255908   6.029   4.048   5.216 -0.0949  0.1809  0.0191
11498TIP3    H155909   6.021   3.990   5.140 -1.2396 -0.5603  0.6677
11498TIP3    H255910   5.962   4.016   5.277  0.8441  0.7135  1.3699
11499TIP3   OH255911   0.968   1.987  15.556 -0.4964 -0.4368  1.2819
11499TIP3    H155912   0.929   1.911  15.599  0.5902 -0.8024  1.6448
11499TIP3    H255913   0.894   2.031  15.515 -1.7240  0.4131  4.1806
11500TIP3   OH255914   0.979   2.103  14.817 -0.6650 -0.1044 -0.4015
11500TIP3    H155915   1.024   2.162  14.757  1.3656 -1.1172  0.0544
11500TIP3    H255916   1.049   2.061  14.867 -2.2016 -0.6082  1.4512
11501TIP3   OH255917   2.209   3.881   3.559 -0.1863 -0.6103  0.1867
11501TIP3    H155918   2.301   3.886   3.585 -0.1384 -0.5481  0.0072
11501TIP3    H255919   2.187   3.789   3.569 -0.2532 -0.5426  0.7284
11502TIP3   OH255920   5.922   0.905   4.177  0.3486  0.3410 -0.3181
11502TIP3    H155921   5.933   0.900   4.272 -0.2563  0.4410 -0.2414
11502TIP3    H255922   5.917   0.998   4.158 -2.2436  0.3087 -0.1128
11503TIP3   OH255923   0.155   1.453  15.633  0.5737 -0.0116 -0.4170
11503TIP3    H155924   0.110   1.433  15.551 -0.6137 -0.4015  0.3056
11503TIP3    H255925   0.092   1.505  15.682  1.8462  1.5434 -0.3471
11504TIP3   OH255926   4.345   4.778   3.615 -0.2508  0.1046 -0.7589
11504TIP3    H155927   4.336   4.813   3.703  1.1087  1.3535 -1.0677
11504TIP3    H255928   4.285   4.704   3.612 -0.1564 -0.1101  1.2760
11505TIP3   OH255929   4.327   5.509  12.904 -0.3492 -0.2408 -0.5491
11505TIP3    H155930   4.403   5.564  12.882 -1.1272  1.3276  0.4969
11505TIP3    H255931   4.312   5.457  12.825  1.9859 -0.8338 -0.6860
11506TIP3   OH255932   5.923   5.522  12.509  0.2560  0.1579  0.1576
11506TIP3    H155933   5.949   5.484  12.425  0.5203  0.7778 -0.0449
11506TIP3    H255934   5.837   5.558  12.493  0.0386 -0.2751  0.3291
11507TIP3   OH255935   3.009   5.582  12.041  0.1237  0.0454 -0.6193
11507TIP3    H155936   3.087   5.529  12.026  0.0346 -0.2164 -0.1570
11507TIP3    H255937   2.983   5.563  12.131 -0.8516 -0.3729 -0.9696
11508TIP3   OH255938   0.186   2.553  13.908  0.2894  0.1345  0.1184
11508TIP3    H155939   0.171   2.643  13.938  1.2569  0.6033 -0.7074
11508TIP3    H255940   0.257   2.521  13.963 -1.3296 -0.8499  1.7192
11509TIP3   OH255941   3.336   1.959   6.191 -0.1988 -0.4582 -0.0520
11509TIP3    H155942   3.354   1.892   6.125 -0.4007  0.7966 -1.4370
11509TIP3    H255943   3.365   2.041   6.151 -1.0134  0.4508  1.1306
11510TIP3   OH255944   0.966   3.965   4.009 -0.5288  0.1355  0.3662
11510TIP3    H155945   0.972   4.054   4.044 -1.1139 -1.1639  4.1838
11510TIP3    H255946   1.052   3.949   3.970 -0.1703  2.0677  0.2560
11511TIP3   OH255947   3.544   3.730  17.223 -0.4667 -0.5267 -0.2732
11511TIP3    H155948   3.516   3.801  17.282 -0.0476  0.6209 -1.4130
11511TIP3    H255949   3.567   3.658  17.282  0.2612  0.6955  1.0071
11512TIP3   OH255950   6.525   0.670  12.340  0.4094 -0.0197  0.0637
11512TIP3    H155951   6.594   0.604  12.349  0.3018 -0.3214 -1.1854
11512TIP3    H255952   6.451   0.633  12.388  0.9137  0.0377  0.9102
11513TIP3   OH255953   4.174   5.379  15.006  0.2520 -0.7051  0.2211
11513TIP3    H155954   4.209   5.396  14.919  0.2483 -1.2135  0.1212
11513TIP3    H255955   4.249   5.344  15.055 -0.0249 -1.4811  0.1008
11514TIP3   OH255956   3.934   4.174   3.146 -0.1650  0.0355  0.2312
11514TIP3    H155957   4.012   4.191   3.094  0.9826  0.5262  2.0202
11514TIP3    H255958   3.955   4.095   3.196 -2.2863 -2.0510 -1.9443
11515TIP3   OH255959   0.334   4.280  13.659  0.0483  0.3774  0.0870
11515TIP3    H155960   0.401   4.329  13.611  1.0666  1.9306  2.8286
11515TIP3    H255961   0.381   4.241  13.733 -1.9796  1.6596  2.2219
11516TIP3   OH255962   5.495   0.372   4.190  0.1857 -0.2526 -0.4521
11516TIP3    H155963   5.447   0.322   4.256  0.2192  2.1578  1.5151
11516TIP3    H255964   5.578   0.325   4.180 -0.0074 -0.9137  0.8681
11517TIP3   OH255965   1.682   0.290  13.938  0.2097 -0.1076  0.4138
11517TIP3    H155966   1.755   0.233  13.916 -1.7291 -1.4096 -3.4770
11517TIP3    H255967   1.719   0.379  13.934  1.6611 -0.7416 -1.2223
11518TIP3   OH255968   5.513   0.740   1.522 -0.4601 -0.4602 -0.1346
11518TIP3    H155969   5.571   0.816   1.515  0.4605 -0.8550  2.3321
11518TIP3    H255970   5.425   0.777   1.527  0.1051  0.7607  3.5738
11519TIP3   OH255971   1.075   3.688  13.526 -0.6039 -1.0012  0.1139
11519TIP3    H155972   1.132   3.656  13.596 -0.2922  0.7738  0.7080
11519TIP3    H255973   1.102   3.639  13.449 -0.9375 -2.9915  1.1804
11520TIP3   OH255974   1.548   3.080  11.177 -0.4066  1.0939 -0.3355
11520TIP3    H155975   1.490   3.007  11.197  0.8833  0.0761 -0.1930
11520TIP3    H255976   1.610   3.045  11.113  1.4836  1.4145  1.2169
11521TIP3   OH255977   6.355   5.182  13.700 -0.2328  0.6293  0.3114
11521TIP3    H155978   6.271   5.190  13.746 -1.4309 -0.8428 -1.4978
11521TIP3    H255979   6.345   5.236  13.622 -1.2419 -2.7639 -2.1393
11522TIP3   OH255980   0.921   5.014  10.975 -0.1941 -0.3004  0.3349
11522TIP3    H155981   0.842   4.984  11.021 -1.1371  1.2758 -0.1896
11522TIP3    H255982   0.897   5.099  10.940  1.7128  0.1360  0.0059
11523TIP3   OH255983   1.611   3.537   0.433 -0.0909  0.0645 -0.0049
11523TIP3    H155984   1.579   3.516   0.345  0.0501  2.9970 -0.8659
11523TIP3    H255985   1.656   3.458   0.462 -1.1312 -1.3808 -2.0779
11524TIP3   OH255986   3.373   6.574   0.988  0.2018 -0.1755 -0.4718
11524TIP3    H155987   3.323   6.518   1.047  0.1307  0.1473 -0.2172
11524TIP3    H255988   3.330   6.659   0.994  1.2930  0.3424  0.4369
11525TIP3   OH255989   0.028   5.761  16.748  0.3749 -0.3144 -0.5593
11525TIP3    H155990   0.036   5.793  16.658  1.0754 -0.1794 -0.4537
11525TIP3    H255991  -0.024   5.681  16.741 -0.2229  0.1094 -0.9909
11526TIP3   OH255992   6.001   0.576  16.532  0.3410  0.1765  0.3448
11526TIP3    H155993   5.923   0.601  16.483  0.6874  0.2495 -0.1805
11526TIP3    H255994   5.980   0.596  16.623  0.4440  1.9980  0.0061
11527TIP3   OH255995   3.416   0.086   4.514 -0.9262 -0.3759  0.1443
11527TIP3    H155996   3.345   0.078   4.450 -0.0207 -0.3049 -0.8935
11527TIP3    H255997   3.486   0.030   4.479 -0.0333  0.4743  0.5321
11528TIP3   OH255998   0.827   4.405   4.111  0.0349 -0.1307 -0.1795
11528TIP3    H155999   0.742   4.376   4.143  0.0865 -1.0477 -0.8446
11528TIP3    H256000   0.836   4.494   4.146 -1.3160  0.0959 -0.3355
11529TIP3   OH256001   3.938   0.924   5.421 -0.4651 -0.2705 -0.1690
11529TIP3    H156002   3.846   0.946   5.432  0.0447  1.4170  1.2099
11529TIP3    H256003   3.977   0.936   5.508  1.0826 -0.7282 -0.7562
11530TIP3   OH256004   2.743   2.775  12.286 -0.0583  0.0326 -0.7696
11530TIP3    H156005   2.686   2.722  12.342  1.0381 -0.7087 -0.3251
11530TIP3    H256006   2.812   2.806  12.344 -0.6648  1.9920 -1.0208
11531TIP3   OH256007   1.251   6.249   0.082  0.3339  0.1637 -0.0884
11531TIP3    H156008   1.315   6.250   0.154  0.7405  1.4664 -0.4421
11531TIP3    H256009   1.284   6.182   0.021  1.4438  0.9132 -0.3289
11532TIP3   OH256010   1.951   5.987  15.502 -0.0422 -0.1068  0.0436
11532TIP3    H156011   1.951   5.922  15.572  1.4246  0.5756  0.7220
11532TIP3    H256012   1.883   5.958  15.442 -0.1618 -1.6597  0.8857
11533TIP3   OH256013   4.955   6.300   4.662  0.2967 -0.2251 -0.1393
11533TIP3    H156014   4.897   6.244   4.611 -0.7430 -0.3494  1.1232
11533TIP3    H256015   4.947   6.268   4.752  1.2822  0.6284  0.2771
11534TIP3   OH256016   5.077   6.333  12.001 -0.5139  0.2992  0.1723
11534TIP3    H156017   5.136   6.297  11.935 -2.3879 -1.0287 -0.8877
11534TIP3    H256018   4.989   6.324  11.963 -1.4161  2.6477  1.4541
11535TIP3   OH256019   1.326   1.001  12.278  0.3267 -0.4117  0.0147
11535TIP3    H156020   1.379   1.064  12.230  0.2022 -1.0298 -0.9529
11535TIP3    H256021   1.236   1.031  12.266  0.3654  0.0434  0.7832
11536TIP3   OH256022   2.323   3.783   1.033 -0.0527 -0.1447 -0.2153
11536TIP3    H156023   2.247   3.827   0.994  0.8357  0.8148 -0.9363
11536TIP3    H256024   2.320   3.694   0.998 -0.6817 -0.0343 -0.4635
11537TIP3   OH256025   4.860   1.369   1.782  0.4194 -0.0733 -0.2890
11537TIP3    H156026   4.922   1.435   1.750  0.5866  0.5418  1.1965
11537TIP3    H256027   4.827   1.406   1.864  2.0156 -2.6990  1.6915
11538TIP3   OH256028   0.248   1.834  14.696 -0.0411 -0.0297 -0.2911
11538TIP3    H156029   0.299   1.822  14.776 -0.0207 -0.0583 -0.3085
11538TIP3    H256030   0.277   1.765  14.637  1.5791  1.3220 -1.1626
11539TIP3   OH256031   3.040   4.807  13.446  0.0421  0.8690 -0.7123
11539TIP3    H156032   2.977   4.879  13.453 -2.4038 -1.2065  0.6600
11539TIP3    H256033   3.005   4.751  13.377  0.7214 -0.0139 -0.3595
11540TIP3   OH256034   6.430   1.637  12.903  0.4817  0.3046 -0.4876
11540TIP3    H156035   6.521   1.643  12.933  0.9533  0.2457 -1.8603
11540TIP3    H256036   6.437   1.618  12.810 -0.9520 -0.3746 -0.4737
11541TIP3   OH256037   4.900   5.843   5.027 -0.6303 -0.7677  0.6186
11541TIP3    H156038   4.813   5.810   5.051 -1.3757  1.7327  1.6702
11541TIP3    H256039   4.941   5.864   5.111 -0.5130  1.5468  0.0516
11542TIP3   OH256040   2.227   1.260  11.321  0.2147 -0.9393  0.0031
11542TIP3    H156041   2.197   1.348  11.298 -0.6786 -1.2255  0.0018
11542TIP3    H256042   2.318   1.257  11.293  0.0446 -0.2492 -0.6635
11543TIP3   OH256043   3.128   3.096   6.002  0.2637 -0.3440  0.0574
11543TIP3    H156044   3.036   3.122   5.996  0.3621 -0.3014 -1.4349
11543TIP3    H256045   3.175   3.178   6.016  0.1243 -0.3108  0.3407
11544TIP3   OH256046   1.694   4.826  11.252 -0.5102  0.0281  0.0931
11544TIP3    H156047   1.645   4.861  11.177 -0.1110  1.4502  0.4855
11544TIP3    H256048   1.703   4.733  11.232  0.8121  0.5940 -2.3363
11545TIP3   OH256049   6.509   3.289  15.373 -0.2622 -0.0852 -0.4839
11545TIP3    H156050   6.459   3.252  15.301 -2.0100  0.2783  0.5017
11545TIP3    H256051   6.446   3.338  15.425  0.7152 -1.1063  1.8345
11546TIP3   OH256052   1.099   3.371  11.191 -0.0651 -0.3533  0.1123
11546TIP3    H156053   1.073   3.462  11.177  1.3004  0.2828  1.3796
11546TIP3    H256054   1.026   3.333  11.240 -0.2278  0.3434  0.4231
11547TIP3   OH256055   0.402   5.721  15.477  0.0131 -0.1786 -0.2147
11547TIP3    H156056   0.438   5.805  15.449  1.2913 -0.2601  1.0997
11547TIP3    H256057   0.415   5.663  15.401 -0.1648  0.5805 -0.8448
11548TIP3   OH256058   3.783   0.658  11.260  0.0223  0.3928 -0.0787
11548TIP3    H156059   3.811   0.650  11.351 -1.2524  1.5292  0.4584
11548TIP3    H256060   3.849   0.611  11.209 -0.3967 -2.1631  1.6073
11549TIP3   OH256061   6.464   5.067  14.330  0.7200  0.2755 -0.1585
11549TIP3    H156062   6.477   5.081  14.236 -0.7776  0.8424 -0.3157
11549TIP3    H256063   6.458   5.156  14.367 -0.7374  0.0947  0.1248
11550TIP3   OH256064   1.270   4.732  11.710  0.1226 -0.1874  0.5125
11550TIP3    H156065   1.291   4.716  11.618 -0.8010 -0.1458  0.2816
11550TIP3    H256066   1.303   4.655  11.756 -1.8813 -1.5935 -0.2326
11551TIP3   OH256067   1.990   3.755  16.787 -0.1115  0.5915 -0.3846
11551TIP3    H156068   1.965   3.754  16.694  0.9757 -0.2330 -0.6894
11551TIP3    H256069   1.907   3.747  16.834 -0.9006  3.0106 -1.1945
11552TIP3   OH256070   2.280   2.634  16.141 -0.0500  0.0218 -0.0668
11552TIP3    H156071   2.243   2.653  16.228  1.4427 -0.0630  0.6301
11552TIP3    H256072   2.365   2.678  16.142 -0.4192  0.8608 -1.8906
11553TIP3   OH256073   4.433   4.334   5.254 -0.3714  0.2954 -0.1865
11553TIP3    H156074   4.447   4.278   5.177 -0.8233 -1.2119  0.7635
11553TIP3    H256075   4.506   4.314   5.312 -2.2071 -1.9638  1.5911
11554TIP3   OH256076   3.978   1.706  11.502  0.1588 -0.1681  0.1220
11554TIP3    H156077   3.983   1.611  11.494 -0.3790 -0.1213 -1.1046
11554TIP3    H256078   4.065   1.733  11.531  0.3964 -1.0121  0.2252
11555TIP3   OH256079   4.417   0.575  11.538 -0.1779 -0.3966  0.0002
11555TIP3    H156080   4.327   0.571  11.568 -0.3367  2.0276  0.0531
11555TIP3    H256081   4.418   0.644  11.472  1.9007  0.7269  1.0881
11556TIP3   OH256082   5.407   1.142  10.764  0.2277 -0.7388 -0.5700
11556TIP3    H156083   5.463   1.158  10.688 -0.0681 -3.6711 -1.5308
11556TIP3    H256084   5.329   1.196  10.749  1.6894  1.5242 -0.4224
11557TIP3   OH256085   2.259   6.004  12.652 -0.6586 -0.6106 -0.3683
11557TIP3    H156086   2.314   5.980  12.578 -0.9478 -0.1891 -0.7238
11557TIP3    H256087   2.232   5.920  12.691 -0.8071 -0.8407 -0.9614
11558TIP3   OH256088   5.314   5.988  13.366  0.2525  0.1534  0.5188
11558TIP3    H156089   5.278   5.914  13.414  0.3653 -0.3870 -0.2086
11558TIP3    H256090   5.264   6.063  13.396 -1.5763 -0.5845 -0.5350
11559TIP3   OH256091   0.004   0.675   6.676 -0.0941  0.2701 -0.0079
11559TIP3    H156092   0.011   0.705   6.585 -2.9768 -0.1951 -0.4520
11559TIP3    H256093   0.048   0.743   6.726  0.4930  1.1547 -1.6420
11560TIP3   OH256094   1.379   1.004  17.221 -0.3980  0.1533 -0.9616
11560TIP3    H156095   1.360   1.096  17.238 -0.7683 -0.1700  0.5520
11560TIP3    H256096   1.327   0.957  17.286  0.7035 -1.0673 -0.9308
11561TIP3   OH256097   0.585   0.171  14.335 -0.0020  0.3187 -0.0016
11561TIP3    H156098   0.658   0.206  14.283 -1.6628  2.2611 -1.1907
11561TIP3    H256099   0.513   0.166  14.273 -0.5908 -3.0147  0.7530
11562TIP3   OH256100   3.201   1.861   2.556  0.4247 -0.2316  0.2122
11562TIP3    H156101   3.184   1.848   2.649  1.6805  2.0148  0.8223
11562TIP3    H256102   3.294   1.845   2.545  0.2730 -0.5786 -0.7097
11563TIP3   OH256103   6.535   6.479   5.499  0.4170 -0.0719 -0.3247
11563TIP3    H156104   6.559   6.570   5.482 -0.0878 -0.2034 -1.8808
11563TIP3    H256105   6.440   6.477   5.490  0.3025 -0.5288  0.8768
11564TIP3   OH256106   0.546   6.246  12.026  0.0352 -0.4993 -0.1050
11564TIP3    H156107   0.503   6.324  11.992 -0.4283 -0.8947 -0.4507
11564TIP3    H256108   0.494   6.223  12.103  0.5427 -0.1195  0.3582
11565TIP3   OH256109   3.149   3.236  13.880 -0.0820 -0.3074 -0.0212
11565TIP3    H156110   3.245   3.243  13.878  0.0465 -1.8240 -2.3161
11565TIP3    H256111   3.131   3.157  13.930 -0.2680  0.7533  1.6810
11566TIP3   OH256112   5.726   5.148   0.099  0.2484  0.4527  0.3021
11566TIP3    H156113   5.808   5.114   0.135  1.6044  3.2229  0.1159
11566TIP3    H256114   5.711   5.229   0.147 -2.4225  0.0324  0.3091
11567TIP3   OH256115   4.915   0.952  11.456  0.1838  0.4333 -0.5112
11567TIP3    H156116   4.976   1.018  11.488  1.0489 -0.8063  0.4870
11567TIP3    H256117   4.935   0.943  11.363  2.2233 -0.6195 -0.0316
11568TIP3   OH256118   2.346   4.696   2.688 -0.0117  0.0661 -0.0193
11568TIP3    H156119   2.393   4.764   2.736  0.9707  0.0725 -0.9413
11568TIP3    H256120   2.384   4.699   2.600  0.0260 -1.6588 -0.0949
11569TIP3   OH256121   3.336   2.087  15.214  0.3576 -0.3710  0.2274
11569TIP3    H156122   3.419   2.086  15.261  0.3885 -0.5955  0.1672
11569TIP3    H256123   3.319   2.180  15.198  1.2077 -0.3781 -0.8390
11570TIP3   OH256124   6.443   1.328  12.934  0.7672  0.7505  0.5242
11570TIP3    H156125   6.519   1.331  12.876 -0.2129  0.3576 -0.8386
11570TIP3    H256126   6.463   1.392  13.003  2.1237  0.9809 -0.0449
11571TIP3   OH256127   6.691   5.863   1.447  0.1927 -0.0544  0.0060
11571TIP3    H156128   6.712   5.776   1.481 -0.0748 -0.0127  0.2813
11571TIP3    H256129   6.764   5.884   1.389  0.6332 -0.1480  0.5130
11572TIP3   OH256130   1.875   1.839   3.357  0.0443 -0.2224 -0.1957
11572TIP3    H156131   1.860   1.771   3.422 -1.9209 -0.1686 -0.5345
11572TIP3    H256132   1.932   1.903   3.400 -1.0700 -0.2727  1.4216
11573TIP3   OH256133   4.010   4.946  16.397 -0.5192  0.0983  0.2801
11573TIP3    H156134   4.035   5.036  16.419 -0.1556 -0.1334  0.8448
11573TIP3    H256135   3.960   4.916  16.473 -1.7837  0.2572 -0.4634
11574TIP3   OH256136   1.764   1.895  13.370  0.2412 -0.2024  0.2685
11574TIP3    H156137   1.728   1.969  13.419 -0.2795 -0.2422 -0.0388
11574TIP3    H256138   1.846   1.927  13.333 -0.7418  0.7661 -1.1910
11575TIP3   OH256139   2.063   5.022   4.704 -0.0977 -0.6020  0.4901
11575TIP3    H156140   2.015   4.940   4.691  0.8013 -1.4036  1.8607
11575TIP3    H256141   1.996   5.089   4.710 -1.0379 -1.5977  1.7200
11576TIP3   OH256142   5.937   5.197  14.596  0.1411 -0.1140 -0.0946
11576TIP3    H156143   6.028   5.189  14.567  0.9238  2.3539  1.3526
11576TIP3    H256144   5.940   5.180  14.690 -1.2178 -1.5198 -0.2547
11577TIP3   OH256145   6.187   2.376   3.294  0.2581  0.0903 -0.4200
11577TIP3    H156146   6.112   2.345   3.345  0.0910  1.4257  0.1691
11577TIP3    H256147   6.210   2.460   3.332  2.2142 -0.3790 -0.4554
11578TIP3   OH256148   3.272   5.383   3.825 -0.2286  0.3950 -0.3386
11578TIP3    H156149   3.305   5.465   3.862  1.0580 -0.0265 -0.4818
11578TIP3    H256150   3.335   5.362   3.756  0.1321 -1.2988  0.4544
11579TIP3   OH256151   1.773   0.781   1.796  0.1561 -0.3353  0.8889
11579TIP3    H156152   1.790   0.875   1.790 -1.7400  0.0276  0.3886
11579TIP3    H256153   1.679   0.773   1.779  0.2445 -2.3118  1.1125
11580TIP3   OH256154   5.108   6.347  15.751 -0.0814  0.0439  0.1343
11580TIP3    H156155   5.015   6.343  15.775  0.0790  1.5863  1.1813
11580TIP3    H256156   5.154   6.344  15.835  0.7631  0.5014 -0.2991
11581TIP3   OH256157   0.253   1.468   0.156  0.6849 -0.3678 -0.4255
11581TIP3    H156158   0.304   1.391   0.129  0.9689  0.4607 -2.4390
11581TIP3    H256159   0.199   1.488   0.079 -1.3394 -0.1084  1.0066
11582TIP3   OH256160   0.946   1.646   1.681  0.4881  0.2241  0.4332
11582TIP3    H156161   0.934   1.691   1.765 -2.3563  0.2137  0.1191
11582TIP3    H256162   0.983   1.713   1.623  1.5863  0.4953  1.3974
11583TIP3   OH256163   0.754   3.029  14.997 -0.6368 -0.0724 -0.5006
11583TIP3    H156164   0.666   3.026  14.959 -1.5903 -0.6407  1.5974
11583TIP3    H256165   0.795   2.947  14.968 -1.3204 -0.4778 -0.3602
11584TIP3   OH256166   3.110   6.175  13.413  0.0224 -0.8915  0.5447
11584TIP3    H156167   3.202   6.198  13.427 -0.5161  0.8696  1.5475
11584TIP3    H256168   3.086   6.223  13.334 -0.1764 -0.9017  0.5991
11585TIP3   OH256169   0.772   3.286   4.487  0.4304 -0.1867  0.1591
11585TIP3    H156170   0.861   3.268   4.517  0.5489  0.9334  0.5504
11585TIP3    H256171   0.743   3.205   4.446  1.4826 -0.6957  0.3904
11586TIP3   OH256172   1.458   2.131  12.480  0.2498 -0.0895  0.1265
11586TIP3    H156173   1.544   2.137  12.522  1.0958  3.0346 -1.7276
11586TIP3    H256174   1.417   2.215  12.498 -1.5982 -0.7407 -0.7837
11587TIP3   OH256175   5.323   0.113  17.258 -0.1775 -0.0754  0.1895
11587TIP3    H156176   5.388   0.059  17.212  1.1209  0.3961  1.3940
11587TIP3    H256177   5.261   0.050  17.295 -0.8448 -0.4993 -1.5324
11588TIP3   OH256178   3.012   2.453   3.328 -0.3478  0.2594  0.0278
11588TIP3    H156179   2.991   2.457   3.421  0.0835  0.2888  0.1258
11588TIP3    H256180   2.927   2.443   3.285 -0.4709 -0.9668  0.4931
11589TIP3   OH256181   3.287   1.106  14.491  0.3311 -0.6282  0.1585
11589TIP3    H156182   3.301   1.104  14.396 -0.0211  0.8313  0.0491
11589TIP3    H256183   3.295   1.015  14.519 -1.7180 -1.4273 -1.5935
11590TIP3   OH256184   3.413   1.665  13.055 -0.0590 -0.5147 -0.3287
11590TIP3    H156185   3.381   1.748  13.090  0.5814  0.6679 -2.3933
11590TIP3    H256186   3.422   1.609  13.132 -2.6599  0.5497  0.8855
11591TIP3   OH256187   6.157   5.458   6.050  0.3988 -0.3815  0.1609
11591TIP3    H156188   6.213   5.384   6.028  1.9469  0.1425  2.0029
11591TIP3    H256189   6.088   5.421   6.105  1.5997 -0.4016  1.7119
11592TIP3   OH256190   5.939   4.998  17.234  0.2125  0.0541 -0.5259
11592TIP3    H156191   5.966   5.000  17.326  0.5806  0.9008 -0.6391
11592TIP3    H256192   5.866   4.936  17.232 -0.7338  1.0618  0.6037
11593TIP3   OH256193   0.469   5.348  11.674  0.2943 -0.2614 -0.2588
11593TIP3    H156194   0.379   5.363  11.645  1.0140  0.9231 -2.0550
11593TIP3    H256195   0.462   5.277  11.738 -1.7614 -1.0125 -1.2289
11594TIP3   OH256196   3.817   4.968   2.782  0.4469  0.3317 -0.4137
11594TIP3    H156197   3.788   4.949   2.693  0.4473  0.2444 -0.3960
11594TIP3    H256198   3.790   4.891   2.832 -0.2725  0.7332 -0.1702
11595TIP3   OH256199   1.239   3.749   2.520 -0.5974  0.1818  0.2509
11595TIP3    H156200   1.193   3.665   2.519 -0.3653  0.0204  1.3234
11595TIP3    H256201   1.225   3.783   2.608  0.8174  0.4069  0.4144
11596TIP3   OH256202   3.629   2.145   4.895  0.3194  0.5575  0.0054
11596TIP3    H156203   3.647   2.105   4.810 -1.1587  2.0839 -1.0842
11596TIP3    H256204   3.685   2.222   4.898  0.2127  0.6235  0.3360
11597TIP3   OH256205   2.530   5.718   2.224 -0.1545  0.1909 -0.1990
11597TIP3    H156206   2.502   5.631   2.197  3.9223 -1.1881 -0.6658
11597TIP3    H256207   2.474   5.740   2.298 -1.2911 -2.8677 -0.0232
11598TIP3   OH256208   3.586   2.263   2.118 -0.0856 -0.3693 -0.1160
11598TIP3    H156209   3.649   2.284   2.049 -1.6971 -0.3701 -1.6768
11598TIP3    H256210   3.571   2.169   2.109 -0.8233 -0.2445 -0.2370
11599TIP3   OH256211   1.788   4.834   0.660  0.1180 -0.1112 -0.0635
11599TIP3    H156212   1.856   4.876   0.713  0.2509  0.0718 -0.3820
11599TIP3    H256213   1.824   4.832   0.572  0.0541 -0.7704 -0.0761
11600TIP3   OH256214   4.097   2.215  10.822  0.1603 -0.0609  0.3688
11600TIP3    H156215   4.163   2.157  10.784 -0.0253 -0.0385  0.0088
11600TIP3    H256216   4.110   2.299  10.777 -1.2985 -0.5409 -1.0616
11601TIP3   OH256217   6.757   3.024  13.228 -0.5416  0.3046  0.0562
11601TIP3    H156218   6.792   2.968  13.297  1.1730  0.3550 -0.7121
11601TIP3    H256219   6.744   2.964  13.154 -0.2725  0.6289 -0.2575
11602TIP3   OH256220   2.834   4.388   0.840  0.1144  0.3471 -0.1866
11602TIP3    H156221   2.817   4.479   0.817 -0.6738  0.3945  0.5355
11602TIP3    H256222   2.923   4.388   0.875 -0.2474  1.0287  0.7522
11603TIP3   OH256223   3.644   2.589  10.750  0.1259 -0.0616  0.1834
11603TIP3    H156224   3.729   2.622  10.780 -0.4252  2.1465 -0.4796
11603TIP3    H256225   3.586   2.665  10.755 -2.3785 -1.9418  2.4699
11604TIP3   OH256226   3.935   2.903   2.456 -0.5172  0.1520  0.1350
11604TIP3    H156227   3.867   2.967   2.434  0.0287  1.0603  1.0121
11604TIP3    H256228   3.941   2.906   2.551 -0.3869 -1.1337  0.1865
11605TIP3   OH256229   3.120   5.794  14.970  0.8074  0.0173  0.0401
11605TIP3    H156230   3.061   5.869  14.965 -0.2513 -0.0487  5.1951
11605TIP3    H256231   3.066   5.719  14.944 -0.5225  0.3428  1.6602
11606TIP3   OH256232   5.584   3.177  17.210  0.2621  0.4594  0.3554
11606TIP3    H156233   5.549   3.226  17.285  0.3753 -0.1112  0.7817
11606TIP3    H256234   5.506   3.144  17.164  0.1761  1.2069 -0.0585
11607TIP3   OH256235   4.780   0.006  11.740  0.3060 -0.1084  0.1745
11607TIP3    H156236   4.857  -0.010  11.685 -0.5531 -0.9345 -0.8330
11607TIP3    H256237   4.706  -0.017  11.684 -0.6825  0.7258  1.1099
11608TIP3   OH256238   5.572   2.153   1.167  0.3989  0.1619  0.3547
11608TIP3    H156239   5.537   2.074   1.126 -1.8405  0.1957  1.9994
11608TIP3    H256240   5.634   2.121   1.232  1.2450 -0.0756 -0.5439
11609TIP3   OH256241   1.605   1.536   3.238  0.4061 -0.1797 -0.3878
11609TIP3    H156242   1.690   1.524   3.280  0.7379  0.2320 -0.9226
11609TIP3    H256243   1.581   1.626   3.258 -0.2961 -0.5485  0.4530
11610TIP3   OH256244   1.941   5.117   5.015  0.2628  0.5168  0.3611
11610TIP3    H156245   2.009   5.051   5.028  0.2487  0.2882 -0.6393
11610TIP3    H256246   1.863   5.066   4.991  1.0551  0.9383 -3.8263
11611TIP3   OH256247   4.946   3.182  10.737  0.0107 -0.3868 -0.0604
11611TIP3    H156248   4.936   3.102  10.685 -0.2450  1.8026 -3.6509
11611TIP3    H256249   4.857   3.209  10.758  0.1055 -1.1135  1.4165
11612TIP3   OH256250   2.825   6.705   3.922  0.3244 -0.7919 -0.4526
11612TIP3    H156251   2.795   6.796   3.913  2.8394  0.0895 -0.5838
11612TIP3    H256252   2.752   6.653   3.889 -1.5485  1.1047  0.4487
11613TIP3   OH256253   5.587   3.536   3.861  0.3428 -0.0891  0.0467
11613TIP3    H156254   5.554   3.604   3.921  3.0501  0.3651  1.1842
11613TIP3    H256255   5.651   3.582   3.807 -0.0768 -1.1224 -1.3820
11614TIP3   OH256256   4.986   3.616  11.489 -0.1071 -0.3866  0.4889
11614TIP3    H156257   4.900   3.658  11.485  0.2190  0.1712 -1.8264
11614TIP3    H256258   4.981   3.544  11.426  1.3585  0.2048 -0.3699
11615TIP3   OH256259   6.294   4.774   2.371  0.0865 -0.0587  0.0207
11615TIP3    H156260   6.277   4.853   2.422  0.4223  0.4977 -0.6996
11615TIP3    H256261   6.282   4.702   2.433 -1.5808  0.4653  0.3683
11616TIP3   OH256262   4.983   3.086  12.402 -0.4126  0.2129 -0.7457
11616TIP3    H156263   5.072   3.051  12.402 -0.4434  0.1057  0.5748
11616TIP3    H256264   4.929   3.015  12.437 -0.9230  0.5152 -0.9042
11617TIP3   OH256265   2.102   0.642   0.798  0.2563  0.6356  0.1248
11617TIP3    H156266   2.016   0.632   0.758 -0.6512 -2.5745  2.4783
11617TIP3    H256267   2.098   0.726   0.844 -2.2636 -0.1116  1.4381
11618TIP3   OH256268   5.413   5.490  13.314 -0.3382  0.1318  0.3114
11618TIP3    H156269   5.403   5.552  13.387 -1.0278 -1.7255  1.8743
11618TIP3    H256270   5.323   5.474  13.285 -0.2592 -0.8484  0.5769
11619TIP3   OH256271   1.754   2.404  13.209 -0.0604  0.4890 -0.1919
11619TIP3    H156272   1.744   2.392  13.115 -0.6759 -0.3065 -0.0339
11619TIP3    H256273   1.736   2.497  13.223 -2.2317  0.1963 -0.6001
11620TIP3   OH256274   1.232   1.264   1.052  0.0448 -0.3655 -0.4242
11620TIP3    H156275   1.138   1.256   1.037  0.1666 -0.8830 -0.9187
11620TIP3    H256276   1.254   1.187   1.105  0.6535 -1.7006 -2.5301
11621TIP3   OH256277   0.884   6.257   5.069  0.0350  0.4617  0.7015
11621TIP3    H156278   0.862   6.350   5.062  0.1573  0.4569  0.2024
11621TIP3    H256279   0.802   6.215   5.093 -0.9756  0.2513 -2.6566
11622TIP3   OH256280   4.142   1.514  13.415 -0.4129 -0.5457  0.0896
11622TIP3    H156281   4.094   1.557  13.486  0.6025 -0.5275  0.7963
11622TIP3    H256282   4.156   1.584  13.350 -1.3595 -0.5656 -0.1467
11623TIP3   OH256283   0.999   5.097   2.971 -0.6326  0.1770 -0.0854
11623TIP3    H156284   1.062   5.169   2.972  0.5803 -0.8756 -0.0312
11623TIP3    H256285   1.025   5.042   2.897 -2.0577  0.2095 -0.6536
11624TIP3   OH256286   3.784   4.976   4.121 -0.4109 -0.1608  0.2152
11624TIP3    H156287   3.707   4.942   4.168 -2.3045  2.6932 -0.5874
11624TIP3    H256288   3.819   4.899   4.076 -2.6646 -1.6561  0.8011
11625TIP3   OH256289   2.696   6.068  14.456  0.3269  0.2218 -0.2694
11625TIP3    H156290   2.760   6.132  14.426  1.5763 -1.0784 -0.5089
11625TIP3    H256291   2.683   6.010  14.380 -1.0136  0.3547 -0.1657
11626TIP3   OH256292   3.626   1.440  15.504  0.0032 -0.3927 -0.5470
11626TIP3    H156293   3.605   1.396  15.422  0.4455 -2.5001  0.4222
11626TIP3    H256294   3.705   1.491  15.484  0.2417 -1.0669 -1.3769
11627TIP3   OH256295   3.021   6.375  15.254 -0.8193 -0.1367  0.3445
11627TIP3    H156296   3.073   6.401  15.329 -2.7703  3.0933  0.7787
11627TIP3    H256297   2.943   6.333  15.291 -0.0754 -2.0116 -0.1285
11628TIP3   OH256298   2.869   2.929  14.923 -0.4931  0.0282  0.8258
11628TIP3    H156299   2.819   2.994  14.972 -0.3405  0.4620  0.4194
11628TIP3    H256300   2.910   2.979  14.852  0.5285 -0.3116  1.1531
11629TIP3   OH256301   5.297   0.090  12.622  0.2054  0.5245 -0.0115
11629TIP3    H156302   5.216   0.050  12.593  1.0683 -1.9706  0.7510
11629TIP3    H256303   5.340   0.119  12.541 -0.4266 -0.1878 -0.6145
11630TIP3   OH256304   1.433   0.361   0.712  0.3464 -0.0002 -0.2622
11630TIP3    H156305   1.422   0.290   0.649 -0.2006  1.0909 -1.4485
11630TIP3    H256306   1.363   0.347   0.776  0.3674 -0.6339 -0.3744
11631TIP3   OH256307   4.990   4.386   4.325 -0.0807 -0.7269  0.0540
11631TIP3    H156308   4.979   4.461   4.267 -0.6465 -0.2263  0.7854
11631TIP3    H256309   5.078   4.354   4.308  1.0913  1.5642  1.3987
11632TIP3   OH256310   1.189   4.522  15.767 -0.2845  0.0547  0.1516
11632TIP3    H156311   1.095   4.511  15.784 -0.6021  0.2618 -1.2874
11632TIP3    H256312   1.192   4.577  15.689  1.0596  0.5510  0.5268
11633TIP3   OH256313   3.571   3.716  14.540  0.3519 -0.6939  0.2928
11633TIP3    H156314   3.517   3.728  14.462 -0.3362  2.3114  1.1003
11633TIP3    H256315   3.658   3.747  14.514 -0.0062  0.8207  0.7978
11634TIP3   OH256316   3.525   6.222  15.187  0.1980 -0.3486 -0.0097
11634TIP3    H156317   3.431   6.209  15.181 -0.0303  0.8795  0.6450
11634TIP3    H256318   3.562   6.133  15.184 -0.9860 -0.8553  0.0525
11635TIP3   OH256319   3.486   0.895   6.472  0.6475 -0.2413  0.2561
11635TIP3    H156320   3.503   0.803   6.492  1.3616  0.2413  1.9746
11635TIP3    H256321   3.544   0.944   6.530 -2.6181  1.3972  2.4270
11636TIP3   OH256322   1.137   1.916  14.014  0.0449 -0.0126 -0.1104
11636TIP3    H156323   1.052   1.942  14.050 -1.5838 -1.6362 -2.4707
11636TIP3    H256324   1.190   1.996  14.016 -1.7632  1.2130  0.8268
11637TIP3   OH256325   3.206   3.610   2.120 -0.2599  0.0486  0.2723
11637TIP3    H156326   3.130   3.555   2.099  0.2035 -0.6328  0.3320
11637TIP3    H256327   3.200   3.625   2.214  0.6011 -1.4797  0.6127
11638TIP3   OH256328   0.661   0.219   1.653 -0.8295 -0.1136  0.4002
11638TIP3    H156329   0.618   0.144   1.695 -2.5144  1.8747  2.4692
11638TIP3    H256330   0.723   0.250   1.719 -3.1407  2.7466  1.4446
11639TIP3   OH256331   3.639   1.761  17.207  0.3521 -0.0288  0.3154
11639TIP3    H156332   3.731   1.736  17.214  0.5664  0.7884  0.5389
11639TIP3    H256333   3.642   1.853  17.180 -0.3352  0.8220  2.8141
11640TIP3   OH256334   5.265   2.922   0.286 -0.5749  0.4032 -0.4229
11640TIP3    H156335   5.345   2.918   0.235 -1.0670 -0.1037 -1.1728
11640TIP3    H256336   5.203   2.969   0.231 -0.6253  1.3291  0.3984
11641TIP3   OH256337   2.240   5.323   3.548 -0.1656 -0.5916  0.1070
11641TIP3    H156338   2.264   5.341   3.457 -0.7542 -0.8229 -0.0929
11641TIP3    H256339   2.204   5.406   3.579  0.2201 -0.4519  0.1979
11642TIP3   OH256340   2.463   1.023  15.459  0.4625 -0.0544  0.3454
11642TIP3    H156341   2.475   0.945  15.514  0.1084 -0.5764 -0.2927
11642TIP3    H256342   2.537   1.022  15.399 -0.1584 -0.5758 -0.4361
11643TIP3   OH256343   4.319   3.221   2.736  0.9056  0.5782 -0.0770
11643TIP3    H156344   4.282   3.248   2.820 -0.2586  0.4587 -0.5255
11643TIP3    H256345   4.413   3.232   2.746  0.7581  0.8614  1.1345
11644TIP3   OH256346   3.971   3.198  11.143  0.5808 -1.0024  0.2859
11644TIP3    H156347   4.002   3.109  11.157  2.8380 -0.1407  1.4268
11644TIP3    H256348   3.997   3.219  11.054  1.1973 -1.1147  0.4271
11645TIP3   OH256349   1.943   0.296  17.103  0.3640 -0.1912 -0.7685
11645TIP3    H156350   1.881   0.230  17.072  0.7336 -0.0050 -1.9908
11645TIP3    H256351   1.896   0.344  17.171 -0.8319 -0.0817 -1.6306
11646TIP3   OH256352   4.234   3.456   1.392 -0.0343  0.4245 -0.3107
11646TIP3    H156353   4.321   3.488   1.369 -0.2283  0.3170 -1.2353
11646TIP3    H256354   4.209   3.398   1.319 -0.2312 -0.7945  0.6954
11647TIP3   OH256355   1.954   3.332  13.461 -0.4302 -0.5129  0.7346
11647TIP3    H156356   1.889   3.386  13.505  0.0435 -0.0457  0.8657
11647TIP3    H256357   1.994   3.280  13.531 -0.1386 -0.2494  0.7674
11648TIP3   OH256358   0.730   3.237   2.160 -0.0630 -1.0100 -0.0281
11648TIP3    H156359   0.695   3.251   2.073 -0.0759  1.1814  0.2620
11648TIP3    H256360   0.660   3.265   2.219  1.5105  2.3161  0.5619
11649TIP3   OH256361   3.507   2.891  14.356 -0.1686 -0.3427  0.5077
11649TIP3    H156362   3.490   2.797  14.356 -1.3260 -0.1550  0.7893
11649TIP3    H256363   3.547   2.909  14.441 -0.8184 -0.4522  0.8450
11650TIP3   OH256364   6.374   3.282   1.889 -0.0317  0.1470 -0.8946
11650TIP3    H156365   6.367   3.316   1.800  0.3704  2.1144 -0.2163
11650TIP3    H256366   6.339   3.352   1.945 -0.2659 -1.0269  0.5143
11651TIP3   OH256367   4.098   0.107   4.671 -0.3274 -0.3168 -0.2852
11651TIP3    H156368   4.182   0.101   4.626 -0.9467  0.2422 -1.5943
11651TIP3    H256369   4.115   0.164   4.746  0.8627 -1.7401  0.5774
11652TIP3   OH256370   6.539   5.824  11.379 -0.2221 -0.2181  0.3848
11652TIP3    H156371   6.568   5.858  11.463  0.3094 -2.2467  1.0728
11652TIP3    H256372   6.535   5.729  11.391 -1.1690 -0.4858 -1.5637
11653TIP3   OH256373   5.894   1.049  10.453 -0.6466 -0.2244 -0.4090
11653TIP3    H156374   5.824   0.985  10.442 -0.8777  0.1973 -1.5656
11653TIP3    H256375   5.910   1.083  10.365 -0.1214  0.8843  0.0819
11654TIP3   OH256376   4.139   0.343  12.366 -0.0232 -0.3305 -0.6568
11654TIP3    H156377   4.221   0.295  12.373 -1.3774 -2.6541  0.5944
11654TIP3    H256378   4.110   0.355  12.457 -1.7008 -0.8230 -1.0853
11655TIP3   OH256379   0.741   1.855   3.086 -0.0416  0.0922  0.3460
11655TIP3    H156380   0.655   1.827   3.118 -1.1155  2.6983 -0.0693
11655TIP3    H256381   0.802   1.823   3.152 -1.6054  0.4622  2.0681
11656TIP3   OH256382   3.958   6.395   5.140 -0.0799 -0.1831  0.6768
11656TIP3    H156383   3.893   6.452   5.180 -0.4953  1.1697 -1.7025
11656TIP3    H256384   4.042   6.428   5.171 -0.3982  0.4646  0.8549
11657TIP3   OH256385   1.929   2.656   2.653  0.1175  0.1676 -0.2537
11657TIP3    H156386   1.892   2.682   2.737 -1.1070  2.0644 -1.3007
11657TIP3    H256387   1.987   2.583   2.674 -1.3882 -0.4884  1.9929
11658TIP3   OH256388   6.532   6.118  13.071 -0.2211  0.1227 -0.4267
11658TIP3    H156389   6.467   6.182  13.043 -0.8730  0.1189  1.0163
11658TIP3    H256390   6.514   6.041  13.018  0.1171  0.8850 -1.6811
11659TIP3   OH256391   0.087   1.927   4.146 -0.2088  0.2083  0.0057
11659TIP3    H156392   0.173   1.947   4.184  0.0479 -1.8195  0.6335
11659TIP3    H256393   0.024   1.970   4.205  0.3219  0.9438  0.0548
11660TIP3   OH256394   4.089   0.978   5.650  0.1454  0.1355  0.9228
11660TIP3    H156395   4.067   1.007   5.739 -0.1003  0.6293  0.7047
11660TIP3    H256396   4.148   1.044   5.617 -1.3710  1.0823 -0.0242
11661TIP3   OH256397   0.123   0.020  13.369  0.2825  0.4429  0.0646
11661TIP3    H156398   0.188   0.007  13.438  2.9803 -0.1495 -2.3885
11661TIP3    H256399   0.082  -0.065  13.358 -1.2218  0.8914  1.8273
11662TIP3   OH256400   2.708   3.287  16.489 -0.6851  0.1653 -0.0227
11662TIP3    H156401   2.627   3.266  16.443  0.2848 -2.6760 -0.6195
11662TIP3    H256402   2.751   3.352  16.432 -1.5873  0.1132 -0.7888
11663TIP3   OH256403   6.015   2.316   2.600 -0.2564  0.0163  0.1746
11663TIP3    H156404   6.021   2.303   2.505 -1.9292 -0.0632  0.0370
11663TIP3    H256405   5.934   2.366   2.612  1.5234  2.8271  1.3620
11664TIP3   OH256406   4.458   1.017  15.345  0.7795 -0.1900  0.1913
11664TIP3    H156407   4.480   1.079  15.275  3.3793  0.2031  1.2474
11664TIP3    H256408   4.411   1.070  15.410 -2.8296 -0.8196 -1.6363
11665TIP3   OH256409   2.510   4.229   2.260 -0.3996 -0.1698 -0.0753
11665TIP3    H156410   2.599   4.205   2.282  0.2152 -0.8509 -2.8772
11665TIP3    H256411   2.499   4.318   2.294  1.6959  0.2800 -0.4705
11666TIP3   OH256412   4.817   1.613  14.845  0.6998 -0.1072  0.1371
11666TIP3    H156413   4.762   1.641  14.919 -1.9863 -2.7752 -0.6297
11666TIP3    H256414   4.802   1.679  14.778 -0.4177  0.0092  0.4807
11667TIP3   OH256415   0.111   3.478   2.366 -0.0501  0.5486  0.3660
11667TIP3    H156416   0.160   3.547   2.410 -0.4057  0.8092  0.3586
11667TIP3    H256417   0.172   3.404   2.361  0.4249  0.9561  0.1202
11668TIP3   OH256418   4.427   4.203   1.153  0.4937 -0.4482  0.4099
11668TIP3    H156419   4.440   4.187   1.060 -0.5516 -2.0074  0.4851
11668TIP3    H256420   4.429   4.298   1.162  0.4154 -0.2636 -1.2328
11669TIP3   OH256421   1.043   1.096   5.401  0.0962 -0.3692 -0.3605
11669TIP3    H156422   1.054   1.012   5.447  0.5339 -0.4645 -0.6370
11669TIP3    H256423   1.051   1.073   5.309  2.7780  0.3272 -0.3913
11670TIP3   OH256424   4.588   4.610  16.474  0.1078  0.5493 -0.4427
11670TIP3    H156425   4.615   4.701  16.464 -0.5105  0.5415 -2.6357
11670TIP3    H256426   4.544   4.588  16.392 -0.0112 -1.6478  0.1296
11671TIP3   OH256427   0.601   4.980  15.210  0.3647 -0.2353  0.6638
11671TIP3    H156428   0.632   5.002  15.122  0.1928 -0.2730  0.5939
11671TIP3    H256429   0.680   4.978  15.264  0.5397 -0.8172  0.3869
11672TIP3   OH256430   5.162   4.898   2.494  0.9836  0.6117 -0.2078
11672TIP3    H156431   5.085   4.857   2.535  0.5059  0.4983 -1.1758
11672TIP3    H256432   5.169   4.854   2.409  3.2466 -0.7072  0.5760
11673TIP3   OH256433   5.457   4.577   3.672  0.6631  0.5163  0.8911
11673TIP3    H156434   5.409   4.580   3.755  0.4151  0.8575  0.7344
11673TIP3    H256435   5.389   4.583   3.605  0.4364 -3.1477  0.5403
11674TIP3   OH256436   2.576   0.598  11.603 -0.0223 -0.0209  0.0856
11674TIP3    H156437   2.671   0.610  11.599 -0.1896  0.9319 -2.7569
11674TIP3    H256438   2.546   0.611  11.514 -2.8088 -0.8350  0.8115
11675TIP3   OH256439   6.328   0.076  11.400  0.2010  0.6299 -0.0795
11675TIP3    H156440   6.346   0.028  11.319  1.1966 -0.0674  0.5240
11675TIP3    H256441   6.233   0.073  11.409  0.0331  1.0644 -1.4088
11676TIP3   OH256442   1.422   6.347  14.828 -0.0271  0.1584  0.4257
11676TIP3    H156443   1.451   6.297  14.904 -0.3356 -1.7812 -0.6697
11676TIP3    H256444   1.327   6.334  14.825 -0.1020  0.7448  0.0503
11677TIP3   OH256445   0.821   5.157   0.450  0.7429 -0.3843  0.4039
11677TIP3    H156446   0.749   5.211   0.481  0.6370  0.0283 -0.5261
11677TIP3    H256447   0.895   5.218   0.442  1.4642 -0.9611  2.1743
11678TIP3   OH256448   3.369   2.918  16.771 -0.3314  0.6388 -0.2262
11678TIP3    H156449   3.387   2.985  16.705  0.6539 -1.0476 -1.7947
11678TIP3    H256450   3.284   2.942  16.808  0.0614  2.7963 -0.5999
11679TIP3   OH256451   5.896   1.434  15.223 -0.2442  0.4237  0.3646
11679TIP3    H156452   5.819   1.461  15.274 -1.6133 -2.9779  0.3828
11679TIP3    H256453   5.879   1.342  15.201  2.4548  0.4022 -2.2918
11680TIP3   OH256454   0.264   0.389  12.471  0.8088 -0.1628  0.2572
11680TIP3    H156455   0.243   0.297  12.455  0.1984  0.0335 -0.0673
11680TIP3    H256456   0.358   0.389  12.490  0.8634 -0.8215 -0.0018
11681TIP3   OH256457   2.016   3.807  13.076  0.3693 -0.1592  0.5697
11681TIP3    H156458   2.026   3.712  13.070  2.6846  0.0421  0.6226
11681TIP3    H256459   2.016   3.825  13.170 -0.4194 -0.1009  0.5713
11682TIP3   OH256460   1.734   3.731   5.032  0.1277  0.0549 -0.4835
11682TIP3    H156461   1.669   3.800   5.019 -0.1375 -0.2567 -0.8232
11682TIP3    H256462   1.812   3.777   5.063  0.0225  0.5389 -0.9261
11683TIP3   OH256463   0.101   5.697  15.420 -0.3611  0.3993  0.1050
11683TIP3    H156464   0.184   5.650  15.416  0.0258  1.1112 -0.5446
11683TIP3    H256465   0.106   5.748  15.501 -0.0630  0.6220 -0.0534
11684TIP3   OH256466   1.796   4.547   0.875 -0.3340 -0.3451 -0.3410
11684TIP3    H156467   1.848   4.478   0.917 -0.7278 -0.8035 -0.5986
11684TIP3    H256468   1.719   4.502   0.841 -0.0894  0.0532 -1.4388
11685TIP3   OH256469   0.868   4.663   1.866  0.0242  0.1899 -0.4696
11685TIP3    H156470   0.912   4.728   1.812  0.3166 -1.1500 -1.9402
11685TIP3    H256471   0.805   4.621   1.807 -1.2370  0.1413  0.8378
11686TIP3   OH256472   5.540   6.024   3.617  0.4298 -0.2054 -0.2126
11686TIP3    H156473   5.542   5.951   3.679 -1.3833 -0.8681 -0.8852
11686TIP3    H256474   5.449   6.052   3.615  1.2238  2.9048  0.9002
11687TIP3   OH256475   4.091   4.047   5.659  0.3470 -0.2910  0.1734
11687TIP3    H156476   4.111   4.135   5.691 -0.7888  0.0096  0.0935
11687TIP3    H256477   4.058   4.060   5.570 -0.7143 -0.6895  0.4864
11688TIP3   OH256478   0.108   1.416   2.100  0.3625  0.2604  0.1900
11688TIP3    H156479   0.121   1.508   2.122  1.8678 -0.0567  0.7844
11688TIP3    H256480   0.046   1.417   2.027  0.3174  1.7273  0.2138
11689TIP3   OH256481   5.660   5.041  16.516 -0.1219  0.2561  0.3174
11689TIP3    H156482   5.583   5.094  16.535  0.2830  0.4587  1.4326
11689TIP3    H256483   5.729   5.104  16.500 -0.0857  0.0691 -0.2988
11690TIP3   OH256484   1.970   5.377   3.299  0.4291  0.2426  0.1627
11690TIP3    H156485   2.022   5.400   3.222  1.7278 -1.4636  0.4709
11690TIP3    H256486   1.922   5.457   3.321 -0.0242  0.7631 -2.4338
11691TIP3   OH256487   1.420   0.776  11.664 -0.0077 -0.1656 -0.5328
11691TIP3    H156488   1.384   0.690  11.641  2.9473 -1.4804 -0.6859
11691TIP3    H256489   1.423   0.824  11.581  0.8823 -1.0032 -1.0138
11692TIP3   OH256490   4.810   4.650  15.821  0.0000 -0.0563 -0.4750
11692TIP3    H156491   4.850   4.583  15.876  0.3611  0.0950 -0.5561
11692TIP3    H256492   4.742   4.602  15.772  0.1374 -0.3272 -0.4034
11693TIP3   OH256493   1.103   3.221   6.406 -0.1665  0.1419  0.1845
11693TIP3    H156494   1.045   3.168   6.462 -0.6455  0.1362 -0.3078
11693TIP3    H256495   1.112   3.304   6.453 -0.8302  0.2569  0.1246
11694TIP3   OH256496   0.064   2.420  15.679  0.0277 -0.5349  0.0661
11694TIP3    H156497   0.113   2.341  15.703 -1.3941 -1.1500  1.0884
11694TIP3    H256498   0.001   2.432  15.750  0.0127  1.3790 -0.2232
11695TIP3   OH256499   4.240   3.025   4.633 -0.1682  0.8190  0.1689
11695TIP3    H156500   4.264   2.942   4.675 -1.7870 -0.6931 -1.7396
11695TIP3    H256501   4.241   3.089   4.705  0.8432 -0.8710  1.7538
11696TIP3   OH256502   1.102   1.918   4.502  0.2868 -0.4216  0.1173
11696TIP3    H156503   1.128   1.854   4.569 -0.9367 -0.9786  0.0944
11696TIP3    H256504   1.008   1.929   4.515  0.6790  2.6162  1.1367
11697TIP3   OH256505   3.067   1.101  13.810 -0.0343 -0.2780 -0.6674
11697TIP3    H156506   3.036   1.022  13.855  1.7617 -0.4136  0.4073
11697TIP3    H256507   3.148   1.075  13.767  0.6141  0.9703 -0.2618
11698TIP3   OH256508   3.271   2.792  11.725  0.0801  0.2484 -0.6022
11698TIP3    H156509   3.347   2.782  11.668 -0.9114 -1.2244 -1.7553
11698TIP3    H256510   3.258   2.704  11.762 -0.1556  0.8471  0.8103
11699TIP3   OH256511   5.413   0.264  16.353 -0.1489  0.0711  0.0600
11699TIP3    H156512   5.328   0.244  16.392 -0.0493 -0.6186 -0.0626
11699TIP3    H256513   5.465   0.299  16.425 -0.7155  1.0415  0.0090
11700TIP3   OH256514   6.250   5.635  13.826 -0.3207 -0.1369 -0.1806
11700TIP3    H156515   6.182   5.640  13.759  0.1121  0.3783 -0.6002
11700TIP3    H256516   6.288   5.548  13.815 -1.7416 -0.9349  0.9114
11701TIP3   OH256517   0.721   0.826   3.534 -0.0250 -0.2591 -0.2811
11701TIP3    H156518   0.662   0.873   3.475  1.5328  0.0107 -1.6711
11701TIP3    H256519   0.808   0.861   3.516  0.7739 -1.5564  0.8029
11702TIP3   OH256520   1.404   2.839   1.714 -0.4777  0.1337  0.2027
11702TIP3    H156521   1.333   2.868   1.658 -0.7597  0.6869  0.8304
11702TIP3    H256522   1.419   2.747   1.689 -2.9288 -0.7167  1.5431
11703TIP3   OH256523   5.475   4.979  15.833  0.4922  0.0996  0.0912
11703TIP3    H156524   5.463   5.048  15.898  0.9141  0.3905 -0.1371
11703TIP3    H256525   5.390   4.971  15.791  0.1335 -0.2789  0.8547
11704TIP3   OH256526   3.631   1.364   3.438  0.4437  0.3835  0.1060
11704TIP3    H156527   3.709   1.366   3.493 -0.5116 -0.8980  1.6346
11704TIP3    H256528   3.648   1.294   3.374 -0.0545 -1.1169  1.5297
11705TIP3   OH256529   1.027   2.993  13.423  0.9024 -0.1771  0.5960
11705TIP3    H156530   0.934   2.974  13.435  1.0198  0.2923  2.6268
11705TIP3    H256531   1.072   2.911  13.443  0.9851 -0.0174  1.0833
11706TIP3   OH256532   5.569   4.264  17.256 -0.7372 -0.2949  0.4652
11706TIP3    H156533   5.578   4.193  17.320 -0.8396 -0.0677  0.7289
11706TIP3    H256534   5.654   4.266  17.211  0.1044  0.9722  2.0519
11707TIP3   OH256535   2.627   1.060   2.186 -0.7671  0.2837 -0.5513
11707TIP3    H156536   2.633   0.999   2.259  2.6747 -0.5908 -1.3582
11707TIP3    H256537   2.571   1.015   2.122  0.0343 -1.1460 -0.2978
11708TIP3   OH256538   3.790   0.297   6.633 -0.0749 -0.3185  0.8347
11708TIP3    H156539   3.699   0.302   6.603 -0.4262  0.4388  1.9789
11708TIP3    H256540   3.791   0.225   6.696 -0.2657  0.6825  2.0238
11709TIP3   OH256541   4.256   0.422   1.943 -0.1300  0.1915  0.1561
11709TIP3    H156542   4.341   0.431   1.986 -0.8047 -0.7321  1.7355
11709TIP3    H256543   4.273   0.363   1.870  0.4756 -0.4771  0.8227
11710TIP3   OH256544   4.395   1.668   4.100  0.8738 -0.1016 -0.1311
11710TIP3    H156545   4.479   1.697   4.064  0.7423  0.7493  0.2263
11710TIP3    H256546   4.418   1.611   4.173  1.1584  0.7257  0.4428
11711TIP3   OH256547   1.235   0.412   2.082 -0.0175  0.6965 -0.2836
11711TIP3    H156548   1.178   0.481   2.116  0.1752  0.4735  0.5215
11711TIP3    H256549   1.237   0.426   1.988 -2.3625  0.0271 -0.5074
11712TIP3   OH256550   0.753   4.877  11.839 -0.1612 -0.0007  0.1552
11712TIP3    H156551   0.810   4.813  11.796 -1.9229 -0.7951 -1.1640
11712TIP3    H256552   0.796   4.961  11.824  0.4493 -0.5209 -1.2445
11713TIP3   OH256553   0.046   5.992   1.024  0.3786  0.8360 -0.0443
11713TIP3    H156554   0.037   5.939   1.103  1.4154 -2.0689 -1.6789
11713TIP3    H256555  -0.043   6.000   0.990  0.3273 -2.0818 -0.9427
11714TIP3   OH256556   5.230   1.863  13.304  0.0763 -0.3101 -0.4409
11714TIP3    H156557   5.305   1.921  13.287 -0.5128  0.5460 -0.2026
11714TIP3    H256558   5.171   1.879  13.230 -0.6497  0.3489  0.2597
11715TIP3   OH256559   4.171   4.247   2.637  0.1679 -0.7920  0.0810
11715TIP3    H156560   4.184   4.342   2.642 -0.8980 -0.5196 -1.4931
11715TIP3    H256561   4.096   4.236   2.579  0.9507 -2.6474 -0.6628
11716TIP3   OH256562   4.933   0.529   1.456 -0.1511  0.1524  0.6694
11716TIP3    H156563   4.942   0.624   1.463  1.2194  0.3118 -2.0537
11716TIP3    H256564   4.869   0.516   1.386  0.5426 -0.9103  0.2079
11717TIP3   OH256565   6.124   5.420  14.906  0.3350  0.1840  0.0202
11717TIP3    H156566   6.114   5.375  14.989  1.6748 -0.3773 -0.1044
11717TIP3    H256567   6.164   5.355  14.848 -2.0410  0.0149 -1.5763
11718TIP3   OH256568   0.077   2.717  12.820 -0.1422 -0.0986 -0.4384
11718TIP3    H156569  -0.001   2.725  12.876 -0.0716 -1.3381 -0.1349
11718TIP3    H256570   0.056   2.647  12.759  1.1558 -1.2755  0.4078
11719TIP3   OH256571   4.563   5.340   4.651  0.3522  0.0831  0.1289
11719TIP3    H156572   4.590   5.256   4.615 -1.2145 -0.8569  1.0328
11719TIP3    H256573   4.633   5.401   4.626  2.0296 -1.6785  0.3076
11720TIP3   OH256574   5.100   4.388   3.278 -0.2387 -0.0434  0.4357
11720TIP3    H156575   5.066   4.402   3.190 -0.2516 -0.0275  0.4432
11720TIP3    H256576   5.031   4.341   3.323  0.7258 -2.2883 -0.2909
11721TIP3   OH256577   0.608   6.053   0.356  0.2316  0.2587  0.3461
11721TIP3    H156578   0.606   6.057   0.451  0.5085  0.3863  0.3476
11721TIP3    H256579   0.679   6.113   0.331 -0.7917  1.3721 -0.0097
11722TIP3   OH256580   0.054   2.649  11.615  0.1294  0.2326 -0.1015
11722TIP3    H156581   0.044   2.702  11.535  0.3414  1.3008  0.5528
11722TIP3    H256582   0.073   2.713  11.683 -2.1172 -0.4142  1.2291
11723TIP3   OH256583   5.650   4.434   3.491 -0.4041  0.5355 -0.1078
11723TIP3    H156584   5.595   4.385   3.430 -1.2515 -0.7061  1.5659
11723TIP3    H256585   5.589   4.492   3.536 -0.1080  0.1644  0.7889
11724TIP3   OH256586   4.390   1.434   3.359  0.2127  0.0933  0.2474
11724TIP3    H156587   4.333   1.372   3.314 -0.6954 -0.9932  2.7253
11724TIP3    H256588   4.458   1.380   3.398  1.0454  1.0143  0.1089
11725TIP3   OH256589   2.073   2.524   5.250 -0.2849  0.0856  0.7467
11725TIP3    H156590   2.102   2.611   5.221 -0.8865  0.2455  0.5951
11725TIP3    H256591   2.116   2.511   5.334 -0.1833  0.5351  0.7668
11726TIP3   OH256592   0.214   1.476  12.468  0.6355  0.1000  0.0008
11726TIP3    H156593   0.230   1.546  12.405  0.8804  0.1537  0.1177
11726TIP3    H256594   0.264   1.401  12.434  1.0432  0.2296  0.3040
11727TIP3   OH256595   0.102   1.379  13.841 -0.4186  0.5989 -0.3547
11727TIP3    H156596   0.017   1.338  13.824 -0.8816  1.4045 -0.0440
11727TIP3    H256597   0.130   1.342  13.924 -0.3440  0.1447 -0.5792
11728TIP3   OH256598   2.502   4.635   6.379  0.0350  0.5093 -0.1863
11728TIP3    H156599   2.593   4.608   6.389 -0.6160 -1.0169  2.9684
11728TIP3    H256600   2.494   4.714   6.433 -0.7789 -0.1333  0.6519
11729TIP3   OH256601   0.618   4.824   0.604 -0.1264  0.3622 -0.0959
11729TIP3    H156602   0.526   4.800   0.613 -0.4120  1.9874  2.2446
11729TIP3    H256603   0.629   4.899   0.662  2.6988  0.1833 -0.2636
11730TIP3   OH256604   5.622   2.311  12.466 -0.0549 -0.0272 -0.0747
11730TIP3    H156605   5.706   2.274  12.439 -0.1793 -1.7150  1.6359
11730TIP3    H256606   5.581   2.242  12.518 -2.0203  1.1828  0.0832
11731TIP3   OH256607   2.902   0.597  13.448 -0.6984  0.1705  0.0659
11731TIP3    H156608   2.932   0.625  13.534  1.2048  1.6669 -1.0093
11731TIP3    H256609   2.862   0.675  13.410 -0.8901 -0.2720 -0.6708
11732TIP3   OH256610   5.977   1.425   1.173  0.3442 -0.1512  0.1169
11732TIP3    H156611   5.989   1.436   1.078  0.2942 -1.2711 -0.0263
11732TIP3    H256612   6.039   1.356   1.197  0.2912  0.0666  0.8905
11733TIP3   OH256613   4.617   3.100   3.044  0.7457 -0.0130  0.0046
11733TIP3    H156614   4.624   3.190   3.073  1.3519 -0.1670  0.3603
11733TIP3    H256615   4.705   3.078   3.012  0.4175 -0.2436 -0.7591
11734TIP3   OH256616   3.611   5.203   2.978  0.1241 -0.3549  0.0832
11734TIP3    H156617   3.558   5.217   3.056 -0.1794  0.6214 -0.2801
11734TIP3    H256618   3.554   5.152   2.920  0.1140 -0.5361  0.2515
11735TIP3   OH256619   0.666   0.987  11.149 -0.0550 -0.3993  0.2399
11735TIP3    H156620   0.724   1.049  11.194 -2.9161  1.5959  1.4637
11735TIP3    H256621   0.683   0.903  11.191  3.0977 -0.3536 -0.6575
11736TIP3   OH256622   1.275   1.099   5.575  0.0054 -0.8828  0.3812
11736TIP3    H156623   1.322   1.020   5.548  1.3654  0.5142 -1.6069
11736TIP3    H256624   1.204   1.107   5.511 -0.6610 -0.9464  1.1028
11737TIP3   OH256625   2.489   0.562   3.111  0.3157 -0.1986 -0.6557
11737TIP3    H156626   2.402   0.601   3.102  0.8525  0.8914 -1.3198
11737TIP3    H256627   2.478   0.493   3.177 -1.2176 -0.6062 -1.3059
11738TIP3   OH256628   4.354   4.244  16.586  0.5595  0.0507  0.1531
11738TIP3    H156629   4.332   4.256  16.678 -1.1805 -0.3736 -0.1539
11738TIP3    H256630   4.364   4.333  16.552  0.7415  0.2243  0.6612
11739TIP3   OH256631   6.558   6.659  15.518  0.2077 -0.1385 -0.3781
11739TIP3    H156632   6.570   6.718  15.444  0.3734  1.8255  1.1293
11739TIP3    H256633   6.464   6.647  15.524  0.1835 -0.1910 -0.8166
11740TIP3   OH256634   2.203   3.545  14.769  0.3832 -0.0206  0.4973
11740TIP3    H156635   2.179   3.624  14.722 -0.3041 -0.7741 -0.4537
11740TIP3    H256636   2.121   3.512  14.805  0.3972 -1.1419 -0.4546
11741TIP3   OH256637   0.086   0.493  11.681  0.3862 -0.0537 -0.3870
11741TIP3    H156638   0.180   0.499  11.667  0.2948 -0.7373 -1.3346
11741TIP3    H256639   0.051   0.573  11.642  0.6916  0.9491  1.2962
11742TIP3   OH256640   5.567   6.271   4.398  0.1732 -0.4060 -0.1185
11742TIP3    H156641   5.537   6.354   4.360 -0.1912  0.2125  1.4282
11742TIP3    H256642   5.512   6.260   4.475  0.2192 -2.1112 -0.3060
11743TIP3   OH256643   4.606   4.331  11.439 -0.3053 -0.0857  0.0378
11743TIP3    H156644   4.594   4.413  11.487 -0.1650  0.2896 -0.5585
11743TIP3    H256645   4.612   4.358  11.347 -2.0446 -0.9277 -0.3525
11744TIP3   OH256646   0.026   3.692   1.058  0.2598 -0.2063 -0.3016
11744TIP3    H156647  -0.064   3.689   1.090  0.2186  0.5250 -0.3197
11744TIP3    H256648   0.045   3.786   1.050  1.3627 -0.3246  0.6720
11745TIP3   OH256649   3.824   1.885  15.206 -0.8331  0.5443 -1.1217
11745TIP3    H156650   3.799   1.810  15.151 -0.2977 -0.0983 -0.5084
11745TIP3    H256651   3.768   1.877  15.283  0.4380 -0.2770 -0.2390
11746TIP3   OH256652   6.506   1.023   3.338 -0.2221  0.6791  0.2973
11746TIP3    H156653   6.418   1.020   3.299 -0.0851 -0.3094  0.0202
11746TIP3    H256654   6.544   0.938   3.315  1.3662  1.6577 -0.8943
11747TIP3   OH256655   1.218   0.956   1.609  0.1851  0.1742 -0.5485
11747TIP3    H156656   1.132   0.997   1.602  0.5766  1.1302 -0.0370
11747TIP3    H256657   1.264   0.981   1.529  0.4486  0.8243 -0.2045
11748TIP3   OH256658   3.914   2.307   6.005 -0.7952  0.3265  0.1829
11748TIP3    H156659   3.927   2.393   5.966  1.7351 -1.2842 -2.9440
11748TIP3    H256660   3.987   2.297   6.066 -1.2001  0.4288  0.6947
11749TIP3   OH256661   5.271   2.893   3.672  0.0353  0.5644  0.2702
11749TIP3    H156662   5.179   2.917   3.660  0.2023  2.7697  2.5410
11749TIP3    H256663   5.318   2.942   3.605 -0.2464  1.7191  0.8813
11750TIP3   OH256664   2.626   0.285  11.002 -0.1111  0.2946  0.6061
11750TIP3    H156665   2.638   0.377  10.977  0.3741 -0.0480 -0.4837
11750TIP3    H256666   2.699   0.239  10.961 -1.2698 -0.8218 -0.2923
11751TIP3   OH256667   3.632   3.525   4.923 -0.2288 -0.2073 -0.9530
11751TIP3    H156668   3.665   3.523   4.833 -2.3902  0.7599 -1.8504
11751TIP3    H256669   3.569   3.454   4.927 -0.2391 -0.1627 -0.2354
11752TIP3   OH256670   6.258   5.786   0.156  0.0855 -0.6049  0.0648
11752TIP3    H156671   6.267   5.712   0.097 -1.0217  0.3121 -1.3205
11752TIP3    H256672   6.216   5.750   0.234 -0.5084 -1.4265 -0.6234
11753TIP3   OH256673   0.151   2.218   2.491 -0.2303 -0.3339 -0.3345
11753TIP3    H156674   0.155   2.289   2.427  2.1018 -0.0723 -0.0081
11753TIP3    H256675   0.243   2.202   2.514 -0.8591 -1.9262  1.2951
11754TIP3   OH256676   4.776   5.817  15.686 -0.5356  0.3789 -0.0063
11754TIP3    H156677   4.863   5.793  15.719 -0.0341  0.7982 -0.9730
11754TIP3    H256678   4.778   5.792  15.593 -0.1349  3.5219 -0.9698
11755TIP3   OH256679   1.723   3.973   5.553 -0.3265  0.1059  0.1566
11755TIP3    H156680   1.690   4.011   5.471 -1.2348 -0.3939  0.2828
11755TIP3    H256681   1.723   3.879   5.538 -2.1730 -0.1276  1.3063
11756TIP3   OH256682   1.744   3.865  16.146  0.2918  0.2496 -0.3795
11756TIP3    H156683   1.695   3.837  16.068  1.1865  1.4707 -1.4188
11756TIP3    H256684   1.770   3.956  16.127  0.1879  0.7161  1.5227
11757TIP3   OH256685   6.103   3.126   0.766 -0.0887 -0.6834  0.0028
11757TIP3    H156686   6.080   3.116   0.673  0.5262  2.8659 -0.6801
11757TIP3    H256687   6.045   3.065   0.811 -1.9396 -1.0207 -2.5503
11758TIP3   OH256688   4.013   5.561  11.236 -0.2341  0.1191 -0.1526
11758TIP3    H156689   4.079   5.491  11.233 -0.0160  0.3417 -0.7157
11758TIP3    H256690   3.966   5.546  11.317 -0.5310 -0.9950 -0.5157
11759TIP3   OH256691   4.785   1.712  14.591  0.3911  0.3189  0.1639
11759TIP3    H156692   4.873   1.738  14.565  1.1176 -1.8719  0.2157
11759TIP3    H256693   4.746   1.675  14.512  0.9511 -2.1477  0.9245
11760TIP3   OH256694   0.134   5.122  15.652  0.0215 -0.0914 -0.5573
11760TIP3    H156695   0.138   5.110  15.557 -1.7520 -1.9998 -0.4449
11760TIP3    H256696   0.089   5.206  15.663 -1.9529 -0.9818 -1.4373
11761TIP3   OH256697   3.598   2.943  16.073 -0.0262 -0.0733 -0.0635
11761TIP3    H156698   3.564   2.855  16.056 -0.6439 -0.1259  1.3330
11761TIP3    H256699   3.668   2.930  16.137 -0.0863  0.4495  0.1134
11762TIP3   OH256700   6.326   6.714   1.149  0.5080  0.3792  0.1992
11762TIP3    H156701   6.272   6.710   1.228 -0.5551 -1.9861 -0.5676
11762TIP3    H256702   6.414   6.688   1.178  0.2975  0.2548  0.7292
11763TIP3   OH256703   1.907   5.674   1.021  0.3504 -0.5671 -0.1714
11763TIP3    H156704   1.862   5.658   0.938 -0.4058 -0.2223  0.1644
11763TIP3    H256705   1.999   5.651   1.004  0.4041  0.4442 -1.3885
11764TIP3   OH256706   0.071   2.126   3.941  0.2334 -0.2496 -0.6536
11764TIP3    H156707   0.022   2.112   4.022  1.9016  1.1095  0.6799
11764TIP3    H256708   0.009   2.170   3.882 -0.3873  0.7640  0.7134
11765TIP3   OH256709   5.686   5.570   4.941  0.3924 -0.5485  0.1397
11765TIP3    H156710   5.658   5.661   4.937 -0.6440 -0.9087 -2.1732
11765TIP3    H256711   5.778   5.572   4.913  0.3356 -0.2405 -0.0303
11766TIP3   OH256712   1.350   5.226   3.310 -0.5760 -0.5306 -0.4562
11766TIP3    H156713   1.271   5.249   3.360 -0.7393  0.1216 -1.0060
11766TIP3    H256714   1.323   5.154   3.253 -0.8031 -0.2179 -0.7387
11767TIP3   OH256715   5.069   6.123   5.409  0.3146  0.2935 -0.2388
11767TIP3    H156716   5.072   6.131   5.505 -1.4795 -1.6429  0.0687
11767TIP3    H256717   5.040   6.208   5.378  3.6192  1.8858  0.6313
11768TIP3   OH256718   2.911   5.004  14.522 -0.2301  0.3436  0.1471
11768TIP3    H156719   2.897   4.992  14.428  3.2353 -0.0834 -0.4708
11768TIP3    H256720   2.918   4.915  14.557  1.9808  0.4365  0.0696
11769TIP3   OH256721   4.533   5.831   1.635  0.0753  0.7336 -0.2486
11769TIP3    H156722   4.438   5.836   1.631  0.0711  0.3746 -0.6194
11769TIP3    H256723   4.554   5.840   1.728 -0.4276 -1.1114  0.0718
11770TIP3   OH256724   2.368   1.463  17.106 -0.2534 -0.4981 -0.1699
11770TIP3    H156725   2.365   1.486  17.199  3.5435  5.1450 -0.9765
11770TIP3    H256726   2.294   1.510  17.067 -1.9211 -2.9592 -0.1966
11771TIP3   OH256727   6.440   5.419  16.014 -0.1573 -0.4400  0.3555
11771TIP3    H156728   6.472   5.501  16.051 -0.5534  1.0028 -2.2557
11771TIP3    H256729   6.488   5.351  16.061  1.4103  1.3339  1.4699
11772TIP3   OH256730   5.020   2.900  15.900  0.0188 -0.9147  0.4006
11772TIP3    H156731   5.106   2.927  15.868 -0.2974  1.6664  1.4974
11772TIP3    H256732   4.960   2.921  15.828 -0.0961  0.6116  0.8984
11773TIP3   OH256733   1.090   1.076  12.183 -0.2755 -0.1229 -0.5081
11773TIP3    H156734   0.995   1.073  12.192 -0.1719 -0.4235  0.7177
11773TIP3    H256735   1.110   1.169  12.174 -0.5734  0.1275  1.0798
11774TIP3   OH256736   5.076   5.097   1.425 -0.0069 -0.1511 -0.2001
11774TIP3    H156737   5.122   5.089   1.341 -1.6662 -0.8539 -1.1070
11774TIP3    H256738   4.991   5.134   1.401 -0.2054  0.4321  1.3135
11775TIP3   OH256739   2.086   4.074  12.471  0.3575  0.0020  0.4716
11775TIP3    H156740   2.128   4.015  12.408 -0.1534  1.0038 -0.8410
11775TIP3    H256741   2.150   4.084  12.541  1.0078 -1.0062  0.0467
11776TIP3   OH256742   5.176   3.841  15.585 -0.2797  0.3130  0.0065
11776TIP3    H156743   5.091   3.799  15.594 -0.0477 -0.9317 -2.5770
11776TIP3    H256744   5.236   3.782  15.631 -0.6056  0.3295  0.4519
11777TIP3   OH256745   5.747   6.130   3.184  0.2951  0.1802  0.7553
11777TIP3    H156746   5.830   6.178   3.188  0.3182  0.0678  2.2536
11777TIP3    H256747   5.773   6.038   3.183  0.1982  0.1320  1.7632
11778TIP3   OH256748   6.218   6.162   6.012 -0.2597 -0.1650 -0.1242
11778TIP3    H156749   6.237   6.169   5.919 -1.3540 -0.4606 -0.3909
11778TIP3    H256750   6.299   6.129   6.051  0.0733 -0.4587 -1.0313
11779TIP3   OH256751   0.557   4.499  15.964  0.2450  0.2542 -0.1387
11779TIP3    H156752   0.592   4.531  15.881  1.6721 -0.0501  0.3181
11779TIP3    H256753   0.579   4.406  15.965  0.5084  0.3231  0.7170
11780TIP3   OH256754   1.010   2.928   2.676  0.1081  0.1063  0.7369
11780TIP3    H156755   1.083   2.868   2.691 -0.5122 -1.3551 -1.4718
11780TIP3    H256756   0.979   2.906   2.588 -2.1291  1.6091  1.0576
11781TIP3   OH256757   6.005   6.608   1.901  0.2140  0.2952  0.5106
11781TIP3    H156758   5.942   6.627   1.971 -1.6328  0.8770 -1.2035
11781TIP3    H256759   6.002   6.513   1.890 -0.3016  0.3114  0.5098
11782TIP3   OH256760   4.219   3.255  12.580  0.2597  0.2694 -0.4029
11782TIP3    H156761   4.233   3.339  12.536 -0.8359  0.9757  0.5274
11782TIP3    H256762   4.295   3.244  12.637  0.6558  0.3746 -0.9073
11783TIP3   OH256763   1.960   1.283  14.508 -0.1099  0.1819 -0.0787
11783TIP3    H156764   1.959   1.236  14.591 -2.4998  0.8355  0.3394
11783TIP3    H256765   2.005   1.365  14.527  0.6507 -0.2715  0.1559
11784TIP3   OH256766   3.490   0.623  11.260 -0.3453 -0.3406 -0.4496
11784TIP3    H156767   3.418   0.560  11.273 -0.1016 -0.7844 -1.2065
11784TIP3    H256768   3.539   0.620  11.342 -0.6689 -0.7046 -0.2642
11785TIP3   OH256769   3.907   3.357   4.390 -0.4305  0.1752  0.2705
11785TIP3    H156770   3.868   3.327   4.308 -0.3506 -1.7356  0.8895
11785TIP3    H256771   3.836   3.354   4.454  0.1247 -1.0208  0.8639
11786TIP3   OH256772   6.415   2.000   4.958  0.1333  0.1117 -0.5908
11786TIP3    H156773   6.387   2.087   4.984 -2.0603 -0.6345 -0.2593
11786TIP3    H256774   6.397   1.945   5.034  0.8002 -0.7598 -1.0416
11787TIP3   OH256775   4.873   4.409  15.945  0.0588 -0.8292 -0.1940
11787TIP3    H156776   4.891   4.388  16.037 -0.3266 -0.4371 -0.0322
11787TIP3    H256777   4.780   4.389  15.933 -0.0950 -0.0703 -0.2795
11788TIP3   OH256778   1.221   6.346   2.455  0.2918  0.5861  0.7521
11788TIP3    H156779   1.230   6.368   2.362  0.8337 -0.3746  0.5666
11788TIP3    H256780   1.133   6.376   2.477 -0.1814  0.0407 -0.3026
11789TIP3   OH256781   6.300   6.184   5.732  0.5049 -0.4021  0.5196
11789TIP3    H156782   6.252   6.127   5.671  1.6405 -0.0571 -0.7307
11789TIP3    H256783   6.268   6.272   5.714  1.1434 -0.2470  0.1221
11790TIP3   OH256784   3.171   5.069   6.193  0.6285 -0.9199 -0.5650
11790TIP3    H156785   3.123   5.151   6.200  2.0942 -0.0495 -0.1500
11790TIP3    H256786   3.196   5.063   6.101  2.9907  0.6423 -0.1088
11791TIP3   OH256787   5.994   2.297   3.483 -0.2507  0.2905 -0.2935
11791TIP3    H156788   6.038   2.346   3.553 -1.4639  0.7615  0.1746
11791TIP3    H256789   5.908   2.337   3.477 -1.2434 -1.6924 -0.0208
11792TIP3   OH256790   1.428   6.670  13.784  0.2834  0.1824  0.1365
11792TIP3    H156791   1.490   6.703  13.719 -0.5738  4.2996  1.0838
11792TIP3    H256792   1.343   6.704  13.755 -0.5705 -0.3873  1.8332
11793TIP3   OH256793   3.117   1.519  13.587  0.6297  0.2851  0.2599
11793TIP3    H156794   3.104   1.461  13.512 -0.2864  0.4068  0.3176
11793TIP3    H256795   3.205   1.554  13.574  0.7360 -0.2009 -0.4083
11794TIP3   OH256796   0.196   1.854  17.182 -0.3941 -0.8454 -0.1223
11794TIP3    H156797   0.101   1.849  17.171 -0.5563 -2.2663  1.4076
11794TIP3    H256798   0.213   1.803  17.261  1.0844  3.8113  2.9726
11795TIP3   OH256799   0.666   1.808   0.370  0.4391  0.6055  0.4376
11795TIP3    H156800   0.760   1.791   0.378  1.1368  3.7109  0.0792
11795TIP3    H256801   0.645   1.790   0.279  0.3668 -1.1372  0.7537
11796TIP3   OH256802   0.829   4.226  12.755  0.1442 -0.0590  0.8105
11796TIP3    H156803   0.783   4.299  12.714  3.0100  2.3163  1.5216
11796TIP3    H256804   0.774   4.150  12.736 -1.3463  1.6745 -2.8456
11797TIP3   OH256805   1.890   2.836   3.332 -0.2420 -0.1799  0.1727
11797TIP3    H156806   1.815   2.894   3.343  0.0815  0.2248  0.2466
11797TIP3    H256807   1.855   2.760   3.285 -0.3393  0.7405 -1.2796
11798TIP3   OH256808   4.519   2.583  15.080 -0.6048 -0.1855 -0.1541
11798TIP3    H156809   4.481   2.543  15.002 -0.5136  0.9998 -0.8258
11798TIP3    H256810   4.446   2.590  15.141 -0.5321 -1.7393  0.1485
11799TIP3   OH256811   2.622   0.492   4.572  0.6127 -0.1441  0.2787
11799TIP3    H156812   2.532   0.473   4.543  1.1288 -0.2576 -1.3056
11799TIP3    H256813   2.675   0.484   4.494  1.3988  4.5360  0.0310
11800TIP3   OH256814   0.413   5.337  11.164  1.0210 -0.1625  0.4610
11800TIP3    H156815   0.453   5.286  11.235 -0.2742 -1.1814  0.4877
11800TIP3    H256816   0.377   5.414  11.207 -0.6818 -1.2803  1.1255
11801TIP3   OH256817   1.180   3.559  13.286  0.8245  0.4390  0.0113
11801TIP3    H156818   1.129   3.496  13.235 -0.6709  0.9036  0.8901
11801TIP3    H256819   1.262   3.513  13.304  0.1531 -0.9063 -0.1927
11802TIP3   OH256820   0.316   6.111   3.545  0.3858 -0.7005  0.4353
11802TIP3    H156821   0.399   6.144   3.509 -0.6607  3.0129  0.9752
11802TIP3    H256822   0.321   6.131   3.639 -1.0909 -0.4746  0.4864
11803TIP3   OH256823   0.561   6.287   4.338 -0.8961 -0.3390 -0.1527
11803TIP3    H156824   0.472   6.296   4.304 -1.2620 -1.0624  0.5897
11803TIP3    H256825   0.558   6.210   4.393  0.7071 -1.6060 -1.7218
11804TIP3   OH256826   5.984   1.064   5.699  0.3050 -0.6333 -0.5322
11804TIP3    H156827   6.037   1.052   5.778 -0.2449 -1.5985 -0.2946
11804TIP3    H256828   6.027   1.011   5.632  0.3397 -0.4211 -0.6803
11805TIP3   OH256829   2.736   0.275   2.515 -0.2963 -0.0128  0.0443
11805TIP3    H156830   2.674   0.339   2.550 -0.8113 -0.6666  0.3571
11805TIP3    H256831   2.701   0.191   2.542 -0.0988 -0.4812 -1.0880
11806TIP3   OH256832   4.465   4.781  14.978 -0.0227  0.1501 -0.5814
11806TIP3    H156833   4.378   4.743  14.966  0.1737 -0.6644  0.4506
11806TIP3    H256834   4.457   4.833  15.058  0.2160  0.7519 -0.9517
11807TIP3   OH256835   5.307   2.820  13.863 -0.3493  0.4139  0.0740
11807TIP3    H156836   5.268   2.740  13.899 -2.4699 -0.1518 -3.0899
11807TIP3    H256837   5.237   2.885  13.867 -0.8315  0.2273 -3.0505
11808TIP3   OH256838   0.949   5.237  13.255  0.1381  0.1077 -0.2814
11808TIP3    H156839   0.859   5.258  13.279  0.0026  0.6412 -1.2172
11808TIP3    H256840   0.958   5.267  13.165  1.6518  1.2513  0.2047
11809TIP3   OH256841   1.271   6.447  13.264  0.0268  0.5060 -0.0208
11809TIP3    H156842   1.239   6.375  13.318 -1.0407  1.1031  0.1721
11809TIP3    H256843   1.223   6.523  13.295 -0.4064  0.9232 -1.5911
11810TIP3   OH256844   6.582   4.058  13.687 -0.7638  0.2090  0.0324
11810TIP3    H156845   6.660   4.113  13.674 -0.1099 -0.2053  1.9088
11810TIP3    H256846   6.512   4.104  13.641  0.4901  0.7773 -1.4055
11811TIP3   OH256847   1.784   4.147   3.811  0.1347  0.6956 -0.1499
11811TIP3    H156848   1.835   4.090   3.754 -0.6969  0.6992 -0.9379
11811TIP3    H256849   1.848   4.191   3.866  0.7804 -1.5529  1.0501
11812TIP3   OH256850   4.734   3.631   1.311  0.5483  0.8775  0.3814
11812TIP3    H156851   4.759   3.709   1.262  0.6398  1.0321  0.6683
11812TIP3    H256852   4.817   3.594   1.341  0.5994 -0.0818 -0.8733
11813TIP3   OH256853   3.248   3.184   3.032 -0.3441 -0.2513  0.3523
11813TIP3    H156854   3.248   3.166   2.938  0.5820  1.0981  0.0593
11813TIP3    H256855   3.166   3.232   3.047  1.7675  4.2405 -0.8602
11814TIP3   OH256856   4.411   5.657  11.992 -0.7864  0.4519 -0.1814
11814TIP3    H156857   4.356   5.729  11.962 -2.1165 -0.6820 -0.5750
11814TIP3    H256858   4.351   5.583  12.000  0.2205 -0.2159  1.7777
11815TIP3   OH256859   2.399   5.514   4.026 -0.1846  0.2970  0.1279
11815TIP3    H156860   2.384   5.507   3.932 -0.7484 -1.1671  0.2857
11815TIP3    H256861   2.475   5.572   4.035 -0.6888  1.1960 -1.1638
11816TIP3   OH256862   3.694   4.068   5.092 -0.3073 -0.4950  0.2691
11816TIP3    H156863   3.619   4.013   5.112  0.4906 -1.1427  1.6020
11816TIP3    H256864   3.708   4.119   5.171 -0.1085  0.5584 -0.4167
11817TIP3   OH256865   3.930   3.509  11.133 -0.3458  0.2003  0.0858
11817TIP3    H156866   3.870   3.577  11.102 -0.4123 -0.4024 -1.1726
11817TIP3    H256867   3.904   3.430  11.085  1.3692 -0.1053 -0.4112
11818TIP3   OH256868   5.932   5.296   5.509 -0.8200 -0.4013 -0.5284
11818TIP3    H156869   5.925   5.369   5.448  0.9478 -0.4371 -0.8527
11818TIP3    H256870   5.853   5.300   5.562  0.2294  3.2284  1.0707
11819TIP3   OH256871   1.955   4.726   1.356  0.4568 -0.8599  0.3203
11819TIP3    H156872   1.901   4.805   1.368  1.5410  0.1869 -1.2504
11819TIP3    H256873   2.043   4.753   1.381  0.8883 -1.4757 -0.4639
11820TIP3   OH256874   4.113   3.654  10.879  0.3959  0.2745  0.6466
11820TIP3    H156875   4.190   3.659  10.823 -1.3259  1.0064 -1.8273
11820TIP3    H256876   4.116   3.565  10.914  0.9677 -0.6867 -1.6148
11821TIP3   OH256877   0.286   6.270  10.661  0.0677  0.0434  0.3268
11821TIP3    H156878   0.343   6.195  10.680 -0.3339 -0.1618  0.7737
11821TIP3    H256879   0.267   6.307  10.747 -0.2334  0.2817  0.1585
11822TIP3   OH256880   0.130   5.578   5.492  0.1328  1.0606  0.0485
11822TIP3    H156881   0.084   5.623   5.421  0.0215  2.9165  1.2414
11822TIP3    H256882   0.064   5.565   5.559  0.0829 -1.2685 -0.3814
11823TIP3   OH256883   6.668   4.739  13.692  0.0936  0.3574 -0.1989
11823TIP3    H156884   6.628   4.654  13.710 -2.6974  1.4665 -0.7387
11823TIP3    H256885   6.693   4.735  13.600 -0.7994  0.3810 -0.4508
11824TIP3   OH256886   1.507   2.092   0.655 -0.0837  0.9009  0.1913
11824TIP3    H156887   1.482   2.139   0.576 -1.4065 -0.7292 -0.4012
11824TIP3    H256888   1.543   2.009   0.623  0.3574  0.6561  1.2779
11825TIP3   OH256889   3.952   5.688   4.396 -0.1501  0.1776  0.0419
11825TIP3    H156890   3.915   5.724   4.316 -1.8327 -1.3401  0.0641
11825TIP3    H256891   3.963   5.594   4.378 -2.0166 -0.4988  2.0193
11826TIP3   OH256892   3.381   2.715  10.518 -0.1601  0.2467  0.4934
11826TIP3    H156893   3.358   2.623  10.508  1.2676 -0.1228  0.3747
11826TIP3    H256894   3.405   2.723  10.611  1.5574  0.0310  0.0935
11827TIP3   OH256895   0.890   6.385  14.702  0.2371 -0.7442  0.7350
11827TIP3    H156896   0.925   6.470  14.732  0.3406 -0.7810  0.7203
11827TIP3    H256897   0.920   6.378  14.611  1.9869 -1.7234  1.3471
11828TIP3   OH256898   4.443   4.714   2.016 -0.3556  0.3680  0.4977
11828TIP3    H156899   4.520   4.767   2.038  1.2953 -0.7797 -2.1360
11828TIP3    H256900   4.378   4.778   1.987  0.6080  1.1833  0.0713
11829TIP3   OH256901   1.147   6.575  12.697 -1.2519 -0.1231 -0.2740
11829TIP3    H156902   1.180   6.656  12.737  2.0315 -0.3999 -2.1289
11829TIP3    H256903   1.168   6.507  12.761  0.8325 -0.1165 -0.8808
11830TIP3   OH256904   5.786   2.962   4.353 -0.6411 -0.2973  0.6021
11830TIP3    H156905   5.778   2.907   4.431  0.5608  0.5647  1.3673
11830TIP3    H256906   5.717   2.931   4.294 -0.0201 -2.6089  1.0015
11831TIP3   OH256907   2.985   5.244  15.819 -0.8064  0.0712  0.1253
11831TIP3    H156908   2.995   5.339  15.814 -1.1647  0.1789  1.1195
11831TIP3    H256909   2.897   5.231  15.855 -1.8133 -0.7099 -2.4065
11832TIP3   OH256910   4.860   1.498   2.315 -0.3882 -0.0344  0.6477
11832TIP3    H156911   4.904   1.414   2.297 -0.0259 -0.0632  1.5808
11832TIP3    H256912   4.932   1.559   2.333 -0.6405  0.5539 -0.2784
11833TIP3   OH256913   0.630   4.509   5.583 -0.8611  0.0049 -0.1177
11833TIP3    H156914   0.610   4.461   5.503 -1.8442 -0.3881  0.3404
11833TIP3    H256915   0.556   4.490   5.641  0.1797 -0.3392  1.1609
11834TIP3   OH256916   4.341   5.882  15.680 -0.4099  0.1691 -0.2459
11834TIP3    H156917   4.398   5.868  15.604  1.6188 -0.3058  1.2559
11834TIP3    H256918   4.323   5.976  15.680  1.9052  0.6787  0.1648
11835TIP3   OH256919   0.827   2.684  11.624  0.1426  0.0747 -0.0098
11835TIP3    H156920   0.892   2.658  11.558 -0.3809  0.5004 -0.7035
11835TIP3    H256921   0.814   2.778  11.609 -0.1793  0.1223  0.5355
11836TIP3   OH256922   3.726   0.754   1.292 -0.1972  0.0076  0.8946
11836TIP3    H156923   3.637   0.722   1.308 -0.7673  1.6189  1.0677
11836TIP3    H256924   3.774   0.734   1.373  0.3605 -3.1629 -0.0759
11837TIP3   OH256925   6.677   5.267   5.030  0.0380 -0.1632 -0.2130
11837TIP3    H156926   6.686   5.352   4.987  2.2260 -0.6943 -0.9439
11837TIP3    H256927   6.728   5.208   4.975 -0.2675 -1.6696  1.0679
11838TIP3   OH256928   2.106   1.999  17.202  0.0612  0.0176  0.1002
11838TIP3    H156929   2.128   2.008  17.109  0.3216 -0.5355  0.1047
11838TIP3    H256930   2.191   1.999  17.247 -0.0913  1.0197  0.4136
11839TIP3   OH256931   3.551   6.357  13.625 -0.0356  0.1411 -0.1126
11839TIP3    H156932   3.611   6.427  13.601  1.1622  0.0884  2.3558
11839TIP3    H256933   3.601   6.276  13.614  1.1082  0.1749  3.3996
11840TIP3   OH256934   5.985   4.073   6.012 -0.3359  0.2849  0.3356
11840TIP3    H156935   6.045   4.066   5.937  0.6841  0.5522  1.1068
11840TIP3    H256936   5.945   3.986   6.019  1.7515 -0.6710  1.2357
11841TIP3   OH256937   4.936   1.718   3.444 -0.1616  0.3882  0.3349
11841TIP3    H156938   4.852   1.763   3.431 -0.8014 -0.0080  2.6190
11841TIP3    H256939   4.999   1.789   3.455 -0.5197  0.7055  0.3737
11842TIP3   OH256940   3.620   1.694   4.860  0.0943 -0.3425 -0.1437
11842TIP3    H156941   3.658   1.751   4.927 -2.3091  0.6489  0.4911
11842TIP3    H256942   3.571   1.754   4.803 -2.4015 -1.6477  0.4582
11843TIP3   OH256943   4.725   3.395   3.570  0.8778 -0.4948 -0.4262
11843TIP3    H156944   4.799   3.395   3.631  0.1850  0.2207  0.4541
11843TIP3    H256945   4.670   3.468   3.600 -1.1009 -2.1199  0.0732
11844TIP3   OH256946   6.453   2.277  13.800  0.1613  0.1157  0.0946
11844TIP3    H156947   6.411   2.267  13.715 -0.7269  1.9553  0.2530
11844TIP3    H256948   6.487   2.367  13.799  1.5774 -0.3658  1.0845
11845TIP3   OH256949   4.862   6.452  12.187 -0.2150 -0.0444 -0.2281
11845TIP3    H156950   4.819   6.493  12.112 -0.6012  1.4027  0.7319
11845TIP3    H256951   4.956   6.457  12.166 -0.3541 -0.6668 -1.0810
11846TIP3   OH256952   2.069   4.788  11.133 -0.0531  0.1818 -0.0228
11846TIP3    H156953   2.041   4.822  11.218  0.8296  0.6406  0.0944
11846TIP3    H256954   1.988   4.774  11.085 -1.0367 -4.1844  2.3471
11847TIP3   OH256955   5.251   6.233  11.780 -0.1198 -0.1893 -0.1189
11847TIP3    H156956   5.217   6.151  11.745 -0.5909 -0.1078  0.1437
11847TIP3    H256957   5.250   6.293  11.705 -3.8966  0.8651  0.5573
11848TIP3   OH256958   0.244   4.391   0.063  0.5388 -0.8310 -0.7248
11848TIP3    H156959   0.165   4.441   0.045  0.3630 -0.0516  1.8431
11848TIP3    H256960   0.302   4.409  -0.012 -1.2123 -0.4517 -2.0406
11849TIP3   OH256961   3.619   4.857   2.293  0.1635  0.1291 -0.2170
11849TIP3    H156962   3.611   4.943   2.334  0.4746  0.7147 -1.3455
11849TIP3    H256963   3.709   4.831   2.309 -0.2655 -0.5755  1.2082
11850TIP3   OH256964   4.247   0.302  11.983 -0.3860  0.0921  0.1288
11850TIP3    H156965   4.295   0.385  11.985 -0.5503  0.1669  1.5785
11850TIP3    H256966   4.161   0.322  12.018 -0.2998 -0.7699  0.8629
11851TIP3   OH256967   1.528   5.958  14.424  0.1143 -0.0279  0.3312
11851TIP3    H156968   1.604   6.000  14.385 -0.7476  0.3465 -1.0166
11851TIP3    H256969   1.499   6.018  14.492  0.3596  0.3585  0.0951
11852TIP3   OH256970   1.205   6.494  11.011 -0.5198 -0.0836  0.1942
11852TIP3    H156971   1.287   6.488  10.961 -1.2753  0.6559 -1.1662
11852TIP3    H256972   1.217   6.432  11.083  1.5329  0.5345  0.4580
11853TIP3   OH256973   2.578   6.771   5.030 -0.1464  0.0697  0.5095
11853TIP3    H156974   2.560   6.812   5.115 -0.6298 -2.0670  1.5107
11853TIP3    H256975   2.671   6.748   5.035 -0.2452 -0.3169  0.5899
11854TIP3   OH256976   4.205   5.059   4.983 -0.5808  0.3814  0.1252
11854TIP3    H156977   4.236   4.991   4.923 -1.2560 -0.7644  1.0397
11854TIP3    H256978   4.174   5.129   4.925 -0.2722 -0.2551 -0.8426
11855TIP3   OH256979   5.810   1.198   2.113  0.6190 -0.4188  0.0766
11855TIP3    H156980   5.877   1.163   2.054  1.2733 -1.2495  1.2616
11855TIP3    H256981   5.785   1.123   2.168 -1.5432 -0.2219 -0.5514
11856TIP3   OH256982   5.144   2.284   4.971 -0.0042 -0.2888  0.1421
11856TIP3    H156983   5.079   2.215   4.979  0.2644 -0.7100 -1.1253
11856TIP3    H256984   5.221   2.240   4.935  0.4612  0.5078  0.1483
11857TIP3   OH256985   2.857   3.002  11.487  0.2145  0.3834 -0.0016
11857TIP3    H156986   2.791   3.021  11.554 -0.6088  0.4562 -0.8145
11857TIP3    H256987   2.929   2.961  11.536 -0.2530  0.6751  0.9638
11858TIP3   OH256988   5.980   5.040   0.257 -0.1004 -0.3025 -0.1579
11858TIP3    H156989   6.037   4.978   0.302  0.4652  0.6925  0.5536
11858TIP3    H256990   5.999   5.124   0.299 -0.4145  0.4581 -1.4831
11859TIP3   OH256991   4.232   6.475   0.409  0.5069  0.6491  0.2629
11859TIP3    H156992   4.165   6.467   0.477  0.6306 -0.5572  0.2623
11859TIP3    H256993   4.309   6.434   0.447  0.9127  0.9852 -0.1855
11860TIP3   OH256994   1.025   0.761  12.707  0.3434  0.0891  0.3498
11860TIP3    H156995   1.091   0.712  12.756 -0.6072  0.0975  1.7055
11860TIP3    H256996   0.964   0.792  12.774 -2.9390 -2.7193 -1.0226
11861TIP3   OH256997   3.437   0.158  12.974 -0.3185  1.1491 -0.5130
11861TIP3    H156998   3.510   0.110  13.013 -1.5869 -1.1376 -0.7290
11861TIP3    H256999   3.473   0.198  12.895  0.6340 -0.2759 -0.8371
11862TIP3   OH257000   5.752   4.258  11.861 -0.8082  0.3177  0.2111
11862TIP3    H157001   5.830   4.202  11.867 -0.3244  1.0096  0.5300
11862TIP3    H257002   5.733   4.262  11.768 -1.1902 -0.8235  0.2191
11863TIP3   OH257003   1.679   4.559   3.586 -0.0533  0.2782  0.3246
11863TIP3    H157004   1.701   4.602   3.669 -0.5444  1.6122 -0.1960
11863TIP3    H257005   1.677   4.466   3.607 -1.1582  0.6334  2.0602
11864TIP3   OH257006   5.798   3.599  12.145  0.6594  0.3518  0.9770
11864TIP3    H157007   5.735   3.615  12.074  1.8015  1.9043  0.2395
11864TIP3    H257008   5.807   3.504  12.148 -2.4532 -0.0180  1.8355
11865TIP3   OH257009   1.268   4.513  15.116 -0.7017 -0.1983 -0.6305
11865TIP3    H157010   1.355   4.503  15.078 -0.7398 -0.0788 -0.7508
11865TIP3    H257011   1.259   4.439  15.176 -0.9306 -0.8133 -1.4076
11866TIP3   OH257012   2.734   6.568   0.128  0.1362  0.2899 -0.1164
11866TIP3    H157013   2.658   6.626   0.120 -1.0548 -1.0548  0.8790
11866TIP3    H257014   2.785   6.584   0.049 -1.5941  0.6604 -1.2214
11867TIP3   OH257015   5.728   1.749  17.145 -0.6043 -0.5017  0.0441
11867TIP3    H157016   5.678   1.693  17.205 -1.8338 -0.8935 -1.3008
11867TIP3    H257017   5.779   1.687  17.092  1.7082 -0.1068  1.6371
11868TIP3   OH257018   0.920   2.233  14.103  0.5680 -0.3659  0.1151
11868TIP3    H157019   0.835   2.188  14.102  0.1858  0.3311 -0.8534
11868TIP3    H257020   0.897   2.326  14.097  1.4185 -0.2403 -2.0716
11869TIP3   OH257021   2.982   1.788   3.735  0.3794 -0.2339 -0.0887
11869TIP3    H157022   2.909   1.823   3.684 -1.9134 -0.6471  2.6303
11869TIP3    H257023   3.023   1.866   3.774  0.6888 -0.0680 -0.7413
11870TIP3   OH257024   2.952   4.541   1.558  0.5346  0.1806 -0.1461
11870TIP3    H157025   2.915   4.524   1.644  1.7249 -0.0114  0.3456
11870TIP3    H257026   2.985   4.456   1.530 -0.9112 -0.0382 -1.3519
11871TIP3   OH257027   1.287   2.135  16.130  0.3645  0.5606  0.0148
11871TIP3    H157028   1.251   2.220  16.155  0.6099  1.4236 -2.3176
11871TIP3    H257029   1.369   2.156  16.085  1.2455 -1.0448  0.7948
11872TIP3   OH257030   0.214   2.892   3.224  0.0069  0.1408 -0.4045
11872TIP3    H157031   0.216   2.817   3.282 -3.0209 -1.0039 -1.5349
11872TIP3    H257032   0.200   2.854   3.137 -0.6933  1.9408 -1.1240
11873TIP3   OH257033   6.517   5.682  16.604  0.0682 -0.1639 -0.0052
11873TIP3    H157034   6.454   5.612  16.588 -0.7251  0.3282  0.8818
11873TIP3    H257035   6.601   5.645  16.577 -0.1632 -1.8656  1.4179
11874TIP3   OH257036   1.879   6.082   3.215 -0.0373 -0.1349 -0.0184
11874TIP3    H157037   1.917   6.092   3.302  0.6927  0.6807 -0.4132
11874TIP3    H257038   1.822   6.006   3.222 -1.4403  1.0141  1.6679
11875TIP3   OH257039   5.110   3.862  10.479  0.4070 -0.2920  0.8259
11875TIP3    H157040   5.085   3.858  10.571  0.5221 -1.2988  0.8183
11875TIP3    H257041   5.119   3.956  10.461 -1.7367  0.0436  1.2640
11876TIP3   OH257042   1.865   4.892  12.730 -0.9528 -0.2089 -0.3990
11876TIP3    H157043   1.878   4.978  12.689 -1.4455  0.8451  1.5100
11876TIP3    H257044   1.781   4.900  12.775 -0.0227 -0.9299  1.5793
11877TIP3   OH257045   4.089   5.841  12.803 -0.0896  0.1539  0.2280
11877TIP3    H157046   4.089   5.819  12.710  1.9507  1.8781 -0.2726
11877TIP3    H257047   4.134   5.926  12.807  2.5452 -1.1921  3.0125
11878TIP3   OH257048   3.251   3.684   1.551  0.2588  0.3807  0.0851
11878TIP3    H157049   3.324   3.699   1.612  0.7161  0.4171 -0.4610
11878TIP3    H257050   3.181   3.648   1.606  0.8266 -0.0342  0.5564
11879TIP3   OH257051   4.466   4.958  12.883  0.0455 -0.8259 -0.3831
11879TIP3    H157052   4.383   4.925  12.917  0.0422  0.2781  0.7350
11879TIP3    H257053   4.441   5.030  12.825  0.2511  0.9324  1.5972
11880TIP3   OH257054   4.471   1.062  14.536 -0.4960  0.1224 -0.2749
11880TIP3    H157055   4.438   1.005  14.605 -0.3459  0.7901  0.3619
11880TIP3    H257056   4.503   1.139  14.582  1.0985 -0.1039 -0.9665
11881TIP3   OH257057   0.123   3.079   1.324 -0.0006 -0.0229 -0.2888
11881TIP3    H157058   0.044   3.044   1.365  0.8296 -0.3341  1.1389
11881TIP3    H257059   0.133   3.031   1.243 -1.0733 -0.2349 -0.2997
11882TIP3   OH257060   6.436   0.890   3.043  0.0416  0.0011 -0.5207
11882TIP3    H157061   6.355   0.912   3.091 -0.5913 -0.5368 -1.3171
11882TIP3    H257062   6.440   0.955   2.973  0.7056  0.4866 -0.0366
11883TIP3   OH257063   4.736   6.663   2.504  0.1281  0.2308  0.1065
11883TIP3    H157064   4.737   6.578   2.461  0.8451  1.2824 -2.0734
11883TIP3    H257065   4.811   6.660   2.564  2.2232  0.3993 -2.3210
11884TIP3   OH257066   4.060   4.167  13.999 -0.1606 -0.0147  0.5022
11884TIP3    H157067   4.074   4.262  13.998  0.8931 -0.1372  1.3883
11884TIP3    H257068   4.106   4.136  13.921  0.9910  0.0471  1.1291
11885TIP3   OH257069   6.531   3.591   6.197  0.1581 -0.0125 -0.3565
11885TIP3    H157070   6.436   3.593   6.188  0.0230  1.0771  0.9552
11885TIP3    H257071   6.559   3.680   6.175  1.0032 -0.5966 -1.7716
11886TIP3   OH257072   5.845   3.843   3.173  0.0803  0.2307  0.0660
11886TIP3    H157073   5.850   3.877   3.083 -0.7365 -0.9457 -0.4546
11886TIP3    H257074   5.914   3.776   3.177 -0.3991 -0.2738  0.0463
11887TIP3   OH257075   0.645   2.212   5.260  0.4190  0.1228 -0.1046
11887TIP3    H157076   0.562   2.255   5.241  1.3891  3.1038  1.7542
11887TIP3    H257077   0.704   2.240   5.191  0.8286  1.1260  0.6368
11888TIP3   OH257078   4.513   5.698  14.628  0.8397 -0.2793 -0.0058
11888TIP3    H157079   4.505   5.614  14.674  1.7512 -0.5461 -0.3093
11888TIP3    H257080   4.423   5.726  14.613  0.5151 -1.6131 -0.6501
11889TIP3   OH257081   2.473   4.460  13.741  0.4585  0.0885 -0.7838
11889TIP3    H157082   2.518   4.376  13.748 -1.1956 -0.7188  1.7823
11889TIP3    H257083   2.406   4.446  13.674  0.2409 -0.6324 -0.4226
11890TIP3   OH257084   1.082   5.268  11.359 -0.7705 -0.3830  0.5485
11890TIP3    H157085   1.134   5.346  11.379  0.5713 -1.1577  0.2210
11890TIP3    H257086   1.097   5.209  11.433 -3.3120  0.3312  1.7744
11891TIP3   OH257087   3.528   1.873  15.459 -0.2543  0.6736  0.3111
11891TIP3    H157088   3.514   1.786  15.496  0.7336 -0.1061 -1.0984
11891TIP3    H257089   3.516   1.933  15.534 -0.0047 -0.7128  1.4946
11892TIP3   OH257090   5.284   4.920  12.981  0.7201 -0.3872 -0.1272
11892TIP3    H157091   5.372   4.887  12.999  0.9485  1.1574  2.0576
11892TIP3    H257092   5.260   4.968  13.061 -2.1780 -0.8959 -0.5727
11893TIP3   OH257093   0.916   5.607  13.429 -0.1248 -0.0746  0.3546
11893TIP3    H157094   0.957   5.692  13.446 -2.4408  1.3770 -0.7342
11893TIP3    H257095   0.915   5.600  13.333 -2.3327  0.0350  0.3020
11894TIP3   OH257096   3.201   2.231  13.027 -0.5327 -0.0214  0.1455
11894TIP3    H157097   3.273   2.192  13.076 -1.0991 -0.4209  0.6732
11894TIP3    H257098   3.242   2.265  12.948  0.1097 -0.9857  0.0399
11895TIP3   OH257099   1.653   3.985   2.489 -0.1149  0.2922 -0.1450
11895TIP3    H157100   1.690   4.069   2.460 -2.5932  0.7789 -2.2563
11895TIP3    H257101   1.715   3.920   2.457 -0.1100  1.1531 -2.0949
11896TIP3   OH257102   4.065   4.780  14.335  0.3844  0.1115 -0.5369
11896TIP3    H157103   3.987   4.814  14.291  0.8110  0.3116 -1.1501
11896TIP3    H257104   4.134   4.842  14.313  0.5797  0.3109  0.5702
11897TIP3   OH257105   1.457   2.294   0.826 -0.4065 -0.3921  1.1114
11897TIP3    H157106   1.495   2.218   0.783 -1.0754 -1.1600  1.8478
11897TIP3    H257107   1.439   2.355   0.754  0.3393 -0.8338  0.5397
11898TIP3   OH257108   0.248   5.841  14.595  0.3474  0.0262  0.2484
11898TIP3    H157109   0.272   5.846  14.687 -0.3611  0.3153  0.4301
11898TIP3    H257110   0.200   5.922  14.578  0.4389 -0.0406 -0.3625
11899TIP3   OH257111   5.928   1.778  15.909  0.1145 -0.2370 -0.9494
11899TIP3    H157112   5.930   1.760  15.815  2.6671 -0.1521 -0.9776
11899TIP3    H257113   5.942   1.873  15.915 -0.7375 -0.1257 -0.4571
11900TIP3   OH257114   0.288   2.021   0.238  0.5865  0.0624  0.4724
11900TIP3    H157115   0.300   1.931   0.208 -0.8152 -0.0376  0.1538
11900TIP3    H257116   0.354   2.033   0.306  2.0777 -0.5538 -0.8208
11901TIP3   OH257117   2.073   5.987   0.150 -0.2874 -0.1019 -0.2015
11901TIP3    H157118   2.013   5.936   0.095  0.2532  1.3753 -2.2548
11901TIP3    H257119   2.108   5.922   0.212 -1.3569 -1.7116 -1.1890
11902TIP3   OH257120   0.184   3.325  16.833  0.0730  0.5431 -0.1038
11902TIP3    H157121   0.267   3.371  16.819  1.7889 -2.1390  0.5061
11902TIP3    H257122   0.195   3.243  16.785 -1.7614 -0.3906  1.0060
11903TIP3   OH257123   1.682   0.530  14.647  0.4461  0.6810 -0.5292
11903TIP3    H157124   1.661   0.560  14.558  0.8165 -0.5055 -1.0434
11903TIP3    H257125   1.597   0.520  14.690  0.2931  1.7956 -0.5639
11904TIP3   OH257126   4.572   5.514  14.933  0.6087 -0.1877 -0.2606
11904TIP3    H157127   4.594   5.473  14.849 -0.8825  0.5663 -1.0670
11904TIP3    H257128   4.627   5.592  14.937 -0.1414  0.4053 -1.1216
11905TIP3   OH257129   1.553   4.644  11.745 -0.0125  0.0621  0.4360
11905TIP3    H157130   1.611   4.593  11.688 -2.5348 -1.4982 -0.8990
11905TIP3    H257131   1.576   4.735  11.727  2.0834 -0.4828  0.0884
11906TIP3   OH257132   3.739   2.032   0.431  0.0603 -0.7523 -0.6985
11906TIP3    H157133   3.824   2.057   0.395  0.4453 -2.1311 -0.7888
11906TIP3    H257134   3.692   1.996   0.356 -1.0085  0.8869 -0.8764
11907TIP3   OH257135   2.221   0.252   2.449  0.1034  0.0671 -0.0399
11907TIP3    H157136   2.294   0.203   2.411  1.6154  1.5646  0.7817
11907TIP3    H257137   2.241   0.256   2.543 -0.8148  0.8615  0.1380
11908TIP3   OH257138   2.170   0.211   5.155 -0.2301  0.2725  0.0290
11908TIP3    H157139   2.115   0.252   5.222 -0.6850  0.7548 -0.6144
11908TIP3    H257140   2.137   0.248   5.073  0.6194  0.0456 -0.4205
11909TIP3   OH257141   3.705   3.525   4.653  0.0174  0.0988 -0.9059
11909TIP3    H157142   3.800   3.531   4.642 -0.1215  0.6311 -1.8956
11909TIP3    H257143   3.670   3.596   4.600 -0.9268  0.1531 -0.2403
11910TIP3   OH257144   4.002   0.594   4.896  0.6449  0.7879  0.4347
11910TIP3    H157145   3.991   0.682   4.933  0.6750  1.1824 -0.4569
11910TIP3    H257146   4.070   0.553   4.950  1.3961  1.6982  0.2163
11911TIP3   OH257147   4.720   4.479  16.669  0.9158 -0.4403  0.1361
11911TIP3    H157148   4.665   4.415  16.713  0.9198 -1.8102 -1.7028
11911TIP3    H257149   4.659   4.534  16.619  0.7460  2.2002  2.9484
11912TIP3   OH257150   4.646   5.711  15.899  0.5915  0.4390  0.4305
11912TIP3    H157151   4.609   5.771  15.964  1.9926 -0.3128  1.9953
11912TIP3    H257152   4.651   5.762  15.819 -2.9506  0.8444  0.3268
11913TIP3   OH257153   2.121   3.467   1.268  0.0476 -0.2280  0.2534
11913TIP3    H157154   2.189   3.441   1.207  0.5424  0.3839  0.5278
11913TIP3    H257155   2.070   3.533   1.221 -2.8825 -3.3920 -1.4742
11914TIP3   OH257156   2.150   3.189   2.551 -0.1198  0.1917 -0.0917
11914TIP3    H157157   2.123   3.278   2.573  2.6268  1.2695 -0.6070
11914TIP3    H257158   2.138   3.184   2.456  0.4205  0.3167 -0.1730
11915TIP3   OH257159   0.505   2.827   1.470  0.1324 -0.0979 -0.2069
11915TIP3    H157160   0.515   2.871   1.555 -0.0684  0.2185 -0.3433
11915TIP3    H257161   0.444   2.883   1.422  0.0764 -0.3927 -0.4802
11916TIP3   OH257162   4.559   2.798   5.323 -0.1203 -0.4279 -0.3606
11916TIP3    H157163   4.605   2.843   5.394  0.9095 -0.5139 -0.9518
11916TIP3    H257164   4.585   2.706   5.331  1.0843 -0.2444 -1.6055
11917TIP3   OH257165   3.212   4.174   1.017  0.0221  0.1120 -0.0047
11917TIP3    H157166   3.181   4.093   1.059 -0.5802  1.0626  1.4625
11917TIP3    H257167   3.274   4.210   1.080 -0.0223  0.9959 -0.4636
11918TIP3   OH257168   6.621   4.459  16.367 -0.1697  0.4538  0.0905
11918TIP3    H157169   6.699   4.514  16.367  0.6728 -0.6892  0.7408
11918TIP3    H257170   6.654   4.371  16.351 -1.4256  0.0578 -0.4370
11919TIP3   OH257171   2.723   5.393  14.982 -0.2417 -0.4643 -0.3830
11919TIP3    H157172   2.791   5.326  14.987  0.3348  0.2166  3.5754
11919TIP3    H257173   2.643   5.345  14.960  1.0852 -1.4940 -3.5698
11920TIP3   OH257174   4.831   3.708  16.781 -0.2847  0.0171 -0.3010
11920TIP3    H157175   4.775   3.778  16.814 -0.5399  0.5596 -1.7861
11920TIP3    H257176   4.823   3.715  16.685  1.9285 -0.1881 -0.5521
11921TIP3   OH257177   3.468   4.684  12.836  0.4404  0.2213 -0.0962
11921TIP3    H157178   3.524   4.762  12.835  1.8140 -0.7337 -0.3984
11921TIP3    H257179   3.525   4.613  12.866 -0.4840 -0.8890 -0.8443
11922TIP3   OH257180   1.896   0.013   2.717  0.3213 -0.0779 -0.4167
11922TIP3    H157181   1.806   0.015   2.684  0.8298  1.6768 -1.8306
11922TIP3    H257182   1.889   0.038   2.809 -0.9665 -3.6082  0.6156
11923TIP3   OH257183   4.214   0.149  15.088  0.3633 -0.2448 -0.5797
11923TIP3    H157184   4.167   0.077  15.046  0.0175  0.5991 -1.6742
11923TIP3    H257185   4.187   0.145  15.180 -1.6186  0.0153 -1.1094
11924TIP3   OH257186   3.709   5.017  16.885  0.2971 -0.0791 -1.2009
11924TIP3    H157187   3.616   5.000  16.897  0.2748  0.0658 -1.1677
11924TIP3    H257188   3.713   5.094  16.830  0.3970  0.1017 -0.9433
11925TIP3   OH257189   3.821   3.826   1.741  0.5269  0.2026 -0.6718
11925TIP3    H157190   3.885   3.897   1.735 -0.8103  1.6030  0.6596
11925TIP3    H257191   3.837   3.773   1.663  1.9333  1.6566 -1.4361
11926TIP3   OH257192   1.319   6.206  12.330  0.0843  0.0860 -1.3474
11926TIP3    H157193   1.402   6.185  12.374 -0.2479 -0.2324 -0.8716
11926TIP3    H257194   1.346   6.254  12.252  0.7661 -0.6979 -1.6091
11927TIP3   OH257195   1.931   4.275   2.289 -0.8247  0.0671 -0.3119
11927TIP3    H157196   2.007   4.304   2.239 -2.1445  1.2519 -1.7214
11927TIP3    H257197   1.906   4.351   2.341 -0.8892 -0.4138  0.3705
11928TIP3   OH257198   3.604   6.403  13.003  0.2662  0.7282 -0.1497
11928TIP3    H157199   3.619   6.309  13.002  0.4329  0.7412  0.5522
11928TIP3    H257200   3.605   6.429  12.911  2.6178  0.4208 -0.2595
11929TIP3   OH257201   2.138   0.532  15.381  0.4311 -0.1926 -0.7936
11929TIP3    H157202   2.069   0.469  15.399 -0.8154  1.4675  0.6173
11929TIP3    H257203   2.095   0.601  15.331  1.2712  0.4706 -0.6243
11930TIP3   OH257204   0.953   3.810  12.723  0.2404  0.3640 -0.0083
11930TIP3    H157205   0.942   3.769  12.809  3.2994 -1.5904 -0.4005
11930TIP3    H257206   0.909   3.749  12.662  1.2345 -0.2055 -0.1710
11931TIP3   OH257207   6.407   3.321   5.631 -0.4835 -0.3136  0.0470
11931TIP3    H157208   6.400   3.352   5.721  1.3635  0.0922  0.0929
11931TIP3    H257209   6.342   3.251   5.624 -1.3052  0.2720  1.3994
11932TIP3   OH257210   4.755   2.141   5.431  0.0764 -0.0051  0.5674
11932TIP3    H157211   4.732   2.054   5.464  1.4097 -0.1607  1.1536
11932TIP3    H257212   4.675   2.193   5.443 -0.9996 -1.3283 -0.5352
11933TIP3   OH257213   3.079   2.016   2.160 -0.1080 -0.1681  0.5491
11933TIP3    H157214   3.098   2.100   2.201 -0.5461 -0.2823  0.9981
11933TIP3    H257215   3.060   1.957   2.233 -0.1470 -0.5692  0.2222
11934TIP3   OH257216   4.741   2.519   1.145 -0.8142 -0.1288  0.0769
11934TIP3    H157217   4.708   2.432   1.123 -1.1279 -0.2135  0.8583
11934TIP3    H257218   4.797   2.542   1.071  0.7752 -1.7957  0.6760
11935TIP3   OH257219   0.464   6.653  10.812 -0.3913 -0.5794  0.8326
11935TIP3    H157220   0.481   6.713  10.884 -0.0172  0.5170 -0.1430
11935TIP3    H257221   0.374   6.672  10.786  0.1352  0.4846 -0.2954
11936TIP3   OH257222   2.101   5.013  12.279 -0.2910  0.1982  0.1798
11936TIP3    H157223   2.146   4.993  12.196 -1.1033  0.0754 -0.2406
11936TIP3    H257224   2.020   4.962  12.275 -0.5313  0.5148  0.8766
11937TIP3   OH257225   2.409   3.596  16.780 -0.1927 -0.3826 -0.0358
11937TIP3    H157226   2.479   3.588  16.844  1.3440  0.7152 -1.4846
11937TIP3    H257227   2.334   3.552  16.820  1.3585 -1.7757  1.5037
11938TIP3   OH257228   1.072   4.013   3.424  0.4919  0.0717  0.3898
11938TIP3    H157229   1.013   3.944   3.454 -0.6821  0.9576  0.1911
11938TIP3    H257230   1.160   3.977   3.438 -0.0678 -2.0315 -1.0158
11939TIP3   OH257231   0.249   4.357   5.059  0.1358  0.3389 -0.4594
11939TIP3    H157232   0.220   4.420   4.993  0.3758 -0.2373 -1.1134
11939TIP3    H257233   0.327   4.316   5.021 -0.6530 -1.1446 -0.5119
11940TIP3   OH257234   3.679   1.215   1.925 -0.2235 -0.7973 -0.0453
11940TIP3    H157235   3.701   1.145   1.864  1.2817  0.0122 -0.4896
11940TIP3    H257236   3.713   1.185   2.009  1.5406 -0.1211 -0.4736
11941TIP3   OH257237   1.453   4.957  17.226  0.0801 -0.2576 -0.0003
11941TIP3    H157238   1.517   4.962  17.155  0.4070  0.3837  0.3297
11941TIP3    H257239   1.505   4.965  17.306 -0.3537 -0.3014  0.2931
11942TIP3   OH257240   4.244   3.708   3.906 -0.2658 -0.3217 -0.1813
11942TIP3    H157241   4.315   3.750   3.858  0.0411 -1.7038 -0.9947
11942TIP3    H257242   4.212   3.641   3.846 -1.0224 -0.9526  0.9101
11943TIP3   OH257243   6.345   0.086  14.397  0.2977  0.2736 -0.0118
11943TIP3    H157244   6.263   0.047  14.366  0.4880  0.8479 -1.3372
11943TIP3    H257245   6.318   0.149  14.463 -0.3602  0.6639 -0.6396
11944TIP3   OH257246   5.668   1.804   5.924 -0.0372  0.3048  0.3509
11944TIP3    H157247   5.746   1.754   5.945 -0.7918 -0.6011  1.1118
11944TIP3    H257248   5.599   1.764   5.977 -0.9257  1.3603  0.0278
11945TIP3   OH257249   4.474   3.562  13.718 -0.1332 -0.5252  0.3109
11945TIP3    H157250   4.464   3.479  13.672 -0.1021 -0.7033  0.6221
11945TIP3    H257251   4.551   3.550  13.774  2.1113  0.9120 -2.2368
11946TIP3   OH257252   0.123   5.320  16.529 -0.2316 -0.6145 -0.0105
11946TIP3    H157253   0.212   5.303  16.497  0.5316  1.0953  1.0802
11946TIP3    H257254   0.111   5.256  16.600 -0.1869 -1.3655 -0.6683
11947TIP3   OH257255   0.797   3.992  17.026  0.1370  0.1976  0.3420
11947TIP3    H157256   0.707   3.991  16.996  0.6340  1.8348 -1.4555
11947TIP3    H257257   0.791   4.003  17.121 -1.5598  1.0655  0.1650
11948TIP3   OH257258   1.039   1.523   5.159 -0.6468 -0.1502 -0.2652
11948TIP3    H157259   1.117   1.471   5.143 -0.8909 -0.5113 -0.3015
11948TIP3    H257260   0.967   1.460   5.158 -0.8863  0.1029  0.2742
11949TIP3   OH257261   2.023   2.839  14.027 -0.3389 -0.0139 -0.0356
11949TIP3    H157262   1.969   2.845  14.106 -0.4673 -1.4223  0.0101
11949TIP3    H257263   1.971   2.785  13.967  0.6706 -0.7272 -0.2896
11950TIP3   OH257264   3.116   6.626  11.530 -0.2840  0.5433  0.1213
11950TIP3    H157265   3.181   6.615  11.460  1.9331 -0.1085  2.1547
11950TIP3    H257266   3.032   6.613  11.486  1.0268 -0.5636 -2.2864
11951TIP3   OH257267   0.323   6.536   0.496 -0.1138  0.0326  0.1044
11951TIP3    H157268   0.356   6.458   0.451  0.3575  1.3023 -1.8697
11951TIP3    H257269   0.393   6.600   0.487 -0.8574  0.9767  0.8747
11952TIP3   OH257270   6.132   6.625   0.078 -0.2198 -0.4721 -0.0942
11952TIP3    H157271   6.060   6.589   0.130 -0.0850  1.6300  1.6900
11952TIP3    H257272   6.096   6.632  -0.011 -2.3012  0.5991  0.7505
11953TIP3   OH257273   3.218   6.222   1.899  0.2979 -0.3997  0.0272
11953TIP3    H157274   3.149   6.288   1.898  1.0215  0.3770 -0.7392
11953TIP3    H257275   3.200   6.169   1.821  0.7563  0.0177 -0.3671
11954TIP3   OH257276   4.144   5.480  16.258 -0.6606 -0.6272  0.4903
11954TIP3    H157277   4.074   5.493  16.194 -0.6784  1.8799  0.9206
11954TIP3    H257278   4.116   5.531  16.334 -0.2074 -2.8098  2.2140
11955TIP3   OH257279   2.564   2.533  14.996 -0.2386  0.4645 -0.2982
11955TIP3    H157280   2.546   2.626  15.012  2.0017  1.1414 -1.2744
11955TIP3    H257281   2.653   2.532  14.961 -0.5668 -1.9772 -1.2451
11956TIP3   OH257282   1.659   2.308  11.794 -0.5886 -0.0850 -0.1948
11956TIP3    H157283   1.655   2.226  11.745  2.1464 -0.6592  0.3583
11956TIP3    H257284   1.719   2.363  11.743  1.8917 -0.4987  2.0374
11957TIP3   OH257285   3.826   2.708   5.848  0.0415  0.0007 -0.1818
11957TIP3    H157286   3.802   2.782   5.903  0.6939 -1.8615  2.8132
11957TIP3    H257287   3.748   2.652   5.847 -0.6679  0.8597 -2.9341
11958TIP3   OH257288   2.260   3.878   5.930  0.1066 -0.4574 -0.0214
11958TIP3    H157289   2.192   3.822   5.966  0.6215 -0.2077  1.4157
11958TIP3    H257290   2.335   3.820   5.916  0.2881 -0.3441  0.4487
11959TIP3   OH257291   5.712   3.208  10.925 -0.5012  0.1257  0.2847
11959TIP3    H157292   5.793   3.244  10.889  0.6377 -1.3131  1.2546
11959TIP3    H257293   5.660   3.185  10.848  0.6067 -0.1936 -0.3997
11960TIP3   OH257294   3.667   4.267   5.301  0.1772 -0.2222 -0.4579
11960TIP3    H157295   3.704   4.338   5.354 -0.2491  0.0791 -0.5582
11960TIP3    H257296   3.580   4.253   5.338 -2.0553  3.0161 -3.7024
11961TIP3   OH257297   0.544   6.548   5.868  0.4834 -0.1225  0.3029
11961TIP3    H157298   0.604   6.515   5.936 -0.7520 -0.8877  1.0517
11961TIP3    H257299   0.463   6.567   5.915 -0.0208  0.4641 -0.7776
11962TIP3   OH257300   3.077   4.709   3.150  0.2606  0.0416  0.5709
11962TIP3    H157301   3.170   4.733   3.151  0.0879  1.0266 -1.6766
11962TIP3    H257302   3.034   4.782   3.106 -1.4717 -0.8144  0.7741
11963TIP3   OH257303   3.000   5.576  14.674  0.0086 -0.0652 -0.0869
11963TIP3    H157304   2.930   5.598  14.613  1.7804 -1.9029 -3.0196
11963TIP3    H257305   3.068   5.536  14.620  2.2432 -0.8032  2.9681
11964TIP3   OH257306   4.211   2.281   4.028  0.2363  0.0437  0.4437
11964TIP3    H157307   4.172   2.228   3.959 -2.5933  1.8203  0.5215
11964TIP3    H257308   4.280   2.225   4.065 -0.2944 -2.1838 -1.6576
11965TIP3   OH257309   4.512   3.773   0.897 -0.1714  0.2567 -0.3559
11965TIP3    H157310   4.562   3.739   0.823 -0.6358  1.9750 -1.5055
11965TIP3    H257311   4.568   3.839   0.936 -0.6923  0.7026 -0.3545
11966TIP3   OH257312   6.767   6.473  11.933  0.4931 -0.1770 -0.2482
11966TIP3    H157313   6.827   6.402  11.911 -2.2195 -2.9414  0.5665
11966TIP3    H257314   6.704   6.473  11.861 -1.2249 -0.7028  1.1947
11967TIP3   OH257315   1.695   3.724   3.930 -0.5068  0.0592 -0.4064
11967TIP3    H157316   1.636   3.783   3.883  0.4222  1.8410  0.5448
11967TIP3    H257317   1.774   3.721   3.876 -0.4411 -0.0827 -0.3040
11968TIP3   OH257318   4.430   3.430  15.800 -0.3172 -0.5285 -0.0037
11968TIP3    H157319   4.428   3.401  15.709 -2.7410  0.5045 -0.3443
11968TIP3    H257320   4.348   3.398  15.838 -0.4527  1.0724  1.1502
11969TIP3   OH257321   5.125   1.605  11.525  0.2197 -0.0648  0.2093
11969TIP3    H157322   5.112   1.669  11.456  0.3319 -0.8799 -0.5852
11969TIP3    H257323   5.038   1.567  11.540  0.2646 -0.1463  0.2653
11970TIP3   OH257324   2.706   5.718  13.850  0.2053  0.0261  0.1347
11970TIP3    H157325   2.720   5.625  13.830 -0.9266  0.0764 -1.0539
11970TIP3    H257326   2.764   5.764  13.789  1.3503  0.1032  1.2605
11971TIP3   OH257327   4.556   0.023  14.563 -0.1612  0.4913 -0.1310
11971TIP3    H157328   4.619   0.079  14.609 -0.0058  0.9424 -0.8812
11971TIP3    H257329   4.476   0.028  14.616  0.5063 -0.3320  0.9993
11972TIP3   OH257330   2.618   4.042  15.712  0.1725 -0.1888 -0.1259
11972TIP3    H157331   2.563   4.108  15.754  0.7172  1.7043 -2.2020
11972TIP3    H257332   2.707   4.062  15.742  0.5486  1.1084 -2.0087
11973TIP3   OH257333   2.238   6.392  15.503  0.0399 -0.3418  0.2668
11973TIP3    H157334   2.312   6.400  15.563 -0.3125 -1.2184  0.8327
11973TIP3    H257335   2.219   6.298  15.499 -1.6369 -0.0617  0.8680
11974TIP3   OH257336   6.680   0.421  15.575 -0.7076 -0.0073  0.1435
11974TIP3    H157337   6.586   0.405  15.560 -0.9364  0.3192  1.1625
11974TIP3    H257338   6.695   0.391  15.664  0.0513  0.4287  0.1650
11975TIP3   OH257339   2.985   0.251   4.541 -0.0982  0.1162 -0.1958
11975TIP3    H157340   2.919   0.221   4.603 -1.6127 -1.2897 -2.3587
11975TIP3    H257341   2.995   0.344   4.560 -2.4337  0.2947  0.4717
11976TIP3   OH257342   2.057   6.398  14.070  0.2367 -0.0262  0.0674
11976TIP3    H157343   2.074   6.421  14.161 -0.3229  0.4164  0.0645
11976TIP3    H257344   2.142   6.368  14.036  0.2921 -0.8586  0.9205
11977TIP3   OH257345   1.857   1.463   3.325  0.5150 -0.1107  0.4966
11977TIP3    H157346   1.873   1.511   3.406  2.6144  0.6624 -0.3156
11977TIP3    H257347   1.940   1.465   3.278 -0.4592 -1.0708 -1.4201
11978TIP3   OH257348   1.844   5.556   1.287 -0.0292  0.3134  0.1931
11978TIP3    H157349   1.861   5.601   1.204  2.8404  0.1498  0.5970
11978TIP3    H257350   1.817   5.468   1.260 -2.2241  1.1362 -0.5369
11979TIP3   OH257351   5.472   1.082  11.606 -0.1556 -0.3584  0.3004
11979TIP3    H157352   5.556   1.035  11.602 -0.6530 -1.1829 -1.4763
11979TIP3    H257353   5.423   1.050  11.530 -1.0894  2.0087 -0.1769
11980TIP3   OH257354   3.570   4.972   4.792  0.3372 -0.0089 -0.2590
11980TIP3    H157355   3.576   5.008   4.881  0.1796 -1.5777  0.4232
11980TIP3    H257356   3.566   5.049   4.735 -0.2633  1.0420  1.1414
11981TIP3   OH257357   3.849   1.217  16.086  0.0737  0.3137 -0.1595
11981TIP3    H157358   3.904   1.294  16.098 -1.1102  1.1478  0.0966
11981TIP3    H257359   3.905   1.143  16.112  1.1939  1.0816 -0.3365
11982TIP3   OH257360   0.397   2.683   0.358  0.1795  0.2234  0.2786
11982TIP3    H157361   0.407   2.588   0.351 -0.3841  0.1803  0.0049
11982TIP3    H257362   0.313   2.702   0.317  0.3772  0.8676  0.1523
11983TIP3   OH257363   5.571   5.647  14.825 -0.1050  0.4733  0.9484
11983TIP3    H157364   5.610   5.675  14.742  0.1855  0.5705  1.1182
11983TIP3    H257365   5.573   5.551  14.821 -0.0729  0.4782  0.8539
11984TIP3   OH257366   3.797   2.999   5.190  0.0227 -0.3840  0.0230
11984TIP3    H157367   3.888   2.994   5.221 -0.5188  0.9588  2.0469
11984TIP3    H257368   3.802   3.051   5.110  0.8891  1.1661  1.0328
11985TIP3   OH257369   3.254   2.766  15.498 -0.0344  0.0226  0.0824
11985TIP3    H157370   3.213   2.848  15.470 -2.4583 -0.4313  2.0017
11985TIP3    H257371   3.204   2.698  15.452  0.4082 -0.4708  0.3268
11986TIP3   OH257372   3.323   4.261   4.893 -0.2052 -0.3126  0.1918
11986TIP3    H157373   3.418   4.262   4.905 -0.3055  0.3873  1.1077
11986TIP3    H257374   3.310   4.251   4.799  0.7586 -1.4869  0.1686
11987TIP3   OH257375   6.672   0.306   3.384  0.1661 -0.1364  1.0062
11987TIP3    H157376   6.641   0.244   3.317 -1.0223  0.1581  1.2624
11987TIP3    H257377   6.675   0.390   3.339  0.2397 -0.0936  1.0903
11988TIP3   OH257378   3.257   5.534  13.722  0.6725 -0.7413  0.4600
11988TIP3    H157379   3.201   5.602  13.759  0.6032 -0.9486  0.7453
11988TIP3    H257380   3.214   5.510  13.640 -0.5396 -1.9919  1.4184
11989TIP3   OH257381   3.395   4.865   1.172  0.2455 -0.0689  0.1735
11989TIP3    H157382   3.487   4.840   1.162  0.0987 -0.0703 -1.4782
11989TIP3    H257383   3.398   4.961   1.181  0.3214  0.2452 -2.3818
11990TIP3   OH257384   4.668   5.864   0.022  0.1903 -0.4264 -0.0035
11990TIP3    H157385   4.636   5.831  -0.062 -2.0056  0.0684  0.5847
11990TIP3    H257386   4.680   5.958   0.007 -0.8546 -0.2181  0.3933
11991TIP3   OH257387   3.486   2.501   4.589 -0.2813  0.0089 -0.3477
11991TIP3    H157388   3.521   2.531   4.673  2.9141  1.6057 -2.0672
11991TIP3    H257389   3.517   2.411   4.581 -0.3564 -0.0541  0.0553
11992TIP3   OH257390   6.097   2.790  11.994 -0.4429  0.3678 -0.0701
11992TIP3    H157391   6.085   2.698  12.016 -0.8006  0.4288  0.0000
11992TIP3    H257392   6.150   2.790  11.915 -0.2197  0.1097  0.0779
11993TIP3   OH257393   2.254   4.926   3.057 -0.2759  0.1034  0.2121
11993TIP3    H157394   2.213   4.973   3.130 -0.9269 -0.9193  0.5330
11993TIP3    H257395   2.217   4.837   3.063 -0.3549  0.0128 -1.3763
11994TIP3   OH257396   4.408   4.340  15.217  0.1631  0.3089 -0.2450
11994TIP3    H157397   4.405   4.291  15.299 -3.0079  1.3937  0.4477
11994TIP3    H257398   4.422   4.431  15.243 -1.1045  0.6978 -0.8192
11995TIP3   OH257399   3.431   2.551   2.726 -0.0797 -0.1733  0.2548
11995TIP3    H157400   3.458   2.573   2.815 -1.7139 -0.7679  0.9317
11995TIP3    H257401   3.502   2.497   2.692  1.2885  1.3380  0.6180
11996TIP3   OH257402   5.307   3.640  12.468  0.5011 -0.8076  0.0398
11996TIP3    H157403   5.389   3.642  12.418  0.3092 -2.4380 -0.3766
11996TIP3    H257404   5.240   3.667  12.406  0.6638  0.4248  0.3539
11997TIP3   OH257405   2.510   3.054   0.255 -0.3644  0.0265  0.1697
11997TIP3    H157406   2.528   3.086   0.167  0.5464 -0.2761  0.2385
11997TIP3    H257407   2.501   2.959   0.245 -0.2725 -0.0075  0.4015
11998TIP3   OH257408   5.120   4.992   0.071 -0.1068  0.2483  0.0252
11998TIP3    H157409   5.028   4.966   0.075 -0.3959  0.9641 -1.2325
11998TIP3    H257410   5.169   4.910   0.071 -0.6379 -0.1252  2.1374
11999TIP3   OH257411   2.996   0.141   5.642 -0.6757  0.2335 -0.1942
11999TIP3    H157412   3.050   0.163   5.718 -1.2559 -1.3578  0.7362
11999TIP3    H257413   2.908   0.167   5.667 -0.6746  0.9675 -0.9032
12000TIP3   OH257414   5.679   3.793   0.551  0.0461  0.0682  0.3252
12000TIP3    H157415   5.763   3.811   0.595  0.6694  0.2532 -0.8872
12000TIP3    H257416   5.618   3.856   0.589  0.4608 -0.0498  1.2134
12001TIP3   OH257417   1.489   4.876   4.876 -0.0136 -0.1696  0.3975
12001TIP3    H157418   1.523   4.788   4.890  0.1871 -0.1838 -0.1349
12001TIP3    H257419   1.435   4.894   4.953  1.0387 -0.2161  1.1553
12002TIP3   OH257420   4.013   1.597   3.156  0.1824 -0.3877 -0.2014
12002TIP3    H157421   4.073   1.549   3.100  0.1498 -0.6185 -0.0392
12002TIP3    H257422   4.013   1.549   3.239 -0.5277 -0.6128 -0.3271
12003TIP3   OH257423   1.963   2.078  10.983 -0.0025  0.4686 -0.1624
12003TIP3    H157424   1.879   2.051  10.945  0.6531 -0.4645 -1.0198
12003TIP3    H257425   2.005   2.130  10.914  0.1703  0.8196  0.2082
12004TIP3   OH257426   4.916   4.665  11.854  0.7926 -0.1076 -0.2699
12004TIP3    H157427   4.927   4.622  11.939  0.7584  1.0664  0.3585
12004TIP3    H257428   4.899   4.594  11.793 -1.1862 -0.8741  1.0517
12005TIP3   OH257429   0.820   2.504   3.044 -0.4586  0.3274 -0.0625
12005TIP3    H157430   0.836   2.584   2.993 -0.0585 -0.2084 -0.8012
12005TIP3    H257431   0.813   2.535   3.135  1.7901  0.9993 -0.0443
12006TIP3   OH257432   2.097   4.647  13.264  0.8273 -0.1958  0.2388
12006TIP3    H157433   2.072   4.570  13.214 -0.5441 -0.4726  1.2706
12006TIP3    H257434   2.176   4.622  13.310 -0.2236 -1.4184  1.4528
12007TIP3   OH257435   6.460   6.408   1.603 -0.3451 -0.1618  0.0968
12007TIP3    H157436   6.498   6.410   1.691  1.7173 -2.5771 -0.6473
12007TIP3    H257437   6.395   6.338   1.606  0.0397 -0.5469 -0.3954
12008TIP3   OH257438   5.902   6.718   0.791  0.4129  0.2278  0.2016
12008TIP3    H157439   5.919   6.743   0.700 -1.3156  1.5899  0.1913
12008TIP3    H257440   5.852   6.637   0.784  3.0582 -1.4892  0.1060
12009TIP3   OH257441   1.471   3.235   5.295  0.2403  0.2748  0.1726
12009TIP3    H157442   1.561   3.208   5.277  0.4400  0.8786  0.2163
12009TIP3    H257443   1.429   3.236   5.209  0.1787 -0.3429  0.1962
12010TIP3   OH257444   2.505   1.733   5.482 -0.1593  0.5778  0.2649
12010TIP3    H157445   2.476   1.823   5.472 -0.0230  0.5788 -0.1371
12010TIP3    H257446   2.601   1.739   5.487  0.0152  0.2935 -1.8442
12011TIP3   OH257447   3.990   1.679   1.299 -0.0238 -0.1751  0.0615
12011TIP3    H157448   4.024   1.595   1.331  0.4666 -1.5202 -3.5048
12011TIP3    H257449   3.902   1.659   1.267  1.3894 -0.5121 -4.2990
12012TIP3   OH257450   0.386   0.268   0.319 -0.4589  0.1163 -0.1461
12012TIP3    H157451   0.421   0.355   0.340  0.3378 -0.1878 -0.2047
12012TIP3    H257452   0.355   0.233   0.402  1.1139 -0.3810  0.2568
12013TIP3   OH257453   3.801   0.347   4.335  0.3200  0.0164 -0.1645
12013TIP3    H157454   3.706   0.337   4.339  0.3058 -0.0116 -0.5314
12013TIP3    H257455   3.832   0.314   4.418  0.0593 -0.5982 -0.3086
12014TIP3   OH257456   2.376   0.103  11.846  0.1451  0.1851 -0.4295
12014TIP3    H157457   2.311   0.139  11.907  1.2674  0.2713  0.7695
12014TIP3    H257458   2.325   0.054  11.782 -1.0874 -0.0701  0.7059
12015TIP3   OH257459   6.591   5.630   4.055  0.2046  0.2743  0.6557
12015TIP3    H157460   6.567   5.581   3.976 -1.0521  1.8393  0.0154
12015TIP3    H257461   6.575   5.568   4.126 -3.1271  0.2041  0.0337
12016TIP3   OH257462   6.301   6.234   5.191  0.5440  0.8726  0.4958
12016TIP3    H157463   6.312   6.324   5.162 -1.1075  1.1061  0.5449
12016TIP3    H257464   6.282   6.185   5.111 -0.5754  0.9298  0.7108
12017TIP3   OH257465   0.979   2.778   6.165  0.8948  0.3637  0.0233
12017TIP3    H157466   1.062   2.816   6.138  1.0204  0.7060  0.8606
12017TIP3    H257467   1.002   2.715   6.234  0.3861  1.2382  1.0269
12018TIP3   OH257468   3.069   6.335  16.382  0.7921 -0.0339  0.1014
12018TIP3    H157469   3.020   6.417  16.368  1.0135  0.5469  2.3484
12018TIP3    H257470   3.152   6.350  16.336 -0.4571 -0.4605 -2.5136
12019TIP3   OH257471   2.595   2.380  13.509  0.6676  0.1792  0.1960
12019TIP3    H157472   2.554   2.423  13.434  2.2380  1.8510  0.2515
12019TIP3    H257473   2.622   2.451  13.567  1.8507 -0.9451  1.0879
12020TIP3   OH257474   5.534   3.262   1.603 -0.2164 -0.6006 -0.3855
12020TIP3    H157475   5.484   3.223   1.531 -0.6880 -1.8563  0.5998
12020TIP3    H257476   5.583   3.189   1.641 -2.0371 -0.5707  2.2683
12021TIP3   OH257477   1.048   2.313   2.812 -0.1039 -0.7383  0.2540
12021TIP3    H157478   1.142   2.331   2.809 -0.1824 -0.1671  0.9192
12021TIP3    H257479   1.038   2.242   2.875 -0.0766 -1.1075 -0.1564
12022TIP3   OH257480   2.723   1.254   1.806 -0.1652  0.1334 -0.6273
12022TIP3    H157481   2.636   1.216   1.820 -0.6771  1.6580  0.5378
12022TIP3    H257482   2.776   1.180   1.776 -1.2941 -1.3740  0.8810
12023TIP3   OH257483   3.104   1.451  14.271  0.4487 -0.2965  0.7155
12023TIP3    H157484   3.097   1.389  14.344 -1.0511 -0.8378  0.1472
12023TIP3    H257485   3.014   1.470  14.248  0.8770 -0.7325 -1.5130
12024TIP3   OH257486   1.272   6.442  16.341  0.2669  0.3176 -0.2779
12024TIP3    H157487   1.214   6.390  16.397 -0.1592 -0.3710 -1.3187
12024TIP3    H257488   1.354   6.447  16.390  0.2602 -1.1956 -0.0509
12025TIP3   OH257489   5.455   3.652   2.993  0.2918 -0.9177  0.7226
12025TIP3    H157490   5.498   3.595   3.056  1.1050 -0.0967  0.9383
12025TIP3    H257491   5.385   3.599   2.954 -0.4067 -1.3547  2.5085
12026TIP3   OH257492   4.990   0.975  12.109 -0.1466  1.0357 -0.0945
12026TIP3    H157493   4.956   0.916  12.042  1.4154  1.1558 -1.0341
12026TIP3    H257494   4.912   1.009  12.153 -1.1277 -1.1245 -0.0112
12027TIP3   OH257495   0.881   4.746   1.507 -0.0873  0.5070  0.4038
12027TIP3    H157496   0.838   4.670   1.547 -1.0208  1.3581  1.0669
12027TIP3    H257497   0.975   4.728   1.516 -0.2905 -0.1178  1.4340
12028TIP3   OH257498   4.601   3.322   2.430 -0.4799  0.3106  0.3791
12028TIP3    H157499   4.557   3.237   2.432  0.5549 -0.2455  0.2348
12028TIP3    H257500   4.615   3.340   2.337  0.7734 -0.1716  0.4449
12029TIP3   OH257501   3.394   6.439   6.385  0.0624 -0.0642  0.4916
12029TIP3    H157502   3.430   6.415   6.470 -0.9361 -0.8396  0.7091
12029TIP3    H257503   3.470   6.463   6.333  0.8744 -1.3531  1.0391
12030TIP3   OH257504   0.687   4.235  15.950 -0.3462 -0.5211  0.5180
12030TIP3    H157505   0.742   4.214  15.875 -1.2145 -3.1980  0.5194
12030TIP3    H257506   0.657   4.150  15.982 -4.3927  0.7193  0.5757
12031TIP3   OH257507   1.618   5.853  11.361  0.3671  0.1324 -0.3972
12031TIP3    H157508   1.619   5.790  11.289 -0.7261  0.5137 -0.7593
12031TIP3    H257509   1.552   5.917  11.337  1.0356  1.0987  0.2591
12032TIP3   OH257510   6.562   1.529  17.047  0.2164  0.0951  0.1638
12032TIP3    H157511   6.597   1.565  16.965 -0.2525 -1.4940 -0.7659
12032TIP3    H257512   6.600   1.442  17.054 -3.3324 -1.7356 -0.8763
12033TIP3   OH257513   1.444   0.429   5.313  0.5367 -0.3861  0.3256
12033TIP3    H157514   1.517   0.490   5.298 -2.2736  2.8643 -1.6730
12033TIP3    H257515   1.433   0.385   5.229  0.6458 -1.4576  0.8636
12034TIP3   OH257516   0.419   4.555   0.964  0.3421 -0.4978 -0.3818
12034TIP3    H157517   0.460   4.640   0.978  1.6975 -1.2674  0.4922
12034TIP3    H257518   0.443   4.503   1.040 -1.0312 -1.4811 -0.5700
12035TIP3   OH257519   1.081   3.072  10.689 -0.6472 -0.3258 -0.2481
12035TIP3    H157520   1.173   3.046  10.684 -0.8404 -1.3780  0.9539
12035TIP3    H257521   1.082   3.167  10.683  0.6389 -0.2390  0.9309
12036TIP3   OH257522   6.485   0.155  17.159 -0.3498  0.5216  1.0789
12036TIP3    H157523   6.496   0.225  17.223 -0.3564  1.7879 -0.2603
12036TIP3    H257524   6.397   0.166  17.125 -0.0071  0.4922  0.1472
12037TIP3   OH257525   0.088   1.093  13.715  0.8753 -0.2601 -0.4023
12037TIP3    H157526   0.030   1.024  13.749  1.2530 -0.4928 -0.2309
12037TIP3    H257527   0.032   1.144  13.656 -0.2491  1.1323  1.7581
12038TIP3   OH257528   3.770   4.105  16.405 -0.4647 -0.5603 -0.3659
12038TIP3    H157529   3.831   4.034  16.426 -0.1903 -0.5335 -1.0484
12038TIP3    H257530   3.703   4.100  16.472 -0.4853 -1.5212 -0.4512
12039TIP3   OH257531   1.950   4.870   2.857 -0.6412  0.0129  0.6449
12039TIP3    H157532   1.927   4.831   2.772 -0.2937 -1.0999  1.0399
12039TIP3    H257533   2.003   4.947   2.834  0.1508 -0.7411 -0.1427
12040TIP3   OH257534   4.413   2.941  10.934  0.1228 -0.7551  0.1236
12040TIP3    H157535   4.486   2.948  10.873 -0.2898 -0.1627 -0.3212
12040TIP3    H257536   4.419   3.020  10.989 -0.7909 -0.1275 -0.6312
12041TIP3   OH257537   2.141   1.921   0.910 -0.2766  0.1962 -0.1452
12041TIP3    H157538   2.187   1.873   0.979 -0.1189  0.2959 -0.1796
12041TIP3    H257539   2.208   1.936   0.843 -0.0714  1.2806  0.2789
12042TIP3   OH257540   2.183   6.057   4.169  0.1228 -0.0159 -0.6371
12042TIP3    H157541   2.244   6.002   4.218 -1.0107 -0.3810  0.4239
12042TIP3    H257542   2.104   6.060   4.224 -0.3826  1.4308 -1.3831
12043TIP3   OH257543   0.982   0.998  14.753 -0.3267 -0.2951  0.2177
12043TIP3    H157544   1.000   0.918  14.703  0.4807 -0.3365  0.5602
12043TIP3    H257545   0.887   1.000  14.763 -0.2619 -2.0864  1.6314
12044TIP3   OH257546   4.926   5.194  12.155  0.0600 -0.4178 -0.3946
12044TIP3    H157547   4.971   5.111  12.140 -1.6598 -1.3182 -0.9425
12044TIP3    H257548   4.965   5.255  12.093  2.4416 -0.3283  1.0888
12045TIP3   OH257549   4.372   3.604   2.645  0.1516  0.2114  0.1723
12045TIP3    H157550   4.454   3.631   2.604  0.1517  1.9675  1.2164
12045TIP3    H257551   4.399   3.556   2.723  0.1512 -3.0934 -1.6997
12046TIP3   OH257552   5.921   4.243   2.652  0.2610  0.3464 -0.0156
12046TIP3    H157553   5.900   4.247   2.558  2.5189 -1.3906 -0.6976
12046TIP3    H257554   5.935   4.150   2.669  0.0100  0.6430  2.0482
12047TIP3   OH257555   3.229   1.865  11.423  0.0794 -0.3310  0.0461
12047TIP3    H157556   3.304   1.885  11.479 -0.4488  0.3181  0.5442
12047TIP3    H257557   3.265   1.859  11.335  0.2803  3.5127 -0.3243
12048TIP3   OH257558   2.335   0.288  14.557 -0.0707 -0.1788  0.2642
12048TIP3    H157559   2.384   0.217  14.515 -0.0209  0.9779 -1.7373
12048TIP3    H257560   2.249   0.286  14.515 -0.6965 -0.1736  1.4996
12049TIP3   OH257561   6.096   1.750   1.551 -0.9101  0.1936 -1.0420
12049TIP3    H157562   6.138   1.787   1.473 -1.8712  2.8502 -0.4098
12049TIP3    H257563   6.082   1.825   1.608  1.1586 -1.7989  2.4508
12050TIP3   OH257564   6.578   1.314   4.875  0.5345  0.4179  0.0189
12050TIP3    H157565   6.629   1.305   4.795  0.7224  3.1536 -0.2727
12050TIP3    H257566   6.509   1.247   4.868  1.2070 -0.1366 -1.8662
12051TIP3   OH257567   5.235   6.240  13.694  0.2514  0.1895  0.5075
12051TIP3    H157568   5.152   6.216  13.735  0.3837  0.7081  1.0849
12051TIP3    H257569   5.288   6.160  13.698 -0.3303 -0.2376 -0.1589
12052TIP3   OH257570   3.131   4.394  16.419  0.4652 -0.0997  0.7320
12052TIP3    H157571   3.048   4.347  16.425  0.1328  0.4959  0.9986
12052TIP3    H257572   3.193   4.331  16.383 -0.4028 -0.1836 -0.6999
12053TIP3   OH257573   4.814   1.480   2.039 -0.0607 -0.3587  0.0262
12053TIP3    H157574   4.897   1.526   2.026 -1.3189  1.5208 -2.0040
12053TIP3    H257575   4.798   1.485   2.133  1.7664 -0.1644  0.3647
12054TIP3   OH257576   5.931   3.984  14.301 -0.4700  0.4666 -0.7057
12054TIP3    H157577   5.845   3.974  14.260 -0.5784  1.0894 -0.6389
12054TIP3    H257578   5.964   4.068  14.268 -0.1191  0.4849 -0.3203
12055TIP3   OH257579   3.620   3.741  11.462 -0.2023 -0.1459 -0.5423
12055TIP3    H157580   3.634   3.808  11.528 -3.0381  0.6254 -0.5854
12055TIP3    H257581   3.525   3.736  11.453  0.0029 -0.0548 -4.6830
12056TIP3   OH257582   1.016   3.996   4.772 -0.2074 -0.4645 -0.2550
12056TIP3    H157583   1.012   3.933   4.845 -0.8727 -1.8000 -1.4043
12056TIP3    H257584   0.927   4.031   4.766  0.1162  0.4693  0.2577
12057TIP3   OH257585   2.868   2.098  13.657  0.2025 -0.2033  0.9561
12057TIP3    H157586   2.841   2.185  13.684  0.1126 -0.0797  0.4732
12057TIP3    H257587   2.933   2.113  13.589 -1.3890 -0.4960 -0.7036
12058TIP3   OH257588   5.989   0.074   4.870 -0.1919  0.5301  0.5434
12058TIP3    H157589   6.003   0.114   4.785 -0.0541  0.6264  0.6115
12058TIP3    H257590   5.908   0.024   4.860  1.9715 -3.0731 -0.9868
12059TIP3   OH257591   6.670   6.051   3.562  0.1391 -0.1843 -0.2455
12059TIP3    H157592   6.696   6.114   3.629  1.4491  1.4574 -2.1768
12059TIP3    H257593   6.708   5.968   3.590  2.0247  0.8058  0.2590
12060TIP3   OH257594   0.128   4.686   4.569  0.3579 -0.3615  0.5922
12060TIP3    H157595   0.071   4.610   4.556 -0.4381  0.3301 -0.1132
12060TIP3    H257596   0.085   4.735   4.640 -0.7857  0.8985 -0.8837
12061TIP3   OH257597   5.870   6.326   3.768  0.0244  0.0385  0.5364
12061TIP3    H157598   5.870   6.419   3.791 -0.4214 -0.0074  0.7407
12061TIP3    H257599   5.946   6.290   3.813 -0.7905 -0.0329  1.9212
12062TIP3   OH257600   0.142   4.581   3.478 -0.0061  0.0733  0.5174
12062TIP3    H157601   0.115   4.594   3.387  0.4566 -0.9470  0.2154
12062TIP3    H257602   0.060   4.579   3.527 -0.2583  0.6146  0.1206
12063TIP3   OH257603   0.164   6.498  14.820  0.1847  0.5103  0.3734
12063TIP3    H157604   0.102   6.426  14.831  0.1436  0.7231  1.6084
12063TIP3    H257605   0.116   6.564  14.770 -1.5177  1.7309  3.3837
12064TIP3   OH257606   2.478   4.541  15.270  0.0672 -0.2081 -0.1673
12064TIP3    H157607   2.555   4.593  15.291  1.4960 -2.5303  0.7769
12064TIP3    H257608   2.406   4.584  15.317  0.9281  1.4514 -0.2892
12065TIP3   OH257609   2.970   2.625  14.490  0.2211 -0.8591  0.1608
12065TIP3    H157610   3.000   2.698  14.436  0.3704 -1.6478 -0.8432
12065TIP3    H257611   2.956   2.664  14.576 -1.2602  0.7249 -0.7241
12066TIP3   OH257612   2.202   4.478   2.853  0.1205 -0.1801 -0.2749
12066TIP3    H157613   2.136   4.434   2.800  0.2378  0.1611 -0.7184
12066TIP3    H257614   2.286   4.443   2.822  0.1608 -0.4571  0.1386
12067TIP3   OH257615   0.093   6.604   5.427  0.4313  0.0047  0.2326
12067TIP3    H157616   0.076   6.518   5.465 -2.1693  0.2958 -0.0745
12067TIP3    H257617   0.115   6.586   5.336 -3.2953 -0.3100 -0.7382
12068TIP3   OH257618   0.854   3.630   4.906  0.5431 -0.0021 -0.6726
12068TIP3    H157619   0.817   3.631   4.817 -0.5660 -1.0855 -0.2475
12068TIP3    H257620   0.947   3.651   4.893  0.3223  0.2584 -2.0379
12069TIP3   OH257621   1.245   5.627   3.219  0.3147 -0.3158 -0.2363
12069TIP3    H157622   1.306   5.566   3.177 -0.3745 -1.6665  0.6318
12069TIP3    H257623   1.273   5.631   3.310  2.0690  2.9285 -0.7699
12070TIP3   OH257624   0.323   4.360  15.466 -0.1289  0.0933  0.2203
12070TIP3    H157625   0.330   4.387  15.374 -0.3051  2.4653  0.8200
12070TIP3    H257626   0.235   4.389  15.492 -0.6927 -1.9547  0.7715
12071TIP3   OH257627   0.109   4.631  12.444 -0.1048 -0.3081 -0.8247
12071TIP3    H157628   0.155   4.673  12.517  0.2014 -3.6322  1.1029
12071TIP3    H257629   0.022   4.610  12.478  0.1747 -2.2894 -1.1744
12072TIP3   OH257630   0.655   4.423   1.078  0.1339 -0.1891  0.1655
12072TIP3    H157631   0.685   4.514   1.083  0.3966 -0.3154  1.2296
12072TIP3    H257632   0.706   4.384   1.007  0.2934  0.4016 -0.0453
12073TIP3   OH257633   4.712   2.164  14.919  0.1009 -0.1024  0.1291
12073TIP3    H157634   4.763   2.097  14.874  0.6917 -0.7128  1.6452
12073TIP3    H257635   4.763   2.186  14.996 -1.0163  0.6937  0.6781
12074TIP3   OH257636   2.409   3.971   3.166 -0.1249 -0.1444  0.3662
12074TIP3    H157637   2.471   4.010   3.228 -0.9061 -0.7364  1.5650
12074TIP3    H257638   2.390   4.041   3.104 -0.5723  1.0295  1.7560
12075TIP3   OH257639   2.451   4.473  12.053 -0.2315 -0.3225 -0.3517
12075TIP3    H157640   2.539   4.437  12.042  0.3759  0.7873  0.6151
12075TIP3    H257641   2.458   4.563  12.020 -1.0380 -0.2668 -0.3787
12076TIP3   OH257642   6.228   4.173   2.795 -0.1600 -0.3468 -0.3299
12076TIP3    H157643   6.293   4.227   2.840 -0.1529 -1.3713  0.9409
12076TIP3    H257644   6.262   4.163   2.706  0.7766  0.1750 -0.0426
12077TIP3   OH257645   6.621   1.366  10.297  0.2394  0.2588 -0.3391
12077TIP3    H157646   6.543   1.393  10.345  0.6064  0.5632  0.0990
12077TIP3    H257647   6.589   1.307  10.229 -0.0131 -3.5219  2.6825
12078TIP3   OH257648   3.714   2.834   0.347  0.5084  0.4345 -0.3087
12078TIP3    H157649   3.658   2.881   0.284 -0.4221 -0.0886  0.0998
12078TIP3    H257650   3.657   2.821   0.424  1.0129 -0.6060 -0.0918
12079TIP3   OH257651   4.829   1.437   5.820 -0.5096 -0.3583  0.1286
12079TIP3    H157652   4.860   1.367   5.878  0.7934 -0.8945 -1.1800
12079TIP3    H257653   4.845   1.405   5.732  1.1138  1.9954 -0.5374
12080TIP3   OH257654   0.910   6.036   0.986  0.0171 -0.0566  0.8453
12080TIP3    H157655   0.877   5.970   0.925 -1.2323  0.6617  0.7134
12080TIP3    H257656   0.831   6.079   1.020  0.8039  1.9096  0.3293
12081TIP3   OH257657   0.978   6.408   0.797  0.0333  0.4309 -0.3088
12081TIP3    H157658   1.000   6.322   0.831  1.4715  0.7208 -0.4446
12081TIP3    H257659   0.963   6.394   0.704  0.7283  0.4043 -0.4171
12082TIP3   OH257660   2.846   0.881  16.348 -0.2127 -1.0300  0.2277
12082TIP3    H157661   2.753   0.867  16.335 -0.5765 -1.4270  2.6449
12082TIP3    H257662   2.877   0.800  16.387  0.8212 -0.3823  0.8080
12083TIP3   OH257663   0.025   3.044  13.536 -0.8908  0.0450  0.1510
12083TIP3    H157664   0.013   2.950  13.524  0.0655 -0.0581 -0.0722
12083TIP3    H257665   0.039   3.054  13.630 -1.0113 -0.0271  0.1784
12084TIP3   OH257666   0.552   0.534   3.069  0.1630  0.2463 -0.3498
12084TIP3    H157667   0.562   0.564   3.159  1.4151 -0.3592 -0.2683
12084TIP3    H257668   0.613   0.460   3.061 -0.7218 -0.4091 -1.3752
12085TIP3   OH257669   6.181   2.006   3.636  0.3588 -0.0225  0.0121
12085TIP3    H157670   6.263   2.039   3.600 -0.0315  2.3503  1.1161
12085TIP3    H257671   6.114   2.039   3.576  0.0436  0.0807  0.4157
12086TIP3   OH257672   5.595   3.449   2.733  0.4590  0.2201 -0.3731
12086TIP3    H157673   5.647   3.453   2.653 -1.4361 -0.3024 -1.7017
12086TIP3    H257674   5.617   3.365   2.772  0.6758  0.0406 -0.8704
12087TIP3   OH257675   2.545   5.029  11.864 -0.4755  0.0816 -0.3318
12087TIP3    H157676   2.612   5.096  11.877 -0.2628 -0.0829 -0.5699
12087TIP3    H257677   2.552   5.005  11.771  0.0719 -0.9246 -0.0406
12088TIP3   OH257678   2.635   0.074  13.527 -0.3712  0.2146  0.5765
12088TIP3    H157679   2.664   0.030  13.447 -1.3828 -1.7488  1.2021
12088TIP3    H257680   2.671   0.021  13.598 -2.5386 -0.3259  1.3721
12089TIP3   OH257681   2.129   1.180  15.694  0.5529 -0.3844 -0.1699
12089TIP3    H157682   2.221   1.154  15.693 -0.0298 -2.5896  0.0615
12089TIP3    H257683   2.093   1.139  15.772 -0.9073 -0.6063 -0.9283
12090TIP3   OH257684   4.009   3.164   2.366 -0.3757 -0.7495  0.4968
12090TIP3    H157685   4.053   3.224   2.426 -0.2000 -0.2933 -0.0836
12090TIP3    H257686   4.075   3.098   2.346 -0.7037 -1.3985  1.4777
12091TIP3   OH257687   0.690   4.290  16.976 -0.6056 -0.2130  0.6421
12091TIP3    H157688   0.712   4.347  17.050  0.1655  0.1695  0.1283
12091TIP3    H257689   0.765   4.297  16.917 -0.4388 -1.8329  0.6034
12092TIP3   OH257690   4.842   0.174  13.400  0.2350  0.9596 -0.1200
12092TIP3    H157691   4.777   0.106  13.416  1.8779 -0.5930  0.3150
12092TIP3    H257692   4.895   0.141  13.328  2.0962  0.9446  1.1706
12093TIP3   OH257693   0.110   4.223  12.092 -0.0924  0.4082  0.4434
12093TIP3    H157694   0.162   4.295  12.059  1.3194 -1.6880 -2.3153
12093TIP3    H257695   0.169   4.175  12.150  0.1443 -0.3391 -0.3861
12094TIP3   OH257696   6.229   2.701  16.365 -0.3923  0.1491 -0.3532
12094TIP3    H157697   6.242   2.794  16.383 -2.8732  0.3341  0.9709
12094TIP3    H257698   6.317   2.665  16.359  0.7273  1.9127  2.8932
12095TIP3   OH257699   4.998   6.256   2.282  0.1391 -0.2217  0.2125
12095TIP3    H157700   5.073   6.198   2.271  0.1166  0.0232 -1.6391
12095TIP3    H257701   4.924   6.205   2.248  0.0623  0.7121 -1.1010
12096TIP3   OH257702   6.622   0.058  13.648 -0.0835 -0.0303 -0.2855
12096TIP3    H157703   6.644   0.025  13.561 -1.1198 -5.6397  1.1803
12096TIP3    H257704   6.526   0.058  13.651 -0.0805  0.9127  0.6265
12097TIP3   OH257705   3.930   0.940  14.163 -0.0468  0.1642 -0.0693
12097TIP3    H157706   3.881   1.003  14.110  0.4010  0.3382 -0.2829
12097TIP3    H257707   3.970   0.992  14.231 -2.1335 -0.2901  1.6208
12098TIP3   OH257708   6.715   4.854   0.531 -0.0498  0.3926  0.6267
12098TIP3    H157709   6.774   4.843   0.456  1.2781  0.6779  1.5817
12098TIP3    H257710   6.686   4.765   0.552 -0.0574  0.2601  0.0618
12099TIP3   OH257711   4.185   2.223  16.123 -0.1144 -0.1893  0.5998
12099TIP3    H157712   4.264   2.170  16.129 -0.9530 -1.4659  0.6960
12099TIP3    H257713   4.182   2.272  16.205  0.7579  0.1434  0.4415
12100TIP3   OH257714   3.882   1.861  10.794 -0.5054  0.2411 -0.1411
12100TIP3    H157715   3.814   1.924  10.772 -0.7140 -0.6075 -2.2184
12100TIP3    H257716   3.955   1.885  10.737 -0.2400 -0.7791 -0.2424
12101TIP3   OH257717   4.000   3.336   1.929  0.7392 -0.5804 -0.0741
12101TIP3    H157718   3.937   3.388   1.879  2.9179  2.6323  0.2686
12101TIP3    H257719   3.956   3.319   2.012  0.1100  1.1932 -0.0115
12102TIP3   OH257720   2.826   0.481  11.888 -0.3205  0.1451 -0.1901
12102TIP3    H157721   2.852   0.445  11.803  2.4168 -0.6835  0.8863
12102TIP3    H257722   2.782   0.408  11.933  1.8285 -0.7900  0.5429
12103TIP3   OH257723   3.966   5.282  11.611 -0.5294  0.4400 -0.3467
12103TIP3    H157724   4.019   5.205  11.590 -0.8363  0.2857 -0.5660
12103TIP3    H257725   4.027   5.343  11.653 -0.7378 -0.7177  1.7222
12104TIP3   OH257726   0.583   4.586  17.073  0.1047 -0.0732  0.2727
12104TIP3    H157727   0.582   4.635  16.991 -2.0068  0.0443  0.3185
12104TIP3    H257728   0.649   4.630  17.126  0.6895  0.5590 -0.9372
12105TIP3   OH257729   4.811   3.972   5.534  0.2242  0.1846 -0.2287
12105TIP3    H157730   4.722   3.983   5.499  0.4781 -0.8149 -1.2475
12105TIP3    H257731   4.865   3.953   5.457  0.6006 -3.4870  0.7773
12106TIP3   OH257732   0.233   3.252   2.618  0.1768  0.4260 -0.3448
12106TIP3    H157733   0.146   3.240   2.656 -0.0635  0.8787 -0.7417
12106TIP3    H257734   0.268   3.330   2.661  0.7700 -0.2741  0.4862
12107TIP3   OH257735   0.829   4.086   5.161 -0.2318 -0.5887 -0.1330
12107TIP3    H157736   0.842   4.109   5.069 -0.9026 -2.1114 -0.6407
12107TIP3    H257737   0.848   4.167   5.209 -0.5180  0.4237 -1.6521
12108TIP3   OH257738   2.917   5.547  16.892  0.2085  0.0578 -0.3521
12108TIP3    H157739   2.951   5.495  16.819  0.1622 -0.8219  0.2311
12108TIP3    H257740   2.987   5.609  16.913  0.9785 -0.9140  0.0427
12109TIP3   OH257741   4.301   0.951  12.469  0.4168 -0.4484  0.0487
12109TIP3    H157742   4.368   0.932  12.403  2.9777  1.7188  1.8286
12109TIP3    H257743   4.331   0.906  12.547  0.5471  1.5415  1.2154
12110TIP3   OH257744   5.892   4.867  10.761  0.3728 -0.3361 -0.0319
12110TIP3    H157745   5.947   4.912  10.825  0.3359 -1.2295  0.6396
12110TIP3    H257746   5.951   4.850  10.687  0.4747  0.4864 -0.1566
12111TIP3   OH257747   5.739   4.580   5.192 -0.0979 -0.3107 -0.2351
12111TIP3    H157748   5.775   4.638   5.260 -0.0276  0.3692 -0.8373
12111TIP3    H257749   5.650   4.611   5.179 -0.3948 -0.9999  0.1569
12112TIP3   OH257750   0.916   3.353   5.556  0.3783 -0.2474 -0.0822
12112TIP3    H157751   0.959   3.275   5.522 -1.5624 -0.4499 -2.3287
12112TIP3    H257752   0.823   3.340   5.536 -0.3543  1.4962  1.8386
12113TIP3   OH257753   6.306   5.165   0.014 -0.0014 -0.3358  0.7867
12113TIP3    H157754   6.303   5.125  -0.073  1.1892 -0.9298  0.9912
12113TIP3    H257755   6.372   5.114   0.061  0.3841  0.8540  1.5880
12114TIP3   OH257756   3.876   4.435   1.882  0.5500 -0.0254  0.0205
12114TIP3    H157757   3.950   4.381   1.856 -1.6004 -2.9984 -0.5436
12114TIP3    H257758   3.871   4.503   1.815 -0.0489 -2.7250 -2.9347
12115TIP3   OH257759   1.382   4.775  15.366 -0.4869  0.0698  0.3991
12115TIP3    H157760   1.455   4.721  15.336 -0.3659  0.2414  0.3854
12115TIP3    H257761   1.367   4.836  15.294  0.5990  1.2931  1.1680
12116TIP3   OH257762   3.440   4.895  11.533 -0.5481 -0.2627  0.2987
12116TIP3    H157763   3.370   4.917  11.472 -2.4228 -0.8981  2.0815
12116TIP3    H257764   3.413   4.811  11.571  1.1121 -0.4436  1.1921
12117TIP3   OH257765   0.345   3.249  11.971  0.0366 -0.4023  0.1066
12117TIP3    H157766   0.374   3.340  11.962 -0.6859 -0.0055  1.4746
12117TIP3    H257767   0.403   3.211  12.037 -0.5128 -0.5400  0.5152
12118TIP3   OH257768   4.702   2.635   3.797  0.9168  0.3045 -0.2021
12118TIP3    H157769   4.617   2.679   3.790  0.6126 -0.3042 -0.3639
12118TIP3    H257770   4.700   2.594   3.884  0.0335 -1.7629 -1.1314
12119TIP3   OH257771   0.016   5.818  17.035 -0.1720  0.4002 -0.0866
12119TIP3    H157772   0.006   5.836  16.942  1.2953 -0.1865 -0.3844
12119TIP3    H257773   0.072   5.741  17.039 -1.4620 -0.5207  1.2726
12120TIP3   OH257774   6.452   3.251  15.912  0.0646 -0.0205  0.1101
12120TIP3    H157775   6.500   3.334  15.909 -1.0941  0.7532  1.5766
12120TIP3    H257776   6.361   3.277  15.926 -0.4371 -1.5369 -0.1379
12121TIP3   OH257777   4.035   6.742  17.006 -0.1809  0.8152  0.2124
12121TIP3    H157778   4.068   6.740  17.095  0.7962 -1.7217 -0.1361
12121TIP3    H257779   4.113   6.751  16.951 -0.3832 -1.0963 -0.4711
12122TIP3   OH257780   3.341   0.491   1.904  0.4593  0.1869  0.1005
12122TIP3    H157781   3.313   0.494   1.812 -0.2971  0.1484  0.3277
12122TIP3    H257782   3.434   0.467   1.899  0.6106  0.8719 -0.6875
12123TIP3   OH257783   1.959   1.299  12.179 -0.7003 -0.1004  0.4992
12123TIP3    H157784   1.962   1.390  12.151  0.8006 -0.2346  0.1293
12123TIP3    H257785   2.043   1.262  12.150 -1.5228 -1.7643  0.0657
12124TIP3   OH257786   4.133   2.498   1.671 -0.2638 -0.5073  0.7091
12124TIP3    H157787   4.180   2.579   1.690 -0.4085 -0.1187 -0.4848
12124TIP3    H257788   4.144   2.486   1.576 -1.8931 -0.8459  0.5417
12125TIP3   OH257789   5.584   4.842   4.907  0.5050 -0.1390 -1.0175
12125TIP3    H157790   5.533   4.849   4.988  2.4387 -0.8327  0.3640
12125TIP3    H257791   5.521   4.813   4.841 -0.7695 -1.5858  0.7242
12126TIP3   OH257792   1.403   1.737   6.229 -0.7003  0.2085 -0.0883
12126TIP3    H157793   1.383   1.651   6.266 -2.1743  0.2526 -0.7053
12126TIP3    H257794   1.487   1.726   6.185  0.0364 -0.4092  1.3779
12127TIP3   OH257795   2.259   1.389  12.601  0.1921 -0.2260  0.1475
12127TIP3    H157796   2.184   1.449  12.599  0.2694 -0.0980  1.0218
12127TIP3    H257797   2.258   1.348  12.514 -0.4429  0.3186 -0.1162
12128TIP3   OH257798   4.398   2.249  14.408 -0.2190 -0.0973  0.0911
12128TIP3    H157799   4.475   2.193  14.405  1.6750  2.3515 -0.5461
12128TIP3    H257800   4.366   2.242  14.498  0.2346 -1.7758  0.1360
12129TIP3   OH257801   2.916   0.246  16.964 -0.5673  0.1193 -0.7185
12129TIP3    H157802   2.924   0.180  16.895 -0.1811  0.3903 -0.9368
12129TIP3    H257803   2.978   0.315  16.938  0.9529 -0.5954  0.8625
12130TIP3   OH257804   4.713   1.706   2.491 -0.5264  0.3380 -0.0037
12130TIP3    H157805   4.790   1.679   2.441 -2.0540 -0.4542 -2.0825
12130TIP3    H257806   4.692   1.629   2.545 -1.0911 -0.2859 -1.0748
12131TIP3   OH257807   0.839   3.682  16.687  0.3834 -0.1744  0.1026
12131TIP3    H157808   0.869   3.773  16.679 -0.4166  0.1911  0.9941
12131TIP3    H257809   0.900   3.644  16.751 -0.8093  0.4876  1.6985
12132TIP3   OH257810   3.371   3.943   0.665  0.0061 -0.9698 -0.1232
12132TIP3    H157811   3.383   4.001   0.740 -1.2992  1.5733 -1.7340
12132TIP3    H257812   3.279   3.917   0.668 -0.0796 -0.7864 -0.8566
12133TIP3   OH257813   6.331   6.438   1.253 -0.0900 -0.6968 -0.3987
12133TIP3    H157814   6.285   6.496   1.314  0.2652  1.4648 -2.0736
12133TIP3    H257815   6.421   6.434   1.286 -0.1317 -0.3283 -0.2418
12134TIP3   OH257816   1.723   4.931  14.898 -0.0284 -0.3447  0.0740
12134TIP3    H157817   1.815   4.937  14.874 -0.3213  0.6902 -0.8795
12134TIP3    H257818   1.676   4.940  14.816 -0.9919 -0.6153  0.5820
12135TIP3   OH257819   3.993   4.772   0.196  0.0327 -0.4124 -0.3363
12135TIP3    H157820   4.052   4.704   0.164  0.4673 -0.6383  0.8686
12135TIP3    H257821   4.038   4.808   0.273 -0.3979  0.9338 -0.6928
12136TIP3   OH257822   3.411   5.081  13.371  0.5519  0.1741  0.0480
12136TIP3    H157823   3.376   5.111  13.287  0.5489 -0.5368 -0.2127
12136TIP3    H257824   3.397   4.986  13.371 -0.1178  0.2526  1.1671
12137TIP3   OH257825   2.662   5.107   1.640 -0.1423  0.3729 -0.0372
12137TIP3    H157826   2.741   5.160   1.652  2.2823 -2.8767 -0.1155
12137TIP3    H257827   2.591   5.162   1.673  2.3210  2.9668  1.4288
12138TIP3   OH257828   1.685   3.421  13.571  0.2297  0.0842  0.1600
12138TIP3    H157829   1.687   3.373  13.488  0.7083 -1.0518  0.7959
12138TIP3    H257830   1.696   3.513  13.546  0.2165 -0.2202 -1.0388
12139TIP3   OH257831   2.003   1.570   1.896 -0.0610  0.5225 -0.8286
12139TIP3    H157832   1.960   1.484   1.890  1.0708 -0.1155 -0.0557
12139TIP3    H257833   2.090   1.551   1.931  0.8394  1.8023 -2.2320
12140TIP3   OH257834   2.166   0.014   0.402 -0.4566 -0.5863 -0.6871
12140TIP3    H157835   2.081  -0.018   0.431 -1.2784  1.4541 -0.6321
12140TIP3    H257836   2.174  -0.015   0.311 -0.7375 -1.6461 -0.3831
12141TIP3   OH257837   1.227   4.266  15.285 -0.3253  0.3391 -0.5624
12141TIP3    H157838   1.314   4.242  15.315  0.3585  1.9196 -1.1916
12141TIP3    H257839   1.170   4.249  15.360  0.5457 -0.4573 -0.0603
12142TIP3   OH257840   6.775   6.132  13.244 -0.2211  0.2372  0.6843
12142TIP3    H157841   6.736   6.130  13.157 -1.0766  2.7813  0.9210
12142TIP3    H257842   6.705   6.105  13.303  0.1349 -0.7430  0.6826
12143TIP3   OH257843   1.623   5.594   0.852 -0.3528  0.7314 -0.0569
12143TIP3    H157844   1.635   5.684   0.820 -0.0766  0.6946 -0.0566
12143TIP3    H257845   1.648   5.539   0.778  5.7690  0.4409  1.6579
12144TIP3   OH257846   5.008   3.092  14.542  0.3788 -0.1030  0.4583
12144TIP3    H157847   5.077   3.053  14.489  0.1388 -0.9961  0.7805
12144TIP3    H257848   4.955   3.018  14.571 -1.0291  0.6069 -0.2001
12145TIP3   OH257849   3.575   1.255  16.129  0.3436  0.1583 -0.5580
12145TIP3    H157850   3.539   1.185  16.183 -2.0430  1.6324 -0.1068
12145TIP3    H257851   3.666   1.230  16.114  0.9611 -0.6783  3.5970
12146TIP3   OH257852   2.278   1.632   5.174  0.0784  0.7117 -0.5094
12146TIP3    H157853   2.321   1.715   5.151 -1.5601  1.7096 -0.0898
12146TIP3    H257854   2.215   1.655   5.241 -0.3558 -0.9123 -0.3198
12147TIP3   OH257855   5.820   4.068   3.718 -0.4076 -0.1282 -0.2237
12147TIP3    H157856   5.741   4.048   3.668  0.2130 -1.2131 -0.7840
12147TIP3    H257857   5.888   4.079   3.653 -0.2281  1.6352  0.2046
12148TIP3   OH257858   5.852   0.824  13.575 -0.2983  0.1127  0.0927
12148TIP3    H157859   5.934   0.799  13.619  0.6439  0.5600 -1.3495
12148TIP3    H257860   5.783   0.796  13.636  0.9462  1.2379  2.1204
12149TIP3   OH257861   6.057   1.531  12.174  0.1717  0.3340  0.1453
12149TIP3    H157862   6.084   1.566  12.088  2.6233 -1.4388  0.0813
12149TIP3    H257863   5.963   1.548  12.178  0.5355  3.4980 -1.4048
12150TIP3   OH257864   5.135   3.650  14.053 -0.1715 -0.1257  0.2207
12150TIP3    H157865   5.156   3.684  14.140 -0.9921  2.1392 -0.3929
12150TIP3    H257866   5.218   3.654  14.005 -0.1228  0.4896  0.3466
12151TIP3   OH257867   5.430   2.409  12.774 -0.2873  0.7222 -0.0497
12151TIP3    H157868   5.486   2.424  12.851 -1.2915  0.2387  0.8063
12151TIP3    H257869   5.436   2.315  12.758  0.3063  0.8980 -0.8843
12152TIP3   OH257870   4.910   6.728   0.094 -0.1672 -0.0417 -0.8889
12152TIP3    H157871   4.930   6.813   0.056  0.1135  0.3101  0.0222
12152TIP3    H257872   4.982   6.711   0.155 -0.3401 -0.8237 -0.8856
12153TIP3   OH257873   2.864   5.427   4.048 -0.2320  0.0330 -0.0328
12153TIP3    H157874   2.778   5.402   4.014 -0.7444 -1.5550  2.2412
12153TIP3    H257875   2.926   5.383   3.989 -1.0167 -0.5489 -0.4523
12154TIP3   OH257876   1.746   1.485  13.966 -0.2434 -0.0529 -0.2146
12154TIP3    H157877   1.673   1.517  14.019 -0.3879 -0.4587 -0.1661
12154TIP3    H257878   1.807   1.559  13.962 -0.4817  0.1608  0.0609
12155TIP3   OH257879   5.844   6.115  12.197 -0.6792  0.5718 -0.5097
12155TIP3    H157880   5.867   6.193  12.146 -2.3878  1.5767  0.1770
12155TIP3    H257881   5.756   6.134  12.231  0.0436 -0.3821  2.1352
12156TIP3   OH257882   2.470   0.287   5.804  0.0345  0.3896  0.4734
12156TIP3    H157883   2.461   0.193   5.790 -2.5114  0.5704  0.4611
12156TIP3    H257884   2.565   0.303   5.802  0.4503 -1.6609 -2.7150
12157TIP3   OH257885   3.422   1.314   2.380  0.0032  0.0806  0.2503
12157TIP3    H157886   3.507   1.287   2.413 -0.1351 -2.5197 -1.2693
12157TIP3    H257887   3.363   1.303   2.455  0.9020  1.8022  1.2780
12158TIP3   OH257888   4.568   3.480  11.568 -0.0738  0.4961 -0.4282
12158TIP3    H157889   4.555   3.417  11.498 -0.2101 -0.4566  0.4276
12158TIP3    H257890   4.480   3.495  11.604  0.2109 -0.6180  0.8478
12159TIP3   OH257891   6.422   3.731   1.002  0.1759  0.3834 -0.1706
12159TIP3    H157892   6.393   3.822   0.994 -0.3148  0.2135 -0.3421
12159TIP3    H257893   6.344   3.683   1.029  0.8503  0.2770  1.6746
12160TIP3   OH257894   4.529   2.348  16.267  0.1161 -0.7095  0.4818
12160TIP3    H157895   4.437   2.352  16.293 -0.0676  0.4737 -0.2699
12160TIP3    H257896   4.560   2.265  16.302 -1.3842 -1.3881  0.2921
12161TIP3   OH257897   1.526   0.190  17.158  0.2833  0.3125 -0.4385
12161TIP3    H157898   1.442   0.147  17.176  0.8801 -0.9562 -0.5829
12161TIP3    H257899   1.573   0.186  17.241  1.3597 -1.7126 -1.0764
12162TIP3   OH257900   4.637   0.950  11.999  0.1775 -0.1383  0.1276
12162TIP3    H157901   4.690   0.878  11.965 -0.0845 -0.4735  0.4072
12162TIP3    H257902   4.675   1.029  11.963 -0.8916 -0.5455 -2.0337
12163TIP3   OH257903   6.370   0.110   5.056  0.0283 -0.0012 -0.1705
12163TIP3    H157904   6.322   0.100   4.974  1.0709 -0.7266 -0.7162
12163TIP3    H257905   6.461   0.121   5.029  0.0035  3.6186  0.7072
12164TIP3   OH257906   1.919   4.843  13.025  0.8869  0.6650  0.6400
12164TIP3    H157907   1.989   4.867  13.086  1.4565  0.5978  0.0210
12164TIP3    H257908   1.949   4.875  12.940  0.6745 -0.3326  0.1750
12165TIP3   OH257909   0.503   0.969  11.620  0.1592  0.3863 -0.2751
12165TIP3    H157910   0.542   0.886  11.649  1.5065  1.2501  0.5136
12165TIP3    H257911   0.451   0.998  11.695 -2.2271 -0.8147 -1.3610
12166TIP3   OH257912   1.610   4.054   4.191 -0.0401 -0.2675  0.0826
12166TIP3    H157913   1.571   4.137   4.165  0.5016 -0.1171 -0.2532
12166TIP3    H257914   1.704   4.065   4.177 -0.0788 -1.4894 -1.6291
12167TIP3   OH257915   2.125   1.686  10.988  0.0645  0.2899  0.1126
12167TIP3    H157916   2.049   1.743  10.991 -0.3289 -0.2289  0.2068
12167TIP3    H257917   2.188   1.726  11.048 -1.1427 -0.6756  2.1508
12168TIP3   OH257918   5.049   2.651  11.950  0.0221  0.4097 -0.0699
12168TIP3    H157919   5.083   2.739  11.934 -0.2217  0.6334  0.6114
12168TIP3    H257920   4.968   2.665  11.999  0.5468 -0.2332  1.0108
12169TIP3   OH257921   5.382   1.964  10.560  0.1745 -0.5766 -0.7464
12169TIP3    H157922   5.336   1.908  10.498 -2.6590 -0.5554  1.1389
12169TIP3    H257923   5.423   1.903  10.622 -1.8722 -0.7000  0.5885
12170TIP3   OH257924   0.591   3.518  17.053 -0.0227  0.0263 -0.7250
12170TIP3    H157925   0.545   3.492  17.133  0.1364 -0.9618 -0.9435
12170TIP3    H257926   0.552   3.602  17.029 -0.9739 -0.2864 -0.3280
12171TIP3   OH257927   5.810   0.080  15.739  0.7452 -0.9124  0.1313
12171TIP3    H157928   5.718   0.107  15.739  0.6689 -1.0828  1.7517
12171TIP3    H257929   5.853   0.141  15.799  1.5725 -1.2612 -0.0933
12172TIP3   OH257930   5.262   6.048  14.778  0.0551  0.3874  0.3460
12172TIP3    H157931   5.291   5.958  14.762  3.3723  1.6852 -2.3227
12172TIP3    H257932   5.167   6.045  14.765  0.0134 -2.7120  0.4748
12173TIP3   OH257933   3.301   0.505   1.630 -0.3403 -0.0991  0.5667
12173TIP3    H157934   3.270   0.436   1.571 -1.8982  0.5740  0.5504
12173TIP3    H257935   3.250   0.582   1.606  0.7534  0.8427  1.1770
12174TIP3   OH257936   3.726   2.534  16.521 -0.4828  0.8665 -0.1835
12174TIP3    H157937   3.747   2.606  16.462 -0.8909 -0.7996 -2.5319
12174TIP3    H257938   3.632   2.519  16.509  0.0155 -1.6245 -1.8325
12175TIP3   OH257939   5.609   1.039   3.135  0.1869 -0.5498 -0.8341
12175TIP3    H157940   5.569   1.113   3.088 -1.1686 -2.3484 -2.7499
12175TIP3    H257941   5.540   1.010   3.195  0.1953 -1.0493 -1.0613
12176TIP3   OH257942   2.659   1.072  10.941 -0.0298  0.5870  0.0875
12176TIP3    H157943   2.742   1.099  10.982  0.3090 -1.9464  1.2738
12176TIP3    H257944   2.681   0.992  10.892 -1.2226  1.4797 -2.0439
12177TIP3   OH257945   4.159   0.577  13.014 -0.2782 -0.5152  0.1231
12177TIP3    H157946   4.085   0.605  12.960  0.0452 -1.0124 -0.5867
12177TIP3    H257947   4.167   0.483  12.997  0.8811 -0.3635 -0.2621
12178TIP3   OH257948   0.752   0.063   2.953  0.9325 -0.4557  0.1197
12178TIP3    H157949   0.827   0.037   3.006  1.0789 -0.5336 -0.1255
12178TIP3    H257950   0.744  -0.006   2.888  1.2085  0.0148 -0.4179
12179TIP3   OH257951   4.670   2.008   6.487  0.4751  0.2974 -0.4171
12179TIP3    H157952   4.765   2.010   6.489  0.4653  0.5709  2.1132
12179TIP3    H257953   4.648   1.915   6.483  0.7636  0.2518 -3.9373
12180TIP3   OH257954   6.091   2.279  15.780 -0.8608  0.6045  0.0303
12180TIP3    H157955   6.169   2.323  15.746  0.0026  0.3378  1.5662
12180TIP3    H257956   6.021   2.304  15.719  0.3396  1.1399 -1.1771
12181TIP3   OH257957   4.100   2.058   4.359 -0.1266 -0.2920 -0.2769
12181TIP3    H157958   4.046   2.136   4.353 -0.0077 -0.0514  1.2793
12181TIP3    H257959   4.068   2.013   4.437 -1.0082 -2.4649 -1.7785
12182TIP3   OH257960   3.913   3.232   2.647  0.3518  0.0830  0.2251
12182TIP3    H157961   3.887   3.142   2.664  1.4054 -0.3521 -0.3855
12182TIP3    H257962   3.860   3.259   2.572  0.4159 -0.2058  0.0765
12183TIP3   OH257963   5.944   6.077   5.200  0.5002 -0.1038  0.3509
12183TIP3    H157964   6.019   6.070   5.259 -0.6808  2.6604  2.4260
12183TIP3    H257965   5.980   6.067   5.112  2.9105 -0.9022  1.3557
12184TIP3   OH257966   2.010   5.148   6.724 -0.2567 -0.5259  0.5815
12184TIP3    H157967   1.920   5.182   6.715  0.3156  0.4969 -2.7160
12184TIP3    H257968   2.054   5.213   6.778 -0.9145  0.3197  0.1317
12185TIP3   OH257969   6.069   2.754   5.005 -0.2175  0.1235 -0.4643
12185TIP3    H157970   6.084   2.801   5.087 -0.5171  0.4383 -0.5876
12185TIP3    H257971   6.133   2.683   5.007 -0.6045 -0.2125  0.3002
12186TIP3   OH257972   2.586   1.049  12.513  0.4519  0.0917  0.0420
12186TIP3    H157973   2.592   1.088  12.425 -1.3451  1.9297  0.6397
12186TIP3    H257974   2.492   1.050  12.533  0.6755 -1.7218  1.4111
12187TIP3   OH257975   3.885   6.004   5.889 -0.3935 -0.3382  0.5100
12187TIP3    H157976   3.851   5.978   5.803  1.3750 -0.1117 -0.2899
12187TIP3    H257977   3.810   5.994   5.948 -1.7184 -0.3001 -1.0834
12188TIP3   OH257978   4.150   0.391   3.803  0.2941  0.1528 -0.7425
12188TIP3    H157979   4.209   0.386   3.878 -0.6320  1.7142  0.1362
12188TIP3    H257980   4.094   0.314   3.811  0.2209  0.2923  0.1634
12189TIP3   OH257981   6.150   2.721  15.246  0.0580  0.5267  0.0921
12189TIP3    H157982   6.117   2.672  15.170 -1.7648  3.6697 -1.3638
12189TIP3    H257983   6.239   2.747  15.221  1.1149 -2.0154  0.9633
12190TIP3   OH257984   0.160   3.645   5.196  0.3198  0.3086  0.1678
12190TIP3    H157985   0.241   3.691   5.217 -1.6990  3.3182  2.0906
12190TIP3    H257986   0.119   3.697   5.127 -1.1817  0.4278  1.1107
12191TIP3   OH257987   0.148   1.456  16.292  0.3769  0.3029  0.3389
12191TIP3    H157988   0.212   1.391  16.263 -1.3112 -0.8317 -1.0077
12191TIP3    H257989   0.125   1.505  16.213 -0.2502  0.8458  0.8437
12192TIP3   OH257990   3.222   5.820  15.950  0.5178  0.2145 -0.0571
12192TIP3    H157991   3.307   5.813  15.993  1.4433 -0.6137 -1.9314
12192TIP3    H257992   3.233   5.893  15.888 -1.3700  2.6525  2.2407
12193TIP3   OH257993   6.614   4.373   5.582 -0.2343 -0.2406 -0.1260
12193TIP3    H157994   6.677   4.437   5.549  0.8272 -1.7612 -1.1843
12193TIP3    H257995   6.529   4.403   5.549  0.3587  0.1517 -1.3425
12194TIP3   OH257996   4.258   5.707   5.574 -0.4621 -0.4249  0.1930
12194TIP3    H157997   4.168   5.691   5.602 -0.3888 -0.9274  0.1513
12194TIP3    H257998   4.251   5.717   5.479 -0.5724  0.2725  0.2709
12195TIP3   OH257999   3.321   0.046   1.485 -0.0149 -0.1437  0.0707
12195TIP3    H158000   3.411   0.071   1.505 -1.0520  3.2108  1.2383
12195TIP3    H258001   3.289   0.117   1.428 -1.6167 -1.8717 -1.3082
12196TIP3   OH258002   4.921   6.406   1.898  0.1208  0.0150  0.3856
12196TIP3    H158003   4.909   6.485   1.846  0.2618 -0.6213 -0.6428
12196TIP3    H258004   5.011   6.378   1.878  0.1937 -0.2153  1.0102
12197TIP3   OH258005   4.381   2.505   4.992 -1.1105  0.0840 -0.6277
12197TIP3    H158006   4.380   2.492   4.897 -1.3972  2.3066 -0.9722
12197TIP3    H258007   4.292   2.531   5.013 -0.6683  1.1620 -0.0141
12198TIP3   OH258008   2.758   0.183   1.443 -0.0632 -0.1649  0.3843
12198TIP3    H158009   2.783   0.264   1.486  0.3652 -0.8469  1.4385
12198TIP3    H258010   2.783   0.196   1.351  0.1699  0.8118  0.5775
12199TIP3   OH258011   2.700   0.761  16.052  0.3114 -0.4080 -0.1668
12199TIP3    H158012   2.690   0.719  16.137  2.3694  0.4159  0.5588
12199TIP3    H258013   2.640   0.714  15.994  0.3216 -2.3157  1.2860
12200TIP3   OH258014   6.121   1.750   5.709 -0.0160  0.0923  0.4863
12200TIP3    H158015   6.106   1.779   5.799  1.9396 -0.1937  0.9568
12200TIP3    H258016   6.171   1.821   5.669 -0.4896  0.0220 -0.2471
12201TIP3   OH258017   5.826   4.912   1.902 -0.0556 -0.1727  0.3325
12201TIP3    H158018   5.745   4.943   1.862 -0.8055 -2.6832 -0.2815
12201TIP3    H258019   5.825   4.949   1.990 -2.1142 -0.4712  0.4863
12202TIP3   OH258020   2.013   3.696  14.443  0.4021  0.6243 -0.3375
12202TIP3    H158021   1.955   3.641  14.392 -0.3315  0.6247  0.4711
12202TIP3    H258022   2.086   3.638  14.468 -0.6370 -0.1798  0.9853
12203TIP3   OH258023   0.074   2.167  12.571  0.6007  0.1927  0.6169
12203TIP3    H158024   0.162   2.141  12.601  0.2177  0.3226  1.9306
12203TIP3    H258025   0.090   2.244  12.516  1.4610 -0.9185 -0.7562
12204TIP3   OH258026   6.574   3.771  14.665  0.0014 -0.6714 -0.0493
12204TIP3    H158027   6.554   3.790  14.573 -2.8201  1.8313  0.9328
12204TIP3    H258028   6.637   3.839  14.689 -0.1539 -0.6016  0.1595
12205TIP3   OH258029   0.429   6.061  14.475 -0.4944 -0.2200  0.0189
12205TIP3    H158030   0.337   6.083  14.489 -0.7700 -2.3052  2.0979
12205TIP3    H258031   0.428   5.997  14.403 -0.6280  0.0365 -0.2064
12206TIP3   OH258032   1.384   0.652   0.981 -0.1189 -0.1939 -0.2281
12206TIP3    H158033   1.400   0.714   1.052 -0.7828 -0.3118  0.0287
12206TIP3    H258034   1.297   0.676   0.947  0.4332  0.2487 -1.4022
12207TIP3   OH258035   1.386   5.849   6.275 -0.0101 -0.1151  0.0794
12207TIP3    H158036   1.398   5.798   6.195  0.7695  1.7717 -1.0819
12207TIP3    H258037   1.336   5.792   6.332  2.4251 -2.9563 -0.3386
12208TIP3   OH258038   5.097   4.280  15.853 -0.2997 -0.0466  0.3439
12208TIP3    H158039   5.035   4.352  15.863  0.3268  0.4496  0.7733
12208TIP3    H258040   5.056   4.221  15.791 -0.7205  0.8145 -0.2188
12209TIP3   OH258041   3.291   0.354  16.668 -0.5991 -1.0202 -0.4601
12209TIP3    H158042   3.254   0.355  16.756 -0.5281  0.2747 -0.4204
12209TIP3    H258043   3.319   0.264  16.654 -0.2679 -1.1642  0.9936
12210TIP3   OH258044   5.722   0.497  11.898  0.4313  0.6021 -0.2134
12210TIP3    H158045   5.665   0.572  11.877 -0.9496  0.6338  3.0580
12210TIP3    H258046   5.803   0.537  11.928  0.5894  0.6899 -0.7454
12211TIP3   OH258047   1.222   5.236   2.801  0.1077 -1.0136 -0.0245
12211TIP3    H158048   1.246   5.288   2.725  3.2323 -0.1115  1.3737
12211TIP3    H258049   1.194   5.300   2.866  1.8938 -1.1774  0.9917
12212TIP3   OH258050   4.749   2.006  12.845  0.6686  0.0359  1.1513
12212TIP3    H158051   4.770   2.090  12.805 -0.5163  0.7376  1.9430
12212TIP3    H258052   4.667   2.021  12.892  0.1587 -1.6958  0.8939
12213TIP3   OH258053   4.939   5.864   1.103  0.2919  0.1649  0.2136
12213TIP3    H158054   4.996   5.788   1.094 -1.1509 -0.7915 -1.0155
12213TIP3    H258055   4.999   5.935   1.130  1.7637 -1.1931  0.6505
12214TIP3   OH258056   6.240   1.609  14.745  0.5247 -0.1289 -0.0597
12214TIP3    H158057   6.249   1.686  14.801  0.2268 -0.3403  0.2852
12214TIP3    H258058   6.213   1.644  14.660 -1.8293  0.0241  0.6629
12215TIP3   OH258059   0.237   6.375  13.811  0.4917 -0.2567 -0.0366
12215TIP3    H158060   0.199   6.413  13.890  0.1433 -0.5734 -0.0487
12215TIP3    H258061   0.251   6.283  13.833 -3.2336 -1.3551 -1.5644
12216TIP3   OH258062   4.117   4.402  13.393  0.4338 -0.1742  0.0808
12216TIP3    H158063   4.079   4.428  13.477 -1.9110 -2.4476 -0.1503
12216TIP3    H258064   4.069   4.454  13.328 -0.0502 -0.7161 -0.0077
12217TIP3   OH258065   5.674   2.254   4.392 -0.6181  0.4617  0.2177
12217TIP3    H158066   5.766   2.244   4.415 -1.0912 -1.1607  1.6266
12217TIP3    H258067   5.674   2.264   4.296  0.9799  0.1311  0.1560
12218TIP3   OH258068   2.085   1.801  15.577 -0.5768  0.3422  0.4761
12218TIP3    H158069   2.000   1.842  15.588 -1.0402  0.1878 -1.9463
12218TIP3    H258070   2.141   1.844  15.643 -1.9594  2.0872  0.5928
12219TIP3   OH258071   5.790   3.876   5.901 -0.7099 -0.2551  0.2059
12219TIP3    H158072   5.780   3.847   5.992  0.6851 -2.4092 -0.2416
12219TIP3    H258073   5.852   3.814   5.863  0.8985  2.2064 -1.5077
12220TIP3   OH258074   3.162   3.443  15.251  0.4346 -0.3269  0.2777
12220TIP3    H158075   3.092   3.436  15.186  0.4540  0.0107  0.2192
12220TIP3    H258076   3.177   3.537  15.260  1.1675 -0.4087 -0.0152
12221TIP3   OH258077   0.355   4.720   5.114  0.0196 -0.7582 -0.0921
12221TIP3    H158078   0.272   4.767   5.117  0.1360 -0.4788 -1.1240
12221TIP3    H258079   0.346   4.651   5.181 -1.0416 -0.7534 -0.2202
12222TIP3   OH258080   5.463   2.004  13.249 -0.1526  0.1079  0.5324
12222TIP3    H158081   5.487   2.042  13.165 -0.1269  0.0507  0.5137
12222TIP3    H258082   5.544   1.964  13.281 -0.0414  0.5528  0.8100
12223TIP3   OH258083   2.348   6.686   4.340  0.4364  0.2288 -1.0419
12223TIP3    H158084   2.313   6.701   4.253  0.6180 -1.1454 -1.3723
12223TIP3    H258085   2.434   6.646   4.325  0.6614  0.3854 -0.2347
12224TIP3   OH258086   5.290   4.750  12.343  0.5301  0.3245  0.4903
12224TIP3    H158087   5.377   4.721  12.315  0.7262  0.2427  1.1551
12224TIP3    H258088   5.264   4.686  12.409  1.5083  2.2675  2.9239
12225TIP3   OH258089   0.254   1.654  15.331  0.0039 -0.7887 -0.4342
12225TIP3    H158090   0.167   1.614  15.338 -0.0140 -0.5374  1.2888
12225TIP3    H258091   0.249   1.734  15.383  1.7345 -1.6727  1.2429
12226TIP3   OH258092   4.294   0.053  14.664 -0.4462 -0.4148 -0.3479
12226TIP3    H158093   4.298   0.128  14.723 -0.9858  0.1416 -1.0074
12226TIP3    H258094   4.201   0.029  14.662 -0.1035 -2.0655  1.0289
12227TIP3   OH258095   0.326   0.576  14.465 -0.4004  0.2434 -0.1730
12227TIP3    H158096   0.348   0.518  14.537  0.1901 -0.5563 -0.9806
12227TIP3    H258097   0.331   0.521  14.387 -0.7723  1.1519 -0.8537
12228TIP3   OH258098   5.106   6.354  12.371  0.4339 -0.3437 -0.2317
12228TIP3    H158099   5.172   6.299  12.412 -0.9769 -1.7221  0.2955
12228TIP3    H258100   5.040   6.367  12.439 -0.5870 -0.2913 -1.2060
12229TIP3   OH258101   6.620   3.967  14.447  0.2128 -0.3668 -0.0329
12229TIP3    H158102   6.617   4.062  14.444  2.2333 -0.2885 -0.7500
12229TIP3    H258103   6.558   3.939  14.379 -1.3401  0.3789  1.0360
12230TIP3   OH258104   1.805   4.521  13.441 -0.0966  0.0531  0.1289
12230TIP3    H158105   1.722   4.515  13.393  0.1227 -2.0754 -0.0816
12230TIP3    H258106   1.872   4.507  13.374  0.3598  0.1432  0.5627
12231TIP3   OH258107   0.368   3.672  14.153  0.0306  0.0027  0.1970
12231TIP3    H158108   0.443   3.732  14.151  0.3357 -0.3786 -0.4583
12231TIP3    H258109   0.296   3.723  14.190 -0.3161  1.4764 -2.3090
12232TIP3   OH258110   3.968   4.721  11.308 -0.2174  0.0470  0.6178
12232TIP3    H158111   4.011   4.765  11.234 -0.1268 -1.4721 -0.2855
12232TIP3    H258112   4.033   4.656  11.338 -1.6633 -2.0805 -0.5725
12233TIP3   OH258113   1.908   5.874  13.996 -0.3966 -0.9170  0.2229
12233TIP3    H158114   1.876   5.947  13.943  0.3325  0.3198  1.4318
12233TIP3    H258115   1.881   5.896  14.085  3.2925 -0.0297  1.2658
12234TIP3   OH258116   1.433   4.897   4.068 -0.6446 -0.0353  0.2830
12234TIP3    H158117   1.356   4.913   4.123 -1.5969 -2.3878 -0.2452
12234TIP3    H258118   1.448   4.803   4.074  2.4206  0.3676  0.5774
12235TIP3   OH258119   5.168   0.013   0.211  0.2231 -0.4654 -0.1621
12235TIP3    H158120   5.188   0.106   0.221 -1.6069 -0.1160  0.5327
12235TIP3    H258121   5.179  -0.024   0.299 -2.3647 -0.1792  0.3462
12236TIP3   OH258122   2.668   5.551  17.005  0.3137 -0.4816 -0.4403
12236TIP3    H158123   2.637   5.476  16.954 -0.0156 -0.2736 -0.5520
12236TIP3    H258124   2.760   5.561  16.980  0.3155 -0.7518 -0.5398
12237TIP3   OH258125   4.963   5.935  13.304 -0.7212 -0.4104  0.3587
12237TIP3    H158126   4.948   5.966  13.215  1.4126 -1.5930 -0.4923
12237TIP3    H258127   4.926   5.846  13.305  0.2614 -0.8355  0.2620
12238TIP3   OH258128   0.642   0.518   5.476 -0.4701  0.3537  0.5702
12238TIP3    H158129   0.547   0.530   5.466 -0.4805  0.7288  1.0397
12238TIP3    H258130   0.673   0.492   5.390 -0.8939  0.9532  0.2317
12239TIP3   OH258131   5.729   4.870   4.218  0.2234  0.0141  0.3203
12239TIP3    H158132   5.761   4.780   4.224 -1.3239 -0.5208  1.4226
12239TIP3    H258133   5.723   4.887   4.125  0.5747 -1.0211  0.0875
12240TIP3   OH258134   1.853   1.149  16.813  0.1898 -0.1188 -0.1394
12240TIP3    H158135   1.885   1.071  16.859 -0.2178 -2.0728 -2.9317
12240TIP3    H258136   1.923   1.170  16.751 -0.8000  0.0947 -1.2115
12241TIP3   OH258137   5.670   5.416  14.795 -0.0127 -0.4460 -0.1283
12241TIP3    H158138   5.695   5.377  14.879 -0.8614 -0.7439 -0.0075
12241TIP3    H258139   5.753   5.445  14.757  0.7763 -3.2133 -0.6886
12242TIP3   OH258140   0.249   5.747  13.517 -0.4598  0.1614  0.1042
12242TIP3    H158141   0.328   5.730  13.466 -1.0161 -2.2076 -0.0936
12242TIP3    H258142   0.187   5.681  13.487 -3.2541  3.0712 -1.1440
12243TIP3   OH258143   5.278   3.311  12.184  0.0790  0.1502 -0.5411
12243TIP3    H158144   5.262   3.390  12.133  0.9358  0.2097 -0.7334
12243TIP3    H258145   5.328   3.255  12.126 -0.1921 -0.3806 -0.2678
12244TIP3   OH258146   2.735   4.062  11.516  0.0025  0.0143  0.1694
12244TIP3    H158147   2.691   4.002  11.456 -0.2634 -1.2627  1.5821
12244TIP3    H258148   2.706   4.149  11.489 -1.8132 -0.6632 -0.2247
12245TIP3   OH258149   5.288   0.914   1.495 -0.9100  0.4721 -0.1694
12245TIP3    H158150   5.276   0.945   1.405  0.1119 -0.9247 -0.8115
12245TIP3    H258151   5.322   0.991   1.542  0.1688  0.7563 -1.3724
12246TIP3   OH258152   3.989   1.584  11.076  0.3239 -0.3633 -0.0033
12246TIP3    H158153   4.000   1.565  11.169 -2.4255  0.5718  0.5973
12246TIP3    H258154   4.075   1.568  11.038  1.3906 -1.2853  2.5951
12247TIP3   OH258155   0.479   4.241  13.027  0.2932  0.2298 -0.3381
12247TIP3    H158156   0.546   4.182  13.059 -0.8668 -0.9383  0.0105
12247TIP3    H258157   0.520   4.328  13.031  1.6728 -0.4111  0.0996
12248TIP3   OH258158   6.208   3.863   5.075 -0.0495 -0.3744 -0.1400
12248TIP3    H158159   6.199   3.778   5.033 -2.4413 -0.0194 -0.5053
12248TIP3    H258160   6.181   3.848   5.165 -0.0376 -0.0903 -0.0889
12249TIP3   OH258161   0.005   0.659   4.767  0.1536 -0.8376  0.1897
12249TIP3    H158162   0.048   0.626   4.845  3.0308  0.4986 -0.6810
12249TIP3    H258163  -0.026   0.580   4.721  0.5370 -1.7838  1.5020
12250TIP3   OH258164   4.577   0.510  11.171 -1.1860 -0.0105 -0.1497
12250TIP3    H158165   4.649   0.530  11.110 -1.3728 -2.0304 -1.1066
12250TIP3    H258166   4.498   0.540  11.126 -1.1080  0.8065  0.2359
12251TIP3   OH258167   1.073   6.770  11.680  0.2199 -0.2309 -0.5931
12251TIP3    H158168   0.983   6.773  11.648  0.0639  1.2529 -0.0882
12251TIP3    H258169   1.126   6.791  11.603  0.0687 -0.2302 -0.6973
12252TIP3   OH258170   4.841   6.594  15.245  0.8649 -0.0572 -0.3500
12252TIP3    H158171   4.778   6.646  15.295 -0.3112  1.1865 -2.9229
12252TIP3    H258172   4.814   6.503  15.259  0.4864  0.2501  1.0697
12253TIP3   OH258173   5.250   5.482  15.515 -0.6350 -0.0011  0.5752
12253TIP3    H158174   5.159   5.479  15.486 -0.9838  1.1256  1.4988
12253TIP3    H258175   5.282   5.392  15.505 -1.5675 -0.2190 -0.6093
12254TIP3   OH258176   2.265   3.306   3.054 -0.2024 -0.5565 -0.1755
12254TIP3    H158177   2.255   3.224   3.104 -2.3782  1.4237  3.0479
12254TIP3    H258178   2.353   3.337   3.075  0.0263 -1.2423 -0.0902
12255TIP3   OH258179   0.757   4.334  15.126 -0.1127 -0.1888  0.0877
12255TIP3    H158180   0.687   4.376  15.075 -0.5976 -0.5072  0.4869
12255TIP3    H258181   0.838   4.365  15.084 -0.4970 -1.1474 -1.4597
12256TIP3   OH258182   4.537   6.043   3.462 -0.4113  0.5028 -0.1365
12256TIP3    H158183   4.475   5.970   3.461  0.2354 -0.1021  1.4893
12256TIP3    H258184   4.487   6.117   3.427 -1.4084 -0.4502 -0.7864
12257TIP3   OH258185   3.779   2.383  13.797  0.1855 -0.1850  0.5413
12257TIP3    H158186   3.807   2.319  13.863  0.6998 -0.0193  0.4900
12257TIP3    H258187   3.687   2.362  13.781  0.3240 -0.8546  0.5914
12258TIP3   OH258188   4.488   1.913  11.480  0.2343 -0.1229 -0.0042
12258TIP3    H158189   4.526   1.975  11.418 -0.7610 -0.3804 -0.9147
12258TIP3    H258190   4.547   1.838  11.480  0.9462  0.4272  0.3870
12259TIP3   OH258191   4.497   3.722   2.160 -0.2261 -0.3419  0.1051
12259TIP3    H158192   4.580   3.675   2.145 -0.0519 -0.5170  1.4665
12259TIP3    H258193   4.509   3.763   2.246 -0.6768  1.5718 -0.7004
12260TIP3   OH258194   6.713   2.672   5.422  0.0220  0.4200  0.1316
12260TIP3    H158195   6.724   2.715   5.507 -0.8196  0.5824  0.1701
12260TIP3    H258196   6.651   2.601   5.438 -1.9374  1.8260 -0.7471
12261TIP3   OH258197   3.282   1.056  14.231  0.3783 -0.6355 -0.4916
12261TIP3    H158198   3.217   1.108  14.183  1.0454  0.0360 -0.7006
12261TIP3    H258199   3.342   1.025  14.163  0.6271 -0.7158 -0.2368
12262TIP3   OH258200   2.553   6.521  11.647  0.1871  0.3842  0.3502
12262TIP3    H158201   2.597   6.477  11.574  0.9127 -0.1701  1.1025
12262TIP3    H258202   2.554   6.613  11.623  1.4063  0.3371  0.1452
12263TIP3   OH258203   4.386   2.333   1.591  0.2229  0.0309 -0.5731
12263TIP3    H158204   4.313   2.276   1.567  1.3318 -2.4748  1.6252
12263TIP3    H258205   4.381   2.341   1.686  2.3322  0.4557 -0.4467
12264TIP3   OH258206   4.044   0.067   0.296  0.5045  0.5427 -1.0816
12264TIP3    H158207   4.112   0.024   0.244  0.0550 -0.9911 -0.4530
12264TIP3    H258208   4.083   0.076   0.383 -0.5418 -1.6806 -0.3146
12265TIP3   OH258209   5.365   4.708  16.334 -0.1473 -0.4462 -0.0959
12265TIP3    H158210   5.322   4.779  16.284 -0.2767 -0.1028  0.4916
12265TIP3    H258211   5.373   4.637  16.271 -0.6779 -0.1628 -0.5003
12266TIP3   OH258212   0.629   5.639   2.805 -0.3301 -0.3324 -0.0453
12266TIP3    H158213   0.650   5.633   2.711 -0.8082  1.0433 -0.2618
12266TIP3    H258214   0.695   5.585   2.848  0.8712  0.2839 -1.0513
12267TIP3   OH258215   4.842   0.643   5.703 -0.2433  0.1754 -0.6356
12267TIP3    H158216   4.897   0.693   5.763 -0.4001  1.5953 -1.6124
12267TIP3    H258217   4.769   0.614   5.756  0.7332 -0.5306  0.3556
12268TIP3   OH258218   0.385   4.041  16.435 -0.0225 -0.3637 -0.5895
12268TIP3    H158219   0.306   4.075  16.475 -0.1313  1.0060 -1.8481
12268TIP3    H258220   0.381   3.946  16.448 -1.3545 -0.2184  0.2161
12269TIP3   OH258221   1.094   1.496   5.709  0.0718 -0.4248  1.3100
12269TIP3    H158222   1.183   1.489   5.744  0.8474  0.3446 -0.4265
12269TIP3    H258223   1.095   1.445   5.628 -0.7190  0.5342  0.6594
12270TIP3   OH258224   2.735   3.583   0.911 -0.7810  0.2591 -0.2762
12270TIP3    H158225   2.702   3.673   0.919 -1.2976 -0.0674  1.8530
12270TIP3    H258226   2.805   3.578   0.976 -0.5076 -0.7820 -0.6437
12271TIP3   OH258227   2.334   4.968  10.979 -0.4214 -0.0557  0.2753
12271TIP3    H158228   2.304   4.961  11.069  3.9112  2.1818  2.1409
12271TIP3    H258229   2.358   5.060  10.968  0.6684 -0.5684 -2.6780
12272TIP3   OH258230   6.015   1.146   4.911  0.1996 -0.3356 -0.3667
12272TIP3    H158231   6.042   1.237   4.894 -0.3626 -0.4124 -1.7874
12272TIP3    H258232   5.920   1.150   4.916 -0.0151 -1.1685 -2.7479
12273TIP3   OH258233   4.385   5.985   2.698 -0.6894 -0.4366  0.0750
12273TIP3    H158234   4.412   6.024   2.782 -1.0359 -1.8602  0.8852
12273TIP3    H258235   4.468   5.969   2.652 -0.5166  0.6837 -0.0159
12274TIP3   OH258236   5.030   2.965  13.845  0.5244 -0.1758  0.5748
12274TIP3    H158237   5.033   3.044  13.790 -0.0816 -0.5239  0.0251
12274TIP3    H258238   5.047   2.997  13.934  0.2885  0.5803  0.3575
12275TIP3   OH258239   4.872   5.645  16.998  0.5072 -0.0171  0.1670
12275TIP3    H158240   4.916   5.709  17.054  1.4344  0.6738 -1.2639
12275TIP3    H258241   4.942   5.589  16.965  0.1660  0.2348 -1.0669
12276TIP3   OH258242   2.761   5.887   2.611 -0.3850  0.3905 -0.1248
12276TIP3    H158243   2.768   5.978   2.582 -0.1591  0.7435  0.9914
12276TIP3    H258244   2.851   5.861   2.631 -0.5097  0.0859  0.0426
12277TIP3   OH258245   5.080   1.519  16.369 -0.6055  0.0607  0.3167
12277TIP3    H158246   5.079   1.469  16.287  1.2522  0.3302  0.0843
12277TIP3    H258247   5.039   1.462  16.433 -0.9291 -0.6743 -0.5303
12278TIP3   OH258248   6.346   2.214   0.720 -0.1659  0.6245 -1.2452
12278TIP3    H158249   6.407   2.161   0.669  0.7529  0.6137 -0.2007
12278TIP3    H258250   6.400   2.287   0.752 -0.4531  0.1490  0.4317
12279TIP3   OH258251   6.644   4.449  13.727  0.1952  1.2924  0.5161
12279TIP3    H158252   6.732   4.441  13.690  0.5596 -1.3805  1.6665
12279TIP3    H258253   6.588   4.401  13.666  0.2106 -0.1196  1.5588
12280TIP3   OH258254   4.271   1.075  15.553  0.5767  0.0084 -0.3834
12280TIP3    H158255   4.242   0.984  15.555 -1.7877  0.6779  1.7097
12280TIP3    H258256   4.334   1.082  15.624 -0.6817  0.3588  0.7348
12281TIP3   OH258257   6.036   0.271  12.603  0.0692 -0.0622 -0.1906
12281TIP3    H158258   6.045   0.347  12.660 -1.2430 -1.4493  1.9926
12281TIP3    H258259   5.960   0.290  12.549  0.4640  0.6597 -0.5084
12282TIP3   OH258260   4.321   4.291  15.508  0.3336  0.3966 -0.4825
12282TIP3    H158261   4.296   4.329  15.592  1.2473  0.1880 -0.1091
12282TIP3    H258262   4.246   4.308  15.451 -1.0968 -1.0661  0.8529
12283TIP3   OH258263   6.335   4.842  13.226  0.4131  0.6368  0.0122
12283TIP3    H158264   6.405   4.853  13.291  0.9846  0.9115 -0.6396
12283TIP3    H258265   6.358   4.903  13.156  0.3535 -0.3885 -0.9177
12284TIP3   OH258266   6.146   4.476  14.249 -0.3437 -0.1215 -0.4028
12284TIP3    H158267   6.234   4.512  14.238 -0.4063  0.2296  0.2028
12284TIP3    H258268   6.120   4.504  14.337 -0.5467 -1.3278 -0.0708
12285TIP3   OH258269   4.093   3.299   0.600  0.1417 -0.0229 -0.2134
12285TIP3    H158270   4.095   3.390   0.631 -0.7271  0.0220 -0.2773
12285TIP3    H258271   4.024   3.257   0.651  0.6230 -0.6896 -0.0950
12286TIP3   OH258272   0.039   6.539   1.638  0.4374  0.6054 -0.3773
12286TIP3    H158273   0.120   6.491   1.653  0.3994  1.1664  2.0021
12286TIP3    H258274  -0.029   6.482   1.675 -0.2966  0.1639 -2.3002
12287TIP3   OH258275   0.714   0.613   2.857 -0.1108 -0.0245  0.0993
12287TIP3    H158276   0.649   0.663   2.807  0.2712  0.4389  0.0599
12287TIP3    H258277   0.666   0.582   2.933  0.4832  3.5848  2.1798
12288TIP3   OH258278   2.752   1.034  16.117  0.6007 -0.1863 -0.2268
12288TIP3    H158279   2.748   0.941  16.096 -0.7839 -0.6616  1.8636
12288TIP3    H258280   2.816   1.039  16.189  1.1462  0.5832 -0.7525
12289TIP3   OH258281   3.349   4.922   4.409  0.1696  0.4792 -0.3876
12289TIP3    H158282   3.352   4.945   4.502  1.2741 -0.3745 -0.1955
12289TIP3    H258283   3.302   4.839   4.405 -0.6508  0.9487 -0.6965
12290TIP3   OH258284   0.395   0.158  11.101  0.2451  0.1418  0.1673
12290TIP3    H158285   0.431   0.217  11.167 -0.6233  1.2291 -0.2927
12290TIP3    H258286   0.462   0.090  11.090  0.4778  0.0362  2.0067
12291TIP3   OH258287   4.821   5.753   5.554  0.2743 -0.1997 -0.0818
12291TIP3    H158288   4.832   5.801   5.472  0.8387 -1.0676 -0.5238
12291TIP3    H258289   4.726   5.740   5.562  0.2076  0.0262 -0.5074
12292TIP3   OH258290   1.898   6.227   0.047 -0.2538 -0.3589 -0.4671
12292TIP3    H158291   1.847   6.172  -0.011 -0.1394  0.1614 -1.0634
12292TIP3    H258292   1.952   6.165   0.097 -2.5674 -1.0685  1.3410
12293TIP3   OH258293   3.410   3.874   4.602  0.5545 -0.3092  0.6356
12293TIP3    H158294   3.390   3.806   4.539 -0.9563 -0.6771  1.4517
12293TIP3    H258295   3.474   3.834   4.661  0.1024 -0.8396  0.7770
12294TIP3   OH258296   0.682   6.056   2.772  0.3176 -0.1020 -0.4927
12294TIP3    H158297   0.659   6.078   2.862  1.6388  1.4324 -0.4806
12294TIP3    H258298   0.599   6.048   2.726 -0.3545  3.0847  0.0014
12295TIP3   OH258299   1.257   4.467   5.068 -0.3504 -0.4224  0.0290
12295TIP3    H158300   1.288   4.518   5.143  0.9692  0.9234 -1.3406
12295TIP3    H258301   1.212   4.392   5.106 -1.5995  1.3069  2.1584
12296TIP3   OH258302   1.305   3.040  15.274  0.3138 -0.3548  0.0236
12296TIP3    H158303   1.316   3.115  15.215 -0.0355 -0.4873 -0.2143
12296TIP3    H258304   1.353   3.065  15.353 -1.3534  0.9527  0.6864
12297TIP3   OH258305   1.226   6.306  16.064  0.0859 -0.4263  0.0700
12297TIP3    H158306   1.244   6.363  15.989  2.6497 -0.6639  0.4180
12297TIP3    H258307   1.257   6.355  16.140  0.7336 -1.5649  0.5606
12298TIP3   OH258308   6.126   0.276  11.846  0.3307 -0.5954 -0.4021
12298TIP3    H158309   6.057   0.237  11.793 -0.1908  0.4122 -0.5034
12298TIP3    H258310   6.130   0.222  11.925  0.0698 -1.2124 -0.8037
12299TIP3   OH258311   5.698   1.348  10.390  0.1590 -0.1593 -0.6113
12299TIP3    H158312   5.774   1.405  10.381  0.4656 -0.7776 -2.3266
12299TIP3    H258313   5.635   1.399  10.441  0.9728  1.1193 -0.8595
12300TIP3   OH258314   1.366   5.638   2.810 -0.4070 -0.1969 -0.4795
12300TIP3    H158315   1.379   5.732   2.824  0.6576 -0.5097  0.8018
12300TIP3    H258316   1.417   5.619   2.731 -2.4327  0.6748 -2.0776
12301TIP3   OH258317   6.351   0.364   5.761  0.2319  0.1705 -0.2828
12301TIP3    H158318   6.424   0.425   5.756  2.1812 -1.8101  1.5326
12301TIP3    H258319   6.273   0.418   5.752  1.8286  2.8979  1.1111
12302TIP3   OH258320   6.301   1.513   1.929 -0.0878  0.3566  0.0068
12302TIP3    H158321   6.361   1.550   1.865 -0.2483 -0.4290 -0.6143
12302TIP3    H258322   6.231   1.473   1.877 -1.9123  2.4320  0.7178
12303TIP3   OH258323   6.582   6.064   2.860  0.0193  0.8088 -0.5821
12303TIP3    H158324   6.589   5.968   2.860  0.7631  0.8623 -0.4287
12303TIP3    H258325   6.495   6.081   2.823  0.5506  0.1229 -2.2371
12304TIP3   OH258326   0.326   1.442  16.675 -0.1430  0.2783  0.1023
12304TIP3    H158327   0.375   1.360  16.666  1.3829  1.2327 -0.4627
12304TIP3    H258328   0.270   1.444  16.597 -0.0237 -0.1064  0.0033
12305TIP3   OH258329   4.445   1.029   2.663 -0.0508 -0.2013 -0.3967
12305TIP3    H158330   4.431   0.934   2.666  1.0541 -0.3573  0.8324
12305TIP3    H258331   4.366   1.066   2.704 -0.0176 -0.6613  0.1068
12306TIP3   OH258332   6.453   6.170   2.046  0.3786 -0.6411 -0.1435
12306TIP3    H158333   6.530   6.117   2.026  0.6642  0.1066 -1.0779
12306TIP3    H258334   6.487   6.245   2.095  0.4052  0.1877 -1.3833
12307TIP3   OH258335   0.003   1.103   6.024  0.5477  0.4861 -0.5265
12307TIP3    H158336  -0.060   1.108   6.097  1.5301  2.7616  0.2597
12307TIP3    H258337  -0.023   1.174   5.965  3.2771  2.6592  0.6756
12308TIP3   OH258338   4.617   6.440   0.191  0.4274  0.1449  0.4186
12308TIP3    H158339   4.627   6.508   0.125  0.6770  1.0305  1.3374
12308TIP3    H258340   4.541   6.390   0.164  0.0615  0.9786 -0.1135
12309TIP3   OH258341   5.399   0.340  14.367 -0.2427 -0.8529 -0.1440
12309TIP3    H158342   5.424   0.337  14.275 -2.1462  0.6734 -0.7908
12309TIP3    H258343   5.311   0.301  14.369 -0.7714  0.3051  0.7831
12310TIP3   OH258344   5.176   2.117  14.813 -0.5148 -0.2008 -0.4426
12310TIP3    H158345   5.236   2.192  14.812 -1.5229  0.6342 -0.2167
12310TIP3    H258346   5.133   2.119  14.727 -0.0738 -0.9169 -0.6817
12311TIP3   OH258347   6.238   0.553   5.168 -0.2873 -0.5501 -0.2050
12311TIP3    H158348   6.295   0.527   5.241  1.0659  0.2471 -0.9281
12311TIP3    H258349   6.299   0.579   5.099 -1.4695  3.3584  0.0177
12312TIP3   OH258350   2.802   3.871   0.008  0.1992 -0.2600 -0.6635
12312TIP3    H158351   2.851   3.865  -0.074  0.6019  1.2145 -0.5492
12312TIP3    H258352   2.810   3.962   0.035 -1.7346 -0.2119 -0.0890
12313TIP3   OH258353   6.517   2.866  11.978  0.0774  0.1684 -0.4787
12313TIP3    H158354   6.438   2.919  11.968  0.6444  0.7333 -2.3109
12313TIP3    H258355   6.490   2.777  11.958 -0.1261  0.3321 -0.9264
12314TIP3   OH258356   4.602   4.098   4.404 -0.7001 -0.1022  0.2951
12314TIP3    H158357   4.620   4.178   4.354  0.1696  0.9607  2.1949
12314TIP3    H258358   4.556   4.041   4.342 -3.1901  2.6107 -0.5999
12315TIP3   OH258359   0.774   0.296   2.634 -0.1309  0.0996 -0.4442
12315TIP3    H158360   0.734   0.362   2.577  0.4546  2.0390  1.2760
12315TIP3    H258361   0.702   0.237   2.657 -0.9406  0.8154 -1.0787
12316TIP3   OH258362   1.169   1.107   2.439  0.2778 -0.3370  0.3179
12316TIP3    H158363   1.172   1.018   2.474 -0.0509 -0.2968  0.4490
12316TIP3    H258364   1.095   1.148   2.483 -0.7044 -0.5521 -1.0624
12317TIP3   OH258365   3.626   0.943   2.424  0.3991  0.2467  0.1781
12317TIP3    H158366   3.538   0.909   2.434  0.0322  1.0119 -0.3339
12317TIP3    H258367   3.625   1.028   2.468  1.2656 -0.3105  1.3395
12318TIP3   OH258368   3.866   2.730  15.538 -0.3357  0.6967  0.2528
12318TIP3    H158369   3.794   2.684  15.580 -1.7415  1.3390 -1.3356
12318TIP3    H258370   3.909   2.777  15.609 -0.5666 -0.8335  1.4576
12319TIP3   OH258371   4.976   3.668   0.541 -0.4942  0.6823  0.6906
12319TIP3    H158372   4.883   3.669   0.517 -0.8330  1.2899  1.9542
12319TIP3    H258373   4.977   3.684   0.635  0.8770  0.1554  0.7865
12320TIP3   OH258374   2.441   0.238   4.153 -0.0521  0.2325  0.8684
12320TIP3    H158375   2.421   0.178   4.081 -0.0931  0.0727  1.0116
12320TIP3    H258376   2.441   0.325   4.113  1.7328  0.0131  0.2868
12321TIP3   OH258377   5.014   2.433  12.980 -0.0197  0.6373  0.0003
12321TIP3    H158378   4.925   2.407  13.002  0.3123 -0.8374 -0.2995
12321TIP3    H258379   5.035   2.503  13.042 -1.3303  0.9179  0.1440
12322TIP3   OH258380   0.930   2.560  11.059  0.1752  0.5494  0.3070
12322TIP3    H158381   0.931   2.616  11.136  1.1709  0.5001  0.3354
12322TIP3    H258382   0.933   2.471  11.094  2.0120  0.5449  0.2049
12323TIP3   OH258383   2.153   1.259  14.297 -0.5120 -0.1644 -0.4700
12323TIP3    H158384   2.181   1.350  14.298  0.9470 -0.5870  0.2123
12323TIP3    H258385   2.087   1.253  14.366  0.9921 -0.0744  1.0157
12324TIP3   OH258386   5.651   4.890   1.651  0.2778 -0.2008 -0.2092
12324TIP3    H158387   5.561   4.915   1.672  0.3400  1.1086 -1.3762
12324TIP3    H258388   5.658   4.799   1.681 -0.9109  0.1920  1.4049
12325TIP3   OH258389   3.709   3.617  16.526 -0.3073 -0.0214  0.9694
12325TIP3    H158390   3.760   3.580  16.599 -0.6240  1.2520  1.8745
12325TIP3    H258391   3.630   3.563  16.523  0.3948 -1.0446  0.5602
12326TIP3   OH258392   3.152   1.287  13.099  0.3528  0.4675  0.4628
12326TIP3    H158393   3.121   1.318  13.014  1.4440  0.5513  0.0728
12326TIP3    H258394   3.247   1.302  13.097  1.4080 -4.4759 -0.5102
12327TIP3   OH258395   6.706   1.518   3.231 -0.2932  0.0474  0.1959
12327TIP3    H158396   6.725   1.580   3.301  1.1238  2.6191 -2.2714
12327TIP3    H258397   6.679   1.572   3.157  2.4358 -2.0571 -2.6211
12328TIP3   OH258398   6.402   5.163   5.085 -0.3003  0.1729 -0.0208
12328TIP3    H158399   6.458   5.090   5.059  1.9051  1.9486 -0.5871
12328TIP3    H258400   6.446   5.202   5.161 -0.7235  1.6614 -0.5019
12329TIP3   OH258401   2.541   1.056  14.713  0.4982 -0.7382 -0.2692
12329TIP3    H158402   2.629   1.026  14.692  0.5451 -0.2225 -0.8430
12329TIP3    H258403   2.489   0.976  14.717  0.6786 -0.9451 -1.5077
12330TIP3   OH258404   0.133   5.798   3.906  0.0415 -0.1040 -0.2612
12330TIP3    H158405   0.120   5.880   3.953  0.6817 -0.4139  0.4715
12330TIP3    H258406   0.163   5.825   3.819 -1.0532  0.4643 -0.4834
12331TIP3   OH258407   2.031   2.813  16.952  0.0443 -0.0415  0.4698
12331TIP3    H158408   1.949   2.763  16.950 -0.4571  0.7792 -1.0077
12331TIP3    H258409   2.087   2.772  16.886 -0.2347  1.0646 -0.4916
12332TIP3   OH258410   0.196   1.978   1.090 -1.0301  0.0237 -0.1485
12332TIP3    H158411   0.182   1.963   0.997  2.0415 -1.6445 -0.4991
12332TIP3    H258412   0.130   1.923   1.133 -2.2926  0.5787 -1.2993
12333TIP3   OH258413   1.561   5.793   4.291 -0.1360 -0.4142  0.4209
12333TIP3    H158414   1.585   5.716   4.238 -0.7143 -0.2482 -0.0903
12333TIP3    H258415   1.591   5.771   4.380 -0.9691 -1.5690  0.4456
12334TIP3   OH258416   6.218   0.756  16.439 -0.1001 -0.8996  0.0399
12334TIP3    H158417   6.229   0.847  16.466  3.8526 -1.2811  0.3777
12334TIP3    H258418   6.129   0.733  16.465 -0.2467  1.9807  2.6577
12335TIP3   OH258419   5.484   2.973  15.205  0.2409 -0.0127  0.6036
12335TIP3    H158420   5.525   3.057  15.226  0.4813 -0.0881  0.4529
12335TIP3    H258421   5.430   2.953  15.281  1.2716 -0.3978  1.2646
12336TIP3   OH258422   1.295   0.102  15.950 -0.3699  0.4788 -0.4990
12336TIP3    H158423   1.358   0.089  15.879 -0.0005 -1.3190  0.1186
12336TIP3    H258424   1.318   0.036  16.015 -1.7349  1.0220  0.5786
12337TIP3   OH258425   3.942   0.918   4.728 -0.2708 -0.0146 -0.3375
12337TIP3    H158426   3.946   0.970   4.647 -0.0457  0.3044 -0.1211
12337TIP3    H258427   4.021   0.864   4.725 -0.5862 -0.4690 -0.6424
12338TIP3   OH258428   1.579   5.805   1.985 -0.2580 -0.4575  0.2784
12338TIP3    H158429   1.635   5.875   1.951  0.1203 -0.2579  1.2804
12338TIP3    H258430   1.638   5.729   1.991 -0.6474 -0.8659 -0.7321
12339TIP3   OH258431   1.976   1.855  15.003 -0.2102 -0.5462  0.8181
12339TIP3    H158432   1.911   1.925  15.011  0.5625  0.0996  1.7480
12339TIP3    H258433   2.017   1.852  15.090  0.9580 -0.9676  0.2674
12340TIP3   OH258434   2.754   2.648   1.095 -0.6820 -0.0558 -0.6052
12340TIP3    H158435   2.705   2.705   1.035 -3.3254 -0.0079  1.4310
12340TIP3    H258436   2.835   2.628   1.048 -1.3538  2.2438 -2.9824
12341TIP3   OH258437   2.945   0.883   0.959  0.0567  0.0992  0.6882
12341TIP3    H158438   2.936   0.975   0.934  1.8895 -0.2475 -1.6411
12341TIP3    H258439   3.023   0.881   1.015 -1.1595  0.1804  2.4604
12342TIP3   OH258440   3.063   0.935  12.334 -0.0270 -0.0861  0.0954
12342TIP3    H158441   2.993   0.962  12.275 -1.8367  0.0753  2.1742
12342TIP3    H258442   3.050   0.841  12.345 -0.1077 -0.0131  0.6741
12343TIP3   OH258443   2.824   2.052   0.956  0.2576 -0.0563 -0.6266
12343TIP3    H158444   2.821   1.963   0.990  0.7539 -0.8855 -2.6275
12343TIP3    H258445   2.824   2.107   1.035  0.9703 -1.8286  0.6959
12344TIP3   OH258446   0.192   5.100  12.265  0.0201  0.4305 -0.0764
12344TIP3    H158447   0.190   5.039  12.191  0.1010  0.8798 -0.4618
12344TIP3    H258448   0.135   5.061  12.331 -0.6180  0.3652 -0.6574
12345TIP3   OH258449   6.122   6.523  15.205 -0.0941 -0.4183 -0.5764
12345TIP3    H158450   6.035   6.544  15.171  0.4061  1.2667 -0.9516
12345TIP3    H258451   6.163   6.609  15.219  0.7984 -1.1271  1.5017
12346TIP3   OH258452   1.731   0.256  16.512 -0.0663 -0.0039  0.2780
12346TIP3    H158453   1.740   0.303  16.595  1.2999 -0.0050  0.1477
12346TIP3    H258454   1.819   0.255  16.475 -0.8885  1.2509 -1.8675
12347TIP3   OH258455   2.116   6.688  13.551 -0.0914  0.3834 -0.5763
12347TIP3    H158456   2.194   6.668  13.499  0.1226  0.0671 -0.1425
12347TIP3    H258457   2.068   6.605  13.555  0.5404  0.0554  0.7985
12348TIP3   OH258458   0.398   1.318  14.052 -0.3503 -0.2764 -0.2996
12348TIP3    H158459   0.484   1.318  14.095 -0.7461 -1.6003  0.5642
12348TIP3    H258460   0.346   1.381  14.101 -0.0342  0.1237 -0.4771
12349TIP3   OH258461   4.900   6.421  14.998 -0.4239  0.3174 -0.2488
12349TIP3    H158462   4.918   6.486  15.066  1.8777 -2.7435  2.4321
12349TIP3    H258463   4.825   6.371  15.031  0.1567 -0.6438 -0.3305
12350TIP3   OH258464   5.623   2.038  14.073  0.0284 -0.2534 -0.2178
12350TIP3    H158465   5.560   2.032  14.001  0.6065  0.4442 -0.8101
12350TIP3    H258466   5.697   2.087  14.035 -0.4275  1.8126  1.3553
12351TIP3   OH258467   3.934   3.061  16.048 -0.0448  0.0619 -0.1578
12351TIP3    H158468   4.014   3.087  16.093  0.0353  0.0606 -0.3005
12351TIP3    H258469   3.870   3.051  16.118 -0.3077  1.4893 -0.1660
12352TIP3   OH258470   2.576   0.504  15.235 -0.0813 -0.2831  0.2300
12352TIP3    H158471   2.667   0.477  15.245  0.0227 -0.0873 -0.1490
12352TIP3    H258472   2.581   0.590  15.192 -0.4078  0.3205  1.3619
12353TIP3   OH258473   4.467   4.345  13.194 -0.5886  0.1133 -0.3241
12353TIP3    H158474   4.478   4.428  13.240 -0.2767 -0.3497  0.4416
12353TIP3    H258475   4.380   4.314  13.219 -0.3211 -0.2596  0.1645
12354TIP3   OH258476   0.594   3.901   5.057 -0.0527 -0.3850  0.1529
12354TIP3    H158477   0.537   3.868   4.987  1.1024 -1.4497 -0.3336
12354TIP3    H258478   0.652   3.963   5.013 -0.7659  0.6417  0.6318
12355TIP3   OH258479   6.251   0.954   1.805  0.4718  0.4508 -0.5107
12355TIP3    H158480   6.315   1.024   1.817 -0.4511  1.2844 -0.3058
12355TIP3    H258481   6.289   0.897   1.737  1.4970  0.8187 -0.2579
12356TIP3   OH258482   4.880   5.702   2.087  0.1080 -0.3925 -0.3616
12356TIP3    H158483   4.806   5.644   2.106 -0.0200  0.0866  0.6395
12356TIP3    H258484   4.933   5.700   2.167  0.4508  0.3478 -0.5636
12357TIP3   OH258485   2.472   4.260   4.932 -0.3450 -0.3802  0.0566
12357TIP3    H158486   2.521   4.234   4.854 -0.9638  0.3652 -0.5944
12357TIP3    H258487   2.484   4.187   4.993  1.0570 -0.4811 -0.3111
12358TIP3   OH258488   5.139   1.011   2.280  0.0628  0.2342 -0.4189
12358TIP3    H158489   5.100   0.924   2.267  1.0689 -0.3229  0.2061
12358TIP3    H258490   5.215   1.012   2.221 -0.9867  1.4087 -1.8245
12359TIP3   OH258491   3.006   0.019   0.140 -0.3482 -0.1610 -0.3954
12359TIP3    H158492   2.961  -0.012   0.061 -1.9214 -0.5159  0.6171
12359TIP3    H258493   3.084   0.064   0.106  0.3719 -2.4861 -2.0535
12360TIP3   OH258494   6.473   0.624   2.280 -0.4265 -0.2320 -0.3700
12360TIP3    H158495   6.539   0.559   2.257 -0.1183 -0.3778  0.8840
12360TIP3    H258496   6.416   0.581   2.344 -0.2756  0.6823  0.4100
12361TIP3   OH258497   3.361   5.097   3.814 -0.2003 -0.1421  0.1247
12361TIP3    H158498   3.443   5.145   3.821 -0.4072  0.0257  2.0836
12361TIP3    H258499   3.319   5.131   3.736  1.1633  0.4548 -0.3687
12362TIP3   OH258500   6.120   4.004   3.272  0.7659  0.0943  0.0675
12362TIP3    H158501   6.187   3.935   3.265  1.8397  1.0552  0.5485
12362TIP3    H258502   6.075   3.985   3.354  0.4285 -0.5499 -0.2530
12363TIP3   OH258503   1.013   4.581  12.051 -0.0863 -0.5672 -0.2983
12363TIP3    H158504   1.102   4.550  12.033  0.6275  0.5314  1.1643
12363TIP3    H258505   0.980   4.523  12.119  0.3708  0.3545  0.7461
12364TIP3   OH258506   0.840   5.344   3.854 -0.3877 -0.1327  0.7982
12364TIP3    H158507   0.883   5.304   3.929  2.1329  1.5474  0.3669
12364TIP3    H258508   0.880   5.301   3.778 -1.0581 -0.0109  0.3629
12365TIP3   OH258509   4.405   5.094  15.916  0.2744 -0.1235  0.1645
12365TIP3    H158510   4.327   5.090  15.972 -0.3590 -1.2730 -0.7441
12365TIP3    H258511   4.471   5.138  15.969  0.2491 -2.6112  2.4934
12366TIP3   OH258512   6.525   2.841  14.382 -0.0037  0.3177 -0.6836
12366TIP3    H158513   6.590   2.773  14.366 -0.6872 -0.1449 -1.5844
12366TIP3    H258514   6.470   2.841  14.303  0.7001  2.7521 -1.2755
12367TIP3   OH258515   3.336   5.268   0.168 -0.2516 -0.4154 -0.2197
12367TIP3    H158516   3.380   5.353   0.157 -2.9237  0.9371 -1.5323
12367TIP3    H258517   3.342   5.226   0.082 -0.5130 -0.7317 -0.0844
12368TIP3   OH258518   0.875   1.102  14.246  0.2001 -0.0367 -0.4198
12368TIP3    H158519   0.960   1.070  14.277  0.5074  0.0361 -1.1747
12368TIP3    H258520   0.897   1.174  14.188 -0.3630 -0.3020 -0.9655
12369TIP3   OH258521   1.122   3.644   1.523 -0.6708 -0.2194 -0.4011
12369TIP3    H158522   1.208   3.644   1.565 -1.5104 -0.8953  1.3935
12369TIP3    H258523   1.060   3.626   1.593 -2.2855  0.0466 -1.6890
12370TIP3   OH258524   2.270   1.324   1.513 -0.3924  0.1673 -0.4718
12370TIP3    H158525   2.228   1.320   1.426  0.2823  0.6747 -0.8293
12370TIP3    H258526   2.333   1.252   1.512  0.7498  1.1330 -1.0290
12371TIP3   OH258527   1.399   3.282   5.030  0.1843  0.1519 -0.1047
12371TIP3    H158528   1.303   3.286   5.030  0.2148  0.9314 -0.1738
12371TIP3    H258529   1.423   3.277   4.938  0.2772  1.9062 -0.1967
12372TIP3   OH258530   5.138   6.702  14.749  0.0151  0.7542  0.3058
12372TIP3    H158531   5.051   6.707  14.789 -0.7271  2.3163 -1.3676
12372TIP3    H258532   5.183   6.780  14.781 -0.1741  1.3837 -0.8882
12373TIP3   OH258533   5.607   4.089  16.653 -0.0398 -0.2512  0.0582
12373TIP3    H158534   5.599   4.088  16.558 -0.6248 -0.4040  0.1089
12373TIP3    H258535   5.623   3.998  16.677  0.2458 -0.1928  0.0983
12374TIP3   OH258536   2.765   2.286  16.566 -0.8791  0.5642  0.4590
12374TIP3    H158537   2.740   2.284  16.474  0.5878  1.9550 -0.0219
12374TIP3    H258538   2.697   2.338  16.609 -2.0173 -0.7911  0.3507
12375TIP3   OH258539   1.550   4.759   3.342 -0.3252 -0.2969 -0.0953
12375TIP3    H158540   1.494   4.741   3.266  0.7459 -0.4180 -0.8845
12375TIP3    H258541   1.533   4.851   3.363 -2.9278 -1.0225  1.5158
12376TIP3   OH258542   4.312   6.349  13.268  0.4596 -0.6311  0.7267
12376TIP3    H158543   4.379   6.397  13.218  1.0326 -2.3565 -0.2466
12376TIP3    H258544   4.251   6.417  13.297  0.7245  0.5950 -1.3640
12377TIP3   OH258545   2.316   5.336  15.957 -0.0782  0.1701 -0.2636
12377TIP3    H158546   2.256   5.266  15.983  0.7281  0.1695  1.7816
12377TIP3    H258547   2.317   5.396  16.031  1.5352  0.7901 -0.7375
12378TIP3   OH258548   4.287   1.140  16.727 -0.8249  0.5811 -0.0882
12378TIP3    H158549   4.224   1.133  16.655 -1.2637 -0.4638  0.3803
12378TIP3    H258550   4.300   1.050  16.756  1.7899  0.6050 -0.9126
12379TIP3   OH258551   2.471   3.499  14.330  0.5561  0.8208  0.5881
12379TIP3    H158552   2.458   3.471  14.240  1.0038 -0.6495  0.9490
12379TIP3    H258553   2.562   3.528  14.334  0.3329  1.5493  0.4072
12380TIP3   OH258554   2.870   4.377  11.360  0.0665 -0.2590 -0.1582
12380TIP3    H158555   2.785   4.333  11.358  0.3251 -0.8857  1.4568
12380TIP3    H258556   2.850   4.468  11.336 -1.5329  0.2280  2.5174
12381TIP3   OH258557   1.557   2.230  14.944 -0.4606 -0.5312  0.0781
12381TIP3    H158558   1.612   2.209  15.020 -1.1266  1.3811  1.1566
12381TIP3    H258559   1.569   2.156  14.885  2.8796 -0.4150  0.4492
12382TIP3   OH258560   1.231   2.715  16.982 -0.3057 -0.0939 -0.5881
12382TIP3    H158561   1.276   2.793  16.950  1.0050  0.0664  1.4760
12382TIP3    H258562   1.147   2.747  17.014  1.1043  1.0028  2.3702
12383TIP3   OH258563   2.084   0.138  12.893  0.5092 -0.3050 -0.2843
12383TIP3    H158564   2.123   0.170  12.975  0.2005  0.7817 -0.5537
12383TIP3    H258565   2.124   0.052  12.880  0.5418 -0.5176  1.0269
12384TIP3   OH258566   3.211   1.729   4.511  0.7938 -0.2113  0.1637
12384TIP3    H158567   3.197   1.801   4.571  1.5321 -0.6714  0.9127
12384TIP3    H258568   3.131   1.676   4.517 -0.2581  1.1187 -1.2690
12385TIP3   OH258569   4.983   5.585   1.533  0.0830  0.4605  0.1307
12385TIP3    H158570   5.051   5.577   1.466  0.2883  2.1876  0.0927
12385TIP3    H258571   5.019   5.648   1.596 -0.9747  0.4541  0.7605
12386TIP3   OH258572   0.021   3.804   2.172 -0.1403  0.2882 -0.1155
12386TIP3    H158573   0.004   3.880   2.116  2.1234  1.5943  0.8482
12386TIP3    H258574   0.005   3.836   2.261 -0.6737 -0.8570  0.2234
12387TIP3   OH258575   6.050   5.588   2.425  0.4292  0.4080 -0.3757
12387TIP3    H158576   6.098   5.664   2.458  0.2776  0.0375  0.7736
12387TIP3    H258577   6.118   5.520   2.416  0.0631 -0.4705  2.3527
12388TIP3   OH258578   3.446   3.135  10.584  0.1712  0.0579 -0.2364
12388TIP3    H158579   3.528   3.108  10.626 -1.0256  1.2665  3.2283
12388TIP3    H258580   3.473   3.192  10.512  2.3776 -2.2003 -1.3502
12389TIP3   OH258581   2.310   2.379  13.669 -0.1398 -0.0472 -0.6316
12389TIP3    H158582   2.366   2.365  13.592  1.0520  0.8760  0.0240
12389TIP3    H258583   2.223   2.394  13.633 -0.1888 -2.3773 -1.6528
12390TIP3   OH258584   1.560   1.284   6.223 -0.1233 -0.0530 -0.2656
12390TIP3    H158585   1.535   1.192   6.234  0.8241 -0.1749  1.0292
12390TIP3    H258586   1.642   1.293   6.271 -0.6686  1.6901  0.4177
12391TIP3   OH258587   0.924   4.814   3.865 -1.1076 -0.4406 -0.3357
12391TIP3    H158588   1.001   4.833   3.919 -2.6881 -1.5668  2.5892
12391TIP3    H258589   0.896   4.899   3.832 -0.2674  0.4156  1.0211
12392TIP3   OH258590   1.533   6.579   4.374  0.8272  0.5664 -0.2165
12392TIP3    H158591   1.502   6.580   4.464  0.6152  0.2390 -0.2843
12392TIP3    H258592   1.615   6.530   4.377  1.9839  2.4225  0.1612
12393TIP3   OH258593   2.108   2.677  11.767 -0.0470 -0.0291 -0.2838
12393TIP3    H158594   2.030   2.713  11.810  0.0215  0.0152 -0.1975
12393TIP3    H258595   2.080   2.591  11.736  0.5075 -0.9877  1.7265
12394TIP3   OH258596   6.430   4.664   3.410 -0.3206 -1.0742 -0.2492
12394TIP3    H158597   6.492   4.731   3.379 -0.3313 -0.2196  1.4464
12394TIP3    H258598   6.372   4.649   3.335  0.7270 -0.4400 -1.2216
12395TIP3   OH258599   4.500   4.770   5.873 -0.6115  0.5466 -0.0701
12395TIP3    H158600   4.492   4.865   5.862 -2.1288  0.3856 -0.5924
12395TIP3    H258601   4.425   4.746   5.927 -0.4004 -0.3949 -0.1770
12396TIP3   OH258602   0.131   1.964   0.783  0.5064  0.4648 -0.8171
12396TIP3    H158603   0.095   1.917   0.708  0.2763  1.3470 -1.2670
12396TIP3    H258604   0.066   2.032   0.802 -0.8493 -1.4231  1.9271
12397TIP3   OH258605   5.853   3.262   3.059 -0.5058  0.1658 -0.4504
12397TIP3    H158606   5.900   3.345   3.050 -1.4587  0.6137 -1.7568
12397TIP3    H258607   5.869   3.216   2.977  0.1056 -1.0181  0.3105
12398TIP3   OH258608   4.447   1.308  11.523 -0.7088 -0.4196  0.2634
12398TIP3    H158609   4.412   1.282  11.438 -2.1375  1.1243  0.3143
12398TIP3    H258610   4.395   1.259  11.586 -1.0717 -0.0331  0.2734
12399TIP3   OH258611   3.534   4.594   1.044  1.0630 -0.2428  0.0424
12399TIP3    H158612   3.511   4.584   1.136  0.5133  0.0864 -0.0541
12399TIP3    H258613   3.603   4.660   1.044  2.0831 -1.2703  0.3373
12400TIP3   OH258614   2.602   0.885  12.229  0.1272 -0.4384 -0.6358
12400TIP3    H158615   2.642   0.886  12.316 -1.4247  0.2043  0.1211
12400TIP3    H258616   2.534   0.817  12.235 -1.1523  0.7798 -0.7455
12401TIP3   OH258617   3.287   4.191  13.999  0.1291 -0.7998 -0.6827
12401TIP3    H158618   3.257   4.101  13.986  1.9716 -1.2298 -2.5480
12401TIP3    H258619   3.215   4.245  13.967 -1.4352 -1.4990  1.4091
12402TIP3   OH258620   3.020   5.525  16.004 -0.4019  0.0861  0.6213
12402TIP3    H158621   3.054   5.455  16.061 -1.5386 -0.2414  0.9266
12402TIP3    H258622   3.002   5.597  16.064  0.5371  0.5649  0.3410
12403TIP3   OH258623   3.304   3.766   1.016 -0.1400  0.1614  0.5057
12403TIP3    H158624   3.256   3.721   0.947  0.8602  0.1633 -0.2138
12403TIP3    H258625   3.258   3.743   1.097 -0.0680 -1.5613  0.0840
12404TIP3   OH258626   1.014   1.014   1.280 -0.4615  0.9788  1.0273
12404TIP3    H158627   1.067   1.009   1.200 -1.6663 -0.3094  0.2579
12404TIP3    H258628   0.997   1.107   1.292  0.5920  1.2662  0.3597
12405TIP3   OH258629   0.284   2.654  14.178 -0.1731  0.0622 -0.2114
12405TIP3    H158630   0.329   2.724  14.225  0.7697  0.0545 -1.0550
12405TIP3    H258631   0.325   2.574  14.211 -2.0582 -0.2131  1.6144
12406TIP3   OH258632   2.023   6.430  16.114  0.4733  0.2705  0.1710
12406TIP3    H158633   1.936   6.460  16.140  0.2874 -0.7160  0.6896
12406TIP3    H258634   2.009   6.344  16.074  1.3671 -0.5638  1.5808
12407TIP3   OH258635   2.260   3.476   6.156 -0.4292  0.5273  0.2397
12407TIP3    H158636   2.317   3.538   6.110 -1.1509  2.1796  1.4632
12407TIP3    H258637   2.180   3.526   6.174 -2.0431 -1.5243 -0.8439
12408TIP3   OH258638   3.192   6.281   6.004  0.0826 -0.0120  0.0802
12408TIP3    H158639   3.140   6.253   6.080  1.1350 -1.2209  0.4025
12408TIP3    H258640   3.260   6.338   6.042  1.5225 -1.7965  0.3323
12409TIP3   OH258641   4.209   3.102  14.837 -0.2084 -0.2850 -0.5049
12409TIP3    H158642   4.258   3.020  14.832  0.3457  0.0270 -0.2679
12409TIP3    H258643   4.162   3.096  14.920 -0.3278 -0.4503 -0.5833
12410TIP3   OH258644   2.158   3.073   0.990  0.0148 -0.3515 -0.5874
12410TIP3    H158645   2.078   3.040   1.030  1.0572 -1.1696  0.9076
12410TIP3    H258646   2.164   3.026   0.906 -0.6169 -0.9514 -0.3069
12411TIP3   OH258647   5.681   3.449   1.863 -0.0417 -0.3669 -0.2680
12411TIP3    H158648   5.675   3.544   1.857 -0.1123 -0.2462  1.2462
12411TIP3    H258649   5.706   3.421   1.775 -0.2659  1.0237 -0.8045
12412TIP3   OH258650   0.536   6.731   0.435 -0.1119 -0.5960 -0.3837
12412TIP3    H158651   0.532   6.685   0.351  1.8767  0.3862 -1.0769
12412TIP3    H258652   0.622   6.773   0.436 -0.2792 -0.1623  1.9493
12413TIP3   OH258653   4.817   2.509   1.544 -0.2560 -0.6836  0.3756
12413TIP3    H158654   4.723   2.525   1.535 -0.1677 -0.0812  0.4416
12413TIP3    H258655   4.828   2.484   1.636 -0.4919 -1.8419  0.0975
12414TIP3   OH258656   4.856   1.156   0.388  0.1794  0.0411  0.3207
12414TIP3    H158657   4.861   1.061   0.388  0.7153  0.0037 -1.9580
12414TIP3    H258658   4.764   1.175   0.368 -0.0240  0.0254  1.2112
12415TIP3   OH258659   1.894   5.729   0.340 -0.2306  0.4377 -0.2676
12415TIP3    H158660   1.842   5.663   0.295 -0.8779 -2.4608  4.0628
12415TIP3    H258661   1.984   5.698   0.334 -0.2300  0.4140 -0.1446
12416TIP3   OH258662   1.063   6.651   2.521  0.4590  0.6184 -0.0405
12416TIP3    H158663   0.987   6.592   2.529  0.6158  0.4946  0.5450
12416TIP3    H258664   1.073   6.662   2.426 -0.6163  1.0670 -0.1187
12417TIP3   OH258665   5.879   6.558   2.127 -0.0174  0.2407 -0.0555
12417TIP3    H158666   5.836   6.637   2.161  1.9104  2.0582 -1.5220
12417TIP3    H258667   5.922   6.520   2.203  0.0019  1.2869  0.4805
12418TIP3   OH258668   0.820   0.996  12.778  0.0227  0.5651  0.1419
12418TIP3    H158669   0.912   1.007  12.802  0.0557  0.8475 -0.1092
12418TIP3    H258670   0.773   0.998  12.862  0.2578  0.2595  0.2827
12419TIP3   OH258671   5.682   3.912   0.952 -0.0385  0.5307 -0.0092
12419TIP3    H158672   5.763   3.865   0.931 -1.9971 -1.9904 -2.7436
12419TIP3    H258673   5.701   4.003   0.931  2.3093  0.1888  0.3210
12420TIP3   OH258674   0.942   0.514   5.568  0.2494 -0.0593  0.0597
12420TIP3    H158675   0.969   0.582   5.505  0.4496  0.0554  0.2683
12420TIP3    H258676   0.871   0.555   5.617 -0.4187 -0.4166 -0.5936
12421TIP3   OH258677   4.036   6.126   0.164 -0.2975  0.6290  0.4621
12421TIP3    H158678   4.069   6.055   0.219  0.6564  0.9600  0.3290
12421TIP3    H258679   3.974   6.173   0.220 -2.6278 -1.5437 -0.0974
12422TIP3   OH258680   0.956   3.963  16.794  0.0009 -0.6395 -0.1737
12422TIP3    H158681   1.044   3.938  16.822  0.1756  1.5883  1.6367
12422TIP3    H258682   0.902   3.954  16.873 -1.1462 -0.8191 -0.9487
12423TIP3   OH258683   1.979   5.774   4.194 -0.0622  0.1209  0.0762
12423TIP3    H158684   1.962   5.830   4.118 -2.7609 -1.3221 -0.5211
12423TIP3    H258685   2.035   5.704   4.160 -0.7698 -0.1933 -0.4682
12424TIP3   OH258686   0.776   1.251   4.349 -0.0340  0.5063  0.4116
12424TIP3    H158687   0.703   1.195   4.321  0.3992  0.1805 -0.1045
12424TIP3    H258688   0.826   1.266   4.268 -0.4566  2.1220  0.4326
12425TIP3   OH258689   5.102   2.071   3.996 -0.0984  0.4286 -0.1526
12425TIP3    H158690   5.148   2.038   4.073 -0.9488 -0.2958  0.0672
12425TIP3    H258691   5.150   2.149   3.971  0.8021  0.1031  0.5018
12426TIP3   OH258692   5.277   6.222  12.543 -0.4328 -0.1118 -0.0081
12426TIP3    H158693   5.264   6.264  12.628  0.4904  0.5606 -0.1779
12426TIP3    H258694   5.223   6.144  12.546 -1.1760  0.4167  0.8230
12427TIP3   OH258695   4.280   5.732   2.790  0.5281 -0.0285 -0.2394
12427TIP3    H158696   4.335   5.794   2.839 -2.1566  0.2996  2.6889
12427TIP3    H258697   4.237   5.786   2.724 -1.5217  1.3496  2.0585
12428TIP3   OH258698   3.227   1.831  15.875 -0.5667 -0.7216  0.0483
12428TIP3    H158699   3.131   1.822  15.873 -0.5577 -1.5372  1.6362
12428TIP3    H258700   3.247   1.856  15.965  0.8161 -2.0725  0.1641
12429TIP3   OH258701   4.097   6.543  14.093  0.3720 -0.3678 -0.1490
12429TIP3    H158702   4.120   6.636  14.085  0.3971 -0.3455  0.1845
12429TIP3    H258703   4.044   6.538  14.173  1.9562 -0.9437  0.9119
12430TIP3   OH258704   0.209   2.219  13.257  0.2298  0.0575 -0.2565
12430TIP3    H158705   0.267   2.203  13.332 -1.1292 -1.4771  0.5477
12430TIP3    H258706   0.121   2.214  13.294 -0.4510  1.3282 -1.6221
12431TIP3   OH258707   3.680   2.930   4.011  0.0130 -0.0250  0.1437
12431TIP3    H158708   3.717   2.995   3.952  0.4091 -1.2624 -1.0062
12431TIP3    H258709   3.597   2.968   4.040  1.5606  2.3171  1.9083
12432TIP3   OH258710   6.375   3.187   2.307  0.7443 -0.2367 -0.0269
12432TIP3    H158711   6.469   3.184   2.323  0.6642 -0.1032  0.4925
12432TIP3    H258712   6.349   3.276   2.331  0.7253  0.2107 -1.5973
12433TIP3   OH258713   2.355   5.364  16.674 -0.8779  0.4586 -0.0097
12433TIP3    H158714   2.436   5.414  16.666 -1.8611  1.8046 -3.6255
12433TIP3    H258715   2.295   5.422  16.719 -0.0258 -0.4948  2.5669
12434TIP3   OH258716   4.022   5.312   5.608  0.3039  1.0947  0.2478
12434TIP3    H158717   4.014   5.274   5.696 -0.8245  1.2329  0.2231
12434TIP3    H258718   3.967   5.390   5.612 -1.6583 -0.1370 -1.2642
12435TIP3   OH258719   0.740   6.286   5.548 -0.2094  0.1699  0.7546
12435TIP3    H158720   0.816   6.295   5.490  0.0731  0.2605  1.1345
12435TIP3    H258721   0.667   6.266   5.489  0.4743 -1.9976  0.5502
12436TIP3   OH258722   0.825   4.654  16.706  0.0773 -0.4031 -0.4165
12436TIP3    H158723   0.807   4.662  16.612  0.8567 -0.7936 -0.6107
12436TIP3    H258724   0.914   4.688  16.715 -0.1417 -0.0068  0.2453
12437TIP3   OH258725   4.621   6.332   3.688  0.4453 -0.2102 -0.7955
12437TIP3    H158726   4.596   6.350   3.598 -0.7506 -3.1641 -1.1673
12437TIP3    H258727   4.569   6.393   3.740 -1.4712 -0.7273 -1.9997
12438TIP3   OH258728   3.726   5.830  15.569  0.3827 -0.2791 -0.0268
12438TIP3    H158729   3.758   5.917  15.544 -1.2315  1.3147  2.8885
12438TIP3    H258730   3.700   5.789  15.486 -2.0185  3.3966 -1.3262
12439TIP3   OH258731   3.782   3.009  12.784  0.0085 -0.1696  0.0128
12439TIP3    H158732   3.817   3.045  12.703 -1.6537  0.9849 -0.2404
12439TIP3    H258733   3.802   3.075  12.850 -2.8463  1.2692 -0.4096
12440TIP3   OH258734   3.449   5.702  12.787 -1.0910  0.4576  0.1176
12440TIP3    H158735   3.457   5.607  12.789 -3.3020  0.2222  0.3981
12440TIP3    H258736   3.536   5.733  12.762  0.0154 -1.5579  1.2554
12441TIP3   OH258737   4.703   0.147   2.396  0.0177 -1.1140 -1.0718
12441TIP3    H158738   4.665   0.194   2.470 -1.3438 -2.2230 -1.0361
12441TIP3    H258739   4.703   0.055   2.423  0.1181 -1.4597 -2.2001
12442TIP3   OH258740   2.956   4.725  15.999  0.0421  0.6233 -0.1327
12442TIP3    H158741   2.998   4.639  15.987  0.0601  0.8035 -1.4900
12442TIP3    H258742   2.986   4.777  15.924 -1.9133  1.0296 -0.6865
12443TIP3   OH258743   2.833   3.052   4.111 -0.4599  0.2078  0.1425
12443TIP3    H158744   2.853   3.146   4.119 -1.2663  0.3335  0.9974
12443TIP3    H258745   2.754   3.041   4.164  1.4218 -1.5434  2.8298
12444TIP3   OH258746   5.764   5.650  11.517 -0.1662  0.0742 -0.0697
12444TIP3    H158747   5.749   5.556  11.509  0.5860  0.0881 -3.1869
12444TIP3    H258748   5.842   5.658  11.571 -0.8242 -0.9928  1.0870
12445TIP3   OH258749   2.820   5.472   2.039 -0.1532  0.6338  0.0351
12445TIP3    H158750   2.761   5.400   2.061 -0.4046  0.3391 -1.4654
12445TIP3    H258751   2.898   5.429   2.004  0.0055  1.0655 -0.1476
12446TIP3   OH258752   2.378   4.363  11.113 -0.4929 -0.1999  0.4543
12446TIP3    H158753   2.444   4.315  11.062 -0.9878  0.6192 -1.0222
12446TIP3    H258754   2.404   4.455  11.105 -1.6184  0.1030  0.1361
12447TIP3   OH258755   2.690   4.152   0.799  0.1215  0.4069  0.1977
12447TIP3    H158756   2.739   4.232   0.817  0.1993  0.4331 -0.1351
12447TIP3    H258757   2.673   4.154   0.705  1.2436 -0.6033 -0.0447
12448TIP3   OH258758   5.388   0.473  15.616 -0.0802 -0.0288  0.3061
12448TIP3    H158759   5.361   0.400  15.559 -0.8032 -0.9744  1.8020
12448TIP3    H258760   5.481   0.485  15.597  0.0850 -1.4237  0.0943
12449TIP3   OH258761   6.694   1.526   0.221 -0.8409 -0.8665 -0.0666
12449TIP3    H158762   6.705   1.576   0.140 -1.9779 -1.2271 -0.4671
12449TIP3    H258763   6.704   1.435   0.193 -1.1729 -0.9861  0.2022
12450TIP3   OH258764   5.352   1.899   3.645  0.4551  0.4028 -0.1952
12450TIP3    H158765   5.360   1.936   3.733  1.1680  2.2774 -1.0064
12450TIP3    H258766   5.427   1.840   3.636 -0.4688 -1.0166  0.9675
12451TIP3   OH258767   6.505   3.088   2.044 -0.3738 -0.0109 -0.3281
12451TIP3    H158768   6.470   3.157   1.987  0.5736  0.2685 -0.5959
12451TIP3    H258769   6.445   3.086   2.118  0.0334  1.6980  0.1001
12452TIP3   OH258770   0.870   5.299  12.299 -0.1155 -0.4142  0.1677
12452TIP3    H158771   0.878   5.341  12.214 -0.4737  0.0898  0.3823
12452TIP3    H258772   0.777   5.281  12.309 -0.2497  0.6450  0.9780
12453TIP3   OH258773   4.307   2.722   2.448  0.3538 -0.0139  0.6603
12453TIP3    H158774   4.221   2.699   2.411 -0.2580  0.7425  1.5603
12453TIP3    H258775   4.366   2.724   2.373 -0.2058 -1.4621  0.1351
12454TIP3   OH258776   2.522   1.775   6.168  0.1677  0.4952 -0.0176
12454TIP3    H158777   2.525   1.702   6.231 -0.2500  1.8048  1.5849
12454TIP3    H258778   2.579   1.747   6.097  0.2306 -1.2883  0.6790
12455TIP3   OH258779   2.787   5.738   5.682 -0.2312  0.0184  0.6964
12455TIP3    H158780   2.875   5.699   5.686 -0.9186 -2.1631 -2.4081
12455TIP3    H258781   2.803   5.832   5.686  2.3838 -0.2671 -0.7572
12456TIP3   OH258782   4.375   3.329  14.926  0.3065 -0.1122 -0.5239
12456TIP3    H158783   4.335   3.258  14.875 -0.1402 -0.6730  0.5719
12456TIP3    H258784   4.303   3.362  14.980  0.7276  0.5961 -0.3874
12457TIP3   OH258785   1.739   2.611  14.679  0.4790  0.8617  0.8977
12457TIP3    H158786   1.708   2.630  14.591  2.6096  0.9178  0.1005
12457TIP3    H258787   1.817   2.665  14.689  1.3659 -0.5642  2.0974
12458TIP3   OH258788   5.761   1.311   5.833  0.9417 -0.0027  0.1367
12458TIP3    H158789   5.855   1.317   5.854  1.3646  0.4629 -1.7219
12458TIP3    H258790   5.734   1.402   5.819 -0.0267 -0.0505  1.4332
12459TIP3   OH258791   6.331   0.757  12.837  0.1326  0.0524  0.3033
12459TIP3    H158792   6.277   0.828  12.873 -1.5219  0.3458 -2.4434
12459TIP3    H258793   6.369   0.794  12.757  1.3926 -1.3719  0.2057
12460TIP3   OH258794   1.891   1.134  15.962 -0.6441  0.0149  0.0551
12460TIP3    H158795   1.829   1.126  16.034  0.1236  0.2804  0.7488
12460TIP3    H258796   1.856   1.075  15.895 -2.8941  1.8179 -0.4895
12461TIP3   OH258797   6.107   6.584  13.103  0.3793 -0.9288 -0.0216
12461TIP3    H158798   6.061   6.501  13.116 -2.1871  0.1353 -1.5947
12461TIP3    H258799   6.047   6.650  13.138  0.9849  0.4962 -1.5641
12462TIP3   OH258800   4.091   2.769  16.121  0.4731  0.2102 -0.2835
12462TIP3    H158801   4.140   2.708  16.066  0.1461 -0.1122 -0.2241
12462TIP3    H258802   4.146   2.847  16.125  0.9740 -0.1372 -0.2338
12463TIP3   OH258803   6.316   0.492  11.914  0.0841 -0.0856 -0.1593
12463TIP3    H158804   6.274   0.415  11.876  0.6527  0.4641 -2.0157
12463TIP3    H258805   6.343   0.544  11.839  1.1897  1.1378  1.0261
12464TIP3   OH258806   5.895   3.589   1.051 -0.0338 -0.0756 -0.5398
12464TIP3    H158807   5.978   3.555   1.085  1.4183 -0.3697 -4.0368
12464TIP3    H258808   5.911   3.682   1.038 -0.4780 -0.0072 -0.6037
12465TIP3   OH258809   1.928   3.499   0.992 -0.2667 -0.4230  0.1274
12465TIP3    H158810   1.892   3.412   0.974 -1.1556 -0.1310  0.4209
12465TIP3    H258811   1.962   3.529   0.908 -1.7138 -0.2722 -0.4272
12466TIP3   OH258812   0.902   4.156   0.722 -0.3561  0.1373  0.4672
12466TIP3    H158813   0.884   4.075   0.675  0.6558  0.3273 -0.2614
12466TIP3    H258814   0.849   4.149   0.802  0.3624 -1.6193  0.8285
12467TIP3   OH258815   2.636   3.853  10.784  0.1010  0.3340 -0.0359
12467TIP3    H158816   2.572   3.914  10.748 -1.5878 -1.5400 -0.4029
12467TIP3    H258817   2.720   3.900  10.779 -1.1369  2.7130  0.0539
12468TIP3   OH258818   4.776   4.377   5.928 -0.2568  0.2531 -0.0529
12468TIP3    H158819   4.794   4.407   6.017  0.6819 -1.7877  0.4774
12468TIP3    H258820   4.689   4.413   5.908 -0.3483  0.9890  1.5445
12469TIP3   OH258821   1.378   5.823   1.739 -0.0215  0.3884  0.2532
12469TIP3    H158822   1.288   5.839   1.712  0.6994  0.1944 -2.4913
12469TIP3    H258823   1.418   5.910   1.742 -0.3266  0.5147  1.8416
12470TIP3   OH258824   0.928   2.931   5.653  0.0100  0.6329 -0.6901
12470TIP3    H158825   0.841   2.970   5.660 -0.6846 -0.9741  0.3397
12470TIP3    H258826   0.953   2.914   5.744  0.3587 -1.0569 -1.0706
12471TIP3   OH258827   6.272   5.951  17.149  0.0065 -0.1415 -0.1428
12471TIP3    H158828   6.245   5.938  17.058 -1.0551 -0.4534  0.1972
12471TIP3    H258829   6.259   5.866  17.191  1.3551 -0.2448  0.1138
12472TIP3   OH258830   6.770   2.790   5.749 -0.3610 -0.9384  0.2246
12472TIP3    H158831   6.826   2.713   5.743 -0.1602 -0.7040 -1.5793
12472TIP3    H258832   6.824   2.862   5.716 -0.9413 -0.2540  0.7359
12473TIP3   OH258833   0.941   1.786   2.035 -0.0619  0.4893 -0.2227
12473TIP3    H158834   0.943   1.834   2.118  0.5896  0.1601 -0.0380
12473TIP3    H258835   1.028   1.799   1.997  0.0057 -0.2272 -0.3427
12474TIP3   OH258836   5.219   1.993   4.565 -0.2947 -0.1507  0.2798
12474TIP3    H158837   5.173   2.032   4.639 -1.4196 -0.7164 -0.1040
12474TIP3    H258838   5.157   1.929   4.529  0.7932 -0.9371 -0.2496
12475TIP3   OH258839   4.384   2.696   0.223 -0.4060  0.1381 -0.1823
12475TIP3    H158840   4.298   2.713   0.263 -1.0620 -0.3200 -1.3385
12475TIP3    H258841   4.367   2.701   0.128  0.0845 -3.3023 -0.5687
12476TIP3   OH258842   4.261   5.851   4.743 -0.4990  0.0068  0.5826
12476TIP3    H158843   4.317   5.781   4.712 -2.0949 -1.6267  1.1800
12476TIP3    H258844   4.249   5.908   4.667  1.9008  0.4392  0.4507
12477TIP3   OH258845   4.039   0.627  11.953  0.0160  0.0917 -0.4427
12477TIP3    H158846   4.048   0.570  12.029  1.6882 -0.6563 -1.1463
12477TIP3    H258847   4.129   0.644  11.924 -0.5540  0.7273 -1.9686
12478TIP3   OH258848   5.644   6.070  12.877 -0.0338 -0.3770 -0.5300
12478TIP3    H158849   5.565   6.088  12.928  0.9034 -0.3768  0.9856
12478TIP3    H258850   5.689   6.000  12.925  0.4402 -1.0447 -1.8822
12479TIP3   OH258851   6.024   6.103   0.255  0.5194  0.0407  0.0272
12479TIP3    H158852   6.106   6.095   0.304  1.3300  1.4790 -1.0000
12479TIP3    H258853   6.046   6.161   0.182 -0.4549 -2.4091 -2.3910
12480TIP3   OH258854   5.843   1.262   4.357  0.2453 -0.1191  0.6518
12480TIP3    H158855   5.908   1.291   4.293  0.4193 -1.5485  0.1610
12480TIP3    H258856   5.894   1.239   4.435  0.4637 -1.9859  0.0087
12481TIP3   OH258857   3.834   2.568  15.209 -0.4755 -0.3063  0.1066
12481TIP3    H158858   3.749   2.528  15.225 -0.7340 -0.3946 -1.3299
12481TIP3    H258859   3.818   2.632  15.140  0.9104 -1.5357 -1.4390
12482TIP3   OH258860   6.286   0.105   4.584 -0.3349  0.0466 -0.1103
12482TIP3    H158861   6.227   0.093   4.509 -0.4260 -2.2229  0.2303
12482TIP3    H258862   6.370   0.129   4.545 -0.4013 -1.0210 -0.9640
12483TIP3   OH258863   6.708   4.001   2.023  0.3997  0.6178 -0.2593
12483TIP3    H158864   6.755   4.004   1.939  2.2528 -2.7784  0.4702
12483TIP3    H258865   6.623   3.962   2.002  0.9508 -0.4575 -0.5753
12484TIP3   OH258866   6.247   2.268   0.247  0.6743  0.2011  0.0227
12484TIP3    H158867   6.161   2.267   0.206  1.1717 -0.1355 -1.0496
12484TIP3    H258868   6.245   2.344   0.305  0.2057  1.1620 -1.2161
12485TIP3   OH258869   5.207   3.681  14.725  0.0061 -0.2772  0.0026
12485TIP3    H158870   5.195   3.673  14.820 -1.4823 -1.7544 -0.2508
12485TIP3    H258871   5.147   3.751  14.700  0.0477 -0.2074  0.0960
12486TIP3   OH258872   3.225   1.098   6.126 -0.2083 -0.4195  0.2196
12486TIP3    H158873   3.286   1.031   6.095  0.4438 -0.3407  1.2508
12486TIP3    H258874   3.145   1.050   6.148 -0.1419 -0.6851 -0.1110
12487TIP3   OH258875   2.473   6.587  12.278 -0.0410 -0.0746 -0.3884
12487TIP3    H158876   2.566   6.564  12.281  1.1606  3.9885 -1.0180
12487TIP3    H258877   2.452   6.594  12.185 -0.4006  0.9601 -0.2410
12488TIP3   OH258878   6.562   4.562   5.028 -0.3681 -0.0514 -0.2338
12488TIP3    H158879   6.522   4.481   5.060 -0.6587  0.0090 -0.4410
12488TIP3    H258880   6.490   4.610   4.987 -0.0269 -0.1068 -0.9270
12489TIP3   OH258881   0.063   4.855  16.265 -0.0918 -0.0115 -0.3002
12489TIP3    H158882   0.024   4.821  16.185 -0.9019 -0.4470  0.2632
12489TIP3    H258883   0.139   4.906  16.236 -1.6339  1.7182 -1.5116
12490TIP3   OH258884   4.995   1.922  15.964 -0.1996  0.6674  0.8001
12490TIP3    H158885   4.972   1.886  15.878  2.4958 -0.0603  0.2810
12490TIP3    H258886   5.062   1.862  15.998 -0.3958  1.5706  2.9149
12491TIP3   OH258887   5.492   2.008   4.274 -0.3850  0.5328 -0.3183
12491TIP3    H158888   5.455   1.984   4.359  0.2642  0.6539  0.0129
12491TIP3    H258889   5.567   2.064   4.296 -0.1515  0.4879 -0.9666
12492TIP3   OH258890   2.073   5.594   0.802 -0.0396  0.0653 -0.0235
12492TIP3    H158891   2.014   5.562   0.733 -0.0893 -0.5606  0.3027
12492TIP3    H258892   2.123   5.517   0.828  0.5619  0.4809  0.0663
12493TIP3   OH258893   1.290   4.049   4.392  0.1660 -0.1032  0.0131
12493TIP3    H158894   1.313   3.958   4.412  0.0576 -0.2032 -0.3086
12493TIP3    H258895   1.239   4.077   4.468  1.7092  0.2768  0.9444
12494TIP3   OH258896   3.876   1.472   5.424 -0.0752  0.1101  0.3263
12494TIP3    H158897   3.896   1.564   5.436  0.1083  0.3587 -1.5953
12494TIP3    H258898   3.916   1.428   5.499 -1.3841  1.7007  2.0526
12495TIP3   OH258899   2.185   2.456  16.882 -0.2881  0.2602  0.0983
12495TIP3    H158900   2.092   2.447  16.861 -0.0412 -1.2333 -0.4501
12495TIP3    H258901   2.221   2.511  16.812 -0.8911  1.5970  0.7898
12496TIP3   OH258902   5.741   4.774  17.217 -0.3294 -0.4104  0.5403
12496TIP3    H158903   5.693   4.806  17.294 -2.8746 -0.4581 -0.9223
12496TIP3    H258904   5.705   4.687  17.201 -0.5447 -0.0152 -1.2363
12497TIP3   OH258905   3.808   4.089  13.484 -0.1539 -0.0363  0.0538
12497TIP3    H158906   3.821   4.010  13.536 -0.7682  0.3736  0.8630
12497TIP3    H258907   3.802   4.058  13.394  2.0695 -0.6566  0.0519
12498TIP3   OH258908   0.245   4.762  11.008 -0.0065  0.5542 -0.1925
12498TIP3    H158909   0.244   4.801  10.920  1.0156 -1.6416 -1.2593
12498TIP3    H258910   0.161   4.788  11.046 -0.3843  1.7557 -1.7177
12499TIP3   OH258911   2.912   5.051  11.819  0.7279 -0.4887 -0.0655
12499TIP3    H158912   2.905   4.961  11.853 -0.3899 -0.0226  1.0020
12499TIP3    H258913   2.831   5.094  11.847  0.9518  0.6819 -1.1294
12500TIP3   OH258914   1.507   1.552   3.712 -0.4864 -0.1555  0.3045
12500TIP3    H158915   1.580   1.612   3.728  0.7532 -1.3663 -0.5751
12500TIP3    H258916   1.460   1.550   3.795 -0.7449  2.2022  0.2916
12501TIP3   OH258917   5.721   2.229   1.725 -0.0448  0.0454 -0.6042
12501TIP3    H158918   5.651   2.294   1.721 -0.2300 -0.1424 -0.4977
12501TIP3    H258919   5.789   2.268   1.779  0.1444  0.4269 -1.1068
12502TIP3   OH258920   2.006   0.432   2.542 -0.2397 -0.1351 -0.7364
12502TIP3    H158921   1.945   0.365   2.572  0.1910 -0.4946 -0.6467
12502TIP3    H258922   2.072   0.383   2.492 -0.4649  0.3480 -1.5240
12503TIP3   OH258923   1.074   0.742   4.751  0.3056 -0.3241 -0.3608
12503TIP3    H158924   1.131   0.759   4.676  2.7229  1.3182  1.6682
12503TIP3    H258925   0.993   0.788   4.730  0.7337 -0.3127 -2.1499
12504TIP3   OH258926   3.187   5.459  16.911 -0.0200 -0.2198 -0.1422
12504TIP3    H158927   3.207   5.546  16.945  0.2212 -0.9489  1.6764
12504TIP3    H258928   3.167   5.407  16.988 -1.3905 -1.4929 -1.2869
12505TIP3   OH258929   6.292   1.844   5.227  0.1671 -0.1476  0.2089
12505TIP3    H158930   6.354   1.782   5.266  0.3001 -0.2852 -0.2160
12505TIP3    H258931   6.268   1.902   5.299 -0.0840 -0.7850  0.6532
12506TIP3   OH258932   1.765   4.709  12.551  0.1833 -0.1422  0.2908
12506TIP3    H158933   1.736   4.774  12.486  0.4271 -0.7660 -0.4583
12506TIP3    H258934   1.811   4.761  12.617 -0.0211  0.5047 -0.0625
12507TIP3   OH258935   1.162   4.486   1.812 -0.1930  0.5336  0.0563
12507TIP3    H158936   1.101   4.556   1.835 -0.7587  0.2785 -0.6316
12507TIP3    H258937   1.109   4.423   1.763  0.9080  0.9774 -1.8025
12508TIP3   OH258938   1.327   2.912   4.264  0.1348  0.3699  1.0177
12508TIP3    H158939   1.243   2.881   4.232  0.1756  0.8305  0.4496
12508TIP3    H258940   1.392   2.865   4.212  0.2172  0.4797  1.0207
12509TIP3   OH258941   3.063   1.467  13.876  0.2010  0.6002  0.2671
12509TIP3    H158942   2.993   1.532  13.868 -1.4634 -0.9290  1.4361
12509TIP3    H258943   3.063   1.421  13.793 -1.6220 -0.6768  0.9070
12510TIP3   OH258944   3.904   0.665   5.191  0.1910 -0.2258 -0.0500
12510TIP3    H158945   3.986   0.667   5.241 -0.3735 -0.8943  0.9451
12510TIP3    H258946   3.888   0.573   5.174 -0.8274 -0.1780  0.5875
12511TIP3   OH258947   1.592   2.006  10.622  0.2424  0.7809  0.2425
12511TIP3    H158948   1.498   2.006  10.641  0.4965 -0.9036  1.8396
12511TIP3    H258949   1.598   2.028  10.529 -1.7359  0.6603  0.0341
12512TIP3   OH258950   4.958   2.860  16.559 -0.7602 -0.1446  0.6729
12512TIP3    H158951   5.044   2.833  16.591 -1.0982 -1.5601  0.4328
12512TIP3    H258952   4.924   2.784  16.513 -2.2317  0.3252  0.9326
12513TIP3   OH258953   3.335   0.699   5.262 -0.2894 -0.1344 -0.0151
12513TIP3    H158954   3.306   0.688   5.172  0.4842 -2.4191 -0.0485
12513TIP3    H258955   3.431   0.702   5.257 -0.2399 -0.1379  0.7175
12514TIP3   OH258956   1.700   1.451   0.958  0.1894 -0.0659 -0.3607
12514TIP3    H158957   1.673   1.486   1.043 -1.6296  0.0390 -0.9496
12514TIP3    H258958   1.738   1.526   0.912 -2.2217  0.8535 -1.0064
12515TIP3   OH258959   6.192   0.648   0.718 -0.2705  0.7186  0.1752
12515TIP3    H158960   6.185   0.648   0.622 -2.3005  0.7936  0.2787
12515TIP3    H258961   6.156   0.733   0.744  1.2027  1.1239  0.9770
12516TIP3   OH258962   4.449   3.426  14.016  0.9104  0.1041 -0.3010
12516TIP3    H158963   4.530   3.428  13.966  0.9274  1.7753 -0.2750
12516TIP3    H258964   4.382   3.399  13.953  1.3130 -0.2550 -0.5789
12517TIP3   OH258965   4.134   2.533  11.253 -0.1632 -0.6093 -0.2037
12517TIP3    H158966   4.172   2.548  11.340 -0.6478 -0.2857 -0.0420
12517TIP3    H258967   4.073   2.460  11.266 -1.8678  0.8344  0.2358
12518TIP3   OH258968   0.192   0.898  14.276 -0.2655 -0.3495  0.3417
12518TIP3    H158969   0.279   0.859  14.266  0.7144  1.8299 -0.2071
12518TIP3    H258970   0.209   0.991  14.290 -2.5076  0.0066  1.0476
12519TIP3   OH258971   2.377   5.844  14.977 -0.0401  0.0446 -0.0443
12519TIP3    H158972   2.320   5.914  14.946  0.4335 -0.1287 -1.3821
12519TIP3    H258973   2.431   5.822  14.901  0.5636 -1.0249  0.6706
12520TIP3   OH258974   2.103   2.838  13.270 -0.5666  0.0790  0.1612
12520TIP3    H158975   2.013   2.863  13.292 -0.6984  1.5037 -1.7524
12520TIP3    H258976   2.157   2.910  13.304 -0.5308  0.9536 -1.5924
12521TIP3   OH258977   3.251   4.572   2.949 -0.3318 -0.2163 -0.2247
12521TIP3    H158978   3.198   4.643   2.912  0.4249  0.2021 -0.5379
12521TIP3    H258979   3.223   4.494   2.902  0.8512  0.3559 -1.9784
12522TIP3   OH258980   2.804   5.611  14.099 -0.4928 -0.8001  0.0976
12522TIP3    H158981   2.863   5.618  14.024 -0.5884  0.4155  0.1158
12522TIP3    H258982   2.722   5.652  14.070 -1.2801 -2.2596  0.1505
12523TIP3   OH258983   1.436   4.473   6.439  0.0926  0.8618  0.0459
12523TIP3    H158984   1.465   4.530   6.368 -2.5217  2.1907 -0.0603
12523TIP3    H258985   1.340   4.472   6.432 -0.2326  0.3894  3.0403
12524TIP3   OH258986   3.172   4.645   3.394 -1.4069 -0.3676  0.4345
12524TIP3    H158987   3.229   4.593   3.336  0.0088  2.2691 -0.6882
12524TIP3    H258988   3.090   4.654   3.346 -1.2248 -0.5392  0.0868
12525TIP3   OH258989   3.278   3.712  13.011 -0.1256 -0.0975 -0.1092
12525TIP3    H158990   3.238   3.646  12.954  0.7221  1.4115 -2.6211
12525TIP3    H258991   3.294   3.786  12.953 -0.7840  2.2630  2.5096
12526TIP3   OH258992   2.274   0.846   1.742  0.0059 -0.2615 -0.0840
12526TIP3    H158993   2.229   0.816   1.664 -0.1748 -0.9256  0.2653
12526TIP3    H258994   2.349   0.787   1.751  1.7109  1.5771 -1.3552
12527TIP3   OH258995   2.855   1.428   1.978 -0.1825 -0.0123  0.4099
12527TIP3    H158996   2.899   1.359   2.028 -0.6118  1.7049  3.3416
12527TIP3    H258997   2.794   1.381   1.922  1.5061 -2.1384  0.2020
12528TIP3   OH258998   1.241   2.532  11.213 -0.3226  0.4403  0.1904
12528TIP3    H158999   1.331   2.556  11.235  0.0810 -0.3181 -0.5535
12528TIP3    H259000   1.237   2.539  11.118 -0.6071 -0.9411  0.0753
12529TIP3   OH259001   4.647   2.414  13.282  0.0092 -0.0874  0.2633
12529TIP3    H159002   4.576   2.460  13.326  0.6722 -0.1487  1.4691
12529TIP3    H259003   4.702   2.383  13.354  1.0996 -0.2728 -0.6270
12530TIP3   OH259004   3.463   2.373   1.632 -0.1382  0.1287 -0.2770
12530TIP3    H159005   3.502   2.289   1.607 -0.2206 -0.0544  0.1960
12530TIP3    H259006   3.425   2.357   1.718 -0.1675  0.6520 -0.1883
12531TIP3   OH259007   1.109   2.967  11.878  0.2795 -0.2980 -0.2796
12531TIP3    H159008   1.193   2.922  11.890 -0.0769 -1.1519 -0.8501
12531TIP3    H259009   1.043   2.897  11.890 -0.3422  0.3258  0.0126
12532TIP3   OH259010   4.289   5.779  16.691  0.9770 -0.7462 -0.3347
12532TIP3    H159011   4.306   5.832  16.769  0.0235 -0.7372 -0.1256
12532TIP3    H259012   4.209   5.816  16.654  0.8255 -1.4383 -0.7171
12533TIP3   OH259013   5.227   3.697  15.004  0.2714 -0.0007 -0.4394
12533TIP3    H159014   5.203   3.764  15.068 -0.5525  0.4808 -1.2220
12533TIP3    H259015   5.321   3.685  15.016  0.3267  0.8749  0.1158
12534TIP3   OH259016   1.671   2.054   3.348  0.7843 -0.3834 -0.2545
12534TIP3    H159017   1.700   1.969   3.380  0.7827 -0.5031 -0.5670
12534TIP3    H259018   1.716   2.064   3.264 -0.0374 -0.5488 -0.7268
12535TIP3   OH259019   0.459   5.777   3.923 -0.1181  0.3907 -0.0773
12535TIP3    H159020   0.434   5.776   4.016  1.0044 -0.3221  0.2319
12535TIP3    H259021   0.391   5.830   3.881 -0.6481  0.7200  1.1441
12536TIP3   OH259022   4.956   4.006   1.430 -0.9850 -0.1334  0.1285
12536TIP3    H159023   4.951   4.021   1.524 -0.8499 -0.1500  0.1379
12536TIP3    H259024   4.972   3.912   1.421  2.1646  0.2972  0.1842
12537TIP3   OH259025   2.500   2.022  13.315  0.0272 -0.0314 -0.3956
12537TIP3    H159026   2.555   2.041  13.391  1.5276  1.4131 -1.7579
12537TIP3    H259027   2.422   2.077  13.328  0.7592  1.0401 -0.3915
12538TIP3   OH259028   4.662   3.162  14.686  0.1210  0.7333 -0.6554
12538TIP3    H159029   4.753   3.145  14.711 -0.0568  0.0802 -0.4240
12538TIP3    H259030   4.645   3.251  14.715  0.8201  1.0167 -1.0864
12539TIP3   OH259031   3.100   5.037   1.432  0.6921 -0.1925 -0.0926
12539TIP3    H159032   3.060   4.950   1.437 -0.5559  0.2578 -1.5813
12539TIP3    H259033   3.194   5.021   1.446  0.5687 -1.8650 -0.9544
12540TIP3   OH259034   1.747   3.301   4.052  0.2856 -0.3638  0.3341
12540TIP3    H159035   1.751   3.363   4.124  0.0142 -0.8364  0.7590
12540TIP3    H259036   1.666   3.253   4.066  0.7000 -1.1024  0.2458
12541TIP3   OH259037   0.823   6.332  14.442 -0.3205 -0.3673 -0.0840
12541TIP3    H159038   0.825   6.419  14.402 -0.9154 -0.4658 -0.3392
12541TIP3    H259039   0.843   6.272  14.370  2.2453 -0.3315  0.5129
12542TIP3   OH259040   5.477   6.124   3.186  0.0236 -0.6772 -0.2143
12542TIP3    H159041   5.572   6.122   3.173  0.2614  0.7197  0.9855
12542TIP3    H259042   5.451   6.214   3.163 -0.7532 -0.5969  0.8773
12543TIP3   OH259043   0.768   4.397   2.245 -0.0310 -0.0996 -0.3820
12543TIP3    H159044   0.793   4.305   2.231  1.5424  0.1592  0.4518
12543TIP3    H259045   0.713   4.395   2.323 -0.9319 -0.4408 -1.0069
12544TIP3   OH259046   1.615   2.707  11.559 -0.3280  0.8655  0.2861
12544TIP3    H159047   1.679   2.737  11.495 -0.9696  1.2485 -0.1799
12544TIP3    H259048   1.530   2.722  11.518 -0.7066 -0.6550  0.4475
12545TIP3   OH259049   3.388   2.626  15.881  0.4746  0.7648  0.2602
12545TIP3    H159050   3.468   2.638  15.830  0.3130  0.4582 -0.0684
12545TIP3    H259051   3.335   2.704  15.861 -0.4022 -0.2269 -1.5610
12546TIP3   OH259052   5.704   4.664  15.612 -0.6491  0.1313 -0.7739
12546TIP3    H159053   5.702   4.673  15.707 -0.0685 -0.9140 -0.6580
12546TIP3    H259054   5.619   4.627  15.589 -0.4233 -0.5321 -0.5563
12547TIP3   OH259055   6.588   0.807   4.559  1.0329 -0.1287  0.0093
12547TIP3    H159056   6.651   0.879   4.553  1.1833 -0.0942  1.6334
12547TIP3    H259057   6.610   0.763   4.641 -2.1114  0.8886  1.5274
12548TIP3   OH259058   4.423   0.910   3.222  0.2820 -0.2300  0.0603
12548TIP3    H159059   4.404   0.819   3.247  0.1772 -0.2250 -0.0033
12548TIP3    H259060   4.341   0.957   3.236 -0.3307 -0.5830 -1.9942
12549TIP3   OH259061   2.975   6.316  15.755 -0.1215  0.2618  0.3738
12549TIP3    H159062   2.976   6.265  15.674 -0.3308  1.0170 -0.1133
12549TIP3    H259063   2.919   6.266  15.815  0.3004 -0.4679  0.1718
12550TIP3   OH259064   0.457   6.127   2.010  0.1780 -0.7056 -0.2746
12550TIP3    H159065   0.384   6.074   2.042  0.3723 -0.3762  0.7212
12550TIP3    H259066   0.417   6.209   1.982  0.3542  0.2798  2.1256
12551TIP3   OH259067   6.365   4.157   5.892  0.3744  0.0834  0.3059
12551TIP3    H159068   6.310   4.232   5.871 -2.8496 -1.1982  2.9792
12551TIP3    H259069   6.321   4.083   5.849  2.2396 -0.5767 -0.5389
12552TIP3   OH259070   3.217   4.119  15.208 -0.4377 -0.4413  0.2345
12552TIP3    H159071   3.275   4.148  15.278  0.1841  2.0140 -1.1764
12552TIP3    H259072   3.141   4.082  15.253 -0.0187  0.9529  2.1920
12553TIP3   OH259073   5.259   6.575   1.543  0.0543  0.3397  0.1279
12553TIP3    H159074   5.301   6.570   1.457  0.1082  0.3527  0.1535
12553TIP3    H259075   5.194   6.645   1.533 -0.7275 -0.4090 -0.2399
12554TIP3   OH259076   5.646   2.811   2.876  0.3084  0.2964  0.4390
12554TIP3    H159077   5.616   2.866   2.948  0.3013  1.5774 -0.5064
12554TIP3    H259078   5.695   2.870   2.819  2.9860 -1.3298  0.9147
12555TIP3   OH259079   0.783   1.974  11.330  0.0355 -0.0798 -0.1170
12555TIP3    H159080   0.812   1.951  11.242 -1.9910  0.3783 -0.9531
12555TIP3    H259081   0.836   2.050  11.354  0.7274 -0.3168 -0.8640
12556TIP3   OH259082   4.284   3.681  17.110  0.0831  0.7526  0.5540
12556TIP3    H159083   4.280   3.768  17.149  0.0723  1.0698 -0.1437
12556TIP3    H259084   4.338   3.630  17.171  1.1951  1.6027  0.3119
12557TIP3   OH259085   0.833   1.736   2.325 -0.1275 -1.0266  0.3501
12557TIP3    H159086   0.830   1.665   2.261  0.9459 -1.6128  0.9312
12557TIP3    H259087   0.925   1.763   2.326 -0.3877 -0.1197  0.6756
12558TIP3   OH259088   4.606   0.160   0.541 -0.3423 -1.1007 -0.6329
12558TIP3    H159089   4.545   0.220   0.499  0.6596  0.9724  0.7236
12558TIP3    H259090   4.679   0.215   0.569  1.5122 -3.2453 -0.8954
12559TIP3   OH259091   2.374   0.187   4.402  0.0447 -0.1101 -0.3210
12559TIP3    H159092   2.402   0.095   4.403 -0.5923 -0.3262 -1.1328
12559TIP3    H259093   2.375   0.211   4.310 -1.0179  0.3044 -0.2438
12560TIP3   OH259094   2.716   1.989   4.649 -0.2552 -0.3511  0.4013
12560TIP3    H159095   2.633   2.018   4.686  1.0234  1.7689  1.7981
12560TIP3    H259096   2.691   1.934   4.575 -2.8963  1.3380 -0.0993
12561TIP3   OH259097   4.815   0.563   4.128 -0.4012 -0.1301  0.3058
12561TIP3    H159098   4.886   0.509   4.162 -1.3776 -1.3005  0.5512
12561TIP3    H259099   4.735   0.514   4.149 -1.4219  1.9371  1.5455
12562TIP3   OH259100   0.900   5.372  14.931 -0.0891 -0.2865  0.3201
12562TIP3    H159101   0.856   5.389  14.848  0.5572  0.2989  0.0821
12562TIP3    H259102   0.839   5.404  14.997 -0.1401  0.2789  0.0091
12563TIP3   OH259103   2.254   4.627   3.498  0.1416 -0.3534  0.7734
12563TIP3    H159104   2.340   4.597   3.528  0.9260  2.2047  1.4089
12563TIP3    H259105   2.229   4.565   3.430  1.6216 -2.2310  1.8430
12564TIP3   OH259106   3.777   1.378   5.173 -0.0554  0.0689  0.5919
12564TIP3    H159107   3.768   1.372   5.269 -3.5760 -0.9332  0.3084
12564TIP3    H259108   3.747   1.466   5.152 -0.7102 -0.2181  0.3104
12565TIP3   OH259109   5.060   0.153  15.245 -0.4163  0.4410 -0.2826
12565TIP3    H159110   5.152   0.129  15.231 -0.3100  0.0921  0.9099
12565TIP3    H259111   5.013   0.110  15.174  0.1306 -0.9228  0.1440
12566TIP3   OH259112   1.271   5.898  11.492  0.1156 -0.6577 -0.1713
12566TIP3    H159113   1.284   5.990  11.513 -1.8415 -0.5607  0.7560
12566TIP3    H259114   1.278   5.894  11.396  1.1922  0.2593 -0.1481
12567TIP3   OH259115   3.802   5.228  13.100 -0.0620 -0.2845  0.3309
12567TIP3    H159116   3.784   5.139  13.131  1.6006 -0.0296  2.2178
12567TIP3    H259117   3.745   5.284  13.154 -0.6125 -0.1446 -0.3866
12568TIP3   OH259118   2.758   0.789  13.742 -0.0246 -0.0850 -0.1932
12568TIP3    H159119   2.701   0.776  13.666  0.9362  1.2410 -1.1810
12568TIP3    H259120   2.715   0.858  13.793  0.1433  0.1308 -0.3474
12569TIP3   OH259121   5.422   5.676  13.530 -0.0582  0.4922  0.0000
12569TIP3    H159122   5.343   5.730  13.534 -2.2008 -2.3010 -1.1663
12569TIP3    H259123   5.421   5.624  13.610  1.3838  1.3186  0.6018
12570TIP3   OH259124   0.230   5.048  12.864  0.4806  0.0538 -0.2569
12570TIP3    H159125   0.253   4.956  12.878 -3.0009 -0.6752  1.9402
12570TIP3    H259126   0.151   5.045  12.809  0.8079  1.8225 -0.8911
12571TIP3   OH259127   0.221   6.759  13.616  0.5544 -0.3121  0.2293
12571TIP3    H159128   0.266   6.748  13.701  0.7643 -0.0724  0.1527
12571TIP3    H259129   0.160   6.685  13.611 -0.8260  0.6995  1.4391
12572TIP3   OH259130   4.509   1.032  14.264  0.1231 -0.7514  0.2461
12572TIP3    H159131   4.489   1.037  14.357  0.9741  1.8035  0.3665
12572TIP3    H259132   4.600   1.003  14.261  0.3242 -0.1315  0.2558
12573TIP3   OH259133   6.306   0.927   2.107 -0.3126  0.3836  0.1438
12573TIP3    H159134   6.295   0.921   2.012  1.7982 -2.5256 -0.0686
12573TIP3    H259135   6.381   0.985   2.119 -0.0371  0.0736 -0.0547
12574TIP3   OH259136   5.103   4.918   1.650 -0.0027 -0.1665  0.6690
12574TIP3    H159137   5.062   4.962   1.576 -0.9216 -1.3659  0.4408
12574TIP3    H259138   5.189   4.890   1.617 -0.6227 -1.1729 -0.1407
12575TIP3   OH259139   1.514   0.255  10.580 -0.1362  0.9545 -0.1772
12575TIP3    H159140   1.420   0.264  10.565  0.0242  1.6703 -0.8261
12575TIP3    H259141   1.521   0.220  10.669 -1.0264  0.1371 -0.4227
12576TIP3   OH259142   3.089   6.454  15.502 -0.2517  0.6960 -0.9116
12576TIP3    H159143   3.061   6.545  15.514 -1.1032  0.3936 -0.5627
12576TIP3    H259144   3.141   6.435  15.580 -0.9566  0.5543 -0.4737
12577TIP3   OH259145   4.916   4.088  16.842 -0.2893  0.2086  0.3321
12577TIP3    H159146   4.850   4.026  16.875  1.3087 -1.4975  0.4850
12577TIP3    H259147   4.877   4.124  16.762 -2.2945  0.9300  1.5378
12578TIP3   OH259148   4.829   0.485   1.730  0.3653  0.1865  0.2032
12578TIP3    H159149   4.836   0.567   1.682  1.1694 -0.1408 -0.2619
12578TIP3    H259150   4.757   0.438   1.688  0.6849  0.1487 -0.3099
12579TIP3   OH259151   1.527   4.288  14.785  0.1237 -0.4466 -0.3520
12579TIP3    H159152   1.565   4.371  14.757  1.3280  0.2041  2.8153
12579TIP3    H259153   1.442   4.312  14.823  1.4983 -0.1426  2.8218
12580TIP3   OH259154   1.456   1.313   0.889 -0.3864  0.6883 -0.7557
12580TIP3    H159155   1.403   1.297   0.967  1.7739 -3.9471  0.0808
12580TIP3    H259156   1.534   1.356   0.923 -0.1935  0.2382 -0.6196
12581TIP3   OH259157   2.039   3.848  13.352  0.1213 -0.6431  0.5517
12581TIP3    H159158   2.048   3.766  13.400  0.3149 -0.0324  1.5917
12581TIP3    H259159   2.003   3.909  13.416 -1.6997 -0.3522 -0.6864
12582TIP3   OH259160   0.243   6.725   1.701  0.0311  0.2650  0.2346
12582TIP3    H159161   0.312   6.760   1.757  1.2341 -0.5615 -0.6743
12582TIP3    H259162   0.218   6.642   1.741 -0.0013  0.2687  0.2224
12583TIP3   OH259163   5.186   5.658  14.129 -0.2682 -0.2760 -0.0932
12583TIP3    H159164   5.282   5.659  14.135 -0.1207  1.2760 -1.7260
12583TIP3    H259165   5.167   5.603  14.053 -0.7062 -0.9602  0.5065
12584TIP3   OH259166   1.638   3.937  15.251  0.3825 -0.4018 -0.5498
12584TIP3    H159167   1.682   3.934  15.336 -0.7342 -1.5167  0.0152
12584TIP3    H259168   1.705   3.971  15.191  1.5586 -0.7059  0.5459
12585TIP3   OH259169   3.358   2.294  13.442  0.4295 -0.3490  0.7879
12585TIP3    H159170   3.401   2.282  13.357 -1.0427 -0.0437 -0.0309
12585TIP3    H259171   3.327   2.206  13.465 -2.0774  0.0774 -0.6442
12586TIP3   OH259172   5.248   3.806   1.864  0.5457 -0.0374 -0.4990
12586TIP3    H159173   5.290   3.853   1.792  1.3321 -1.1748 -0.8171
12586TIP3    H259174   5.237   3.716   1.831 -2.5759  0.2599 -0.6152
12587TIP3   OH259175   1.488   2.610   1.443  0.1438  0.1254  0.0854
12587TIP3    H159176   1.407   2.559   1.442 -0.0451  0.4293 -0.8442
12587TIP3    H259177   1.473   2.682   1.382  0.7868  0.7124  0.5974
12588TIP3   OH259178   5.719   3.695  11.651  0.2742  0.0857 -0.3453
12588TIP3    H159179   5.681   3.625  11.596 -2.1077  1.1521 -0.1737
12588TIP3    H259180   5.739   3.765  11.589 -2.8944  1.4974 -0.0055
12589TIP3   OH259181   0.256   4.091   5.180  0.6221 -0.3600  0.2303
12589TIP3    H159182   0.233   4.081   5.272 -1.7800 -3.2286 -0.5272
12589TIP3    H259183   0.211   4.171   5.153  0.3146 -0.1670  1.2715
12590TIP3   OH259184   4.244   4.427  14.327  0.1003 -0.1947  0.3423
12590TIP3    H159185   4.313   4.363  14.342  2.0001  1.7543  0.4329
12590TIP3    H259186   4.273   4.505  14.375 -1.4477  1.1643 -0.8146
12591TIP3   OH259187   3.545   2.059  15.990  0.0926 -0.0912 -0.0209
12591TIP3    H159188   3.553   1.963  15.986 -1.5418 -0.3567  1.5709
12591TIP3    H259189   3.506   2.076  16.075  0.5299  2.0425 -0.1935
12592TIP3   OH259190   0.384   5.468   5.515  0.3519 -0.1042 -0.1592
12592TIP3    H159191   0.449   5.531   5.545  0.4911 -0.4297  0.2291
12592TIP3    H259192   0.300   5.507   5.539  0.4932 -0.8614  1.6737
12593TIP3   OH259193   3.098   5.069  16.295  0.1744  0.5253  0.3385
12593TIP3    H159194   3.021   5.107  16.338  0.2701  0.6987  0.3581
12593TIP3    H259195   3.068   4.984  16.264 -0.0765  0.6631  0.1994
12594TIP3   OH259196   1.478   0.902  13.757  0.0514 -0.1229  0.0815
12594TIP3    H159197   1.488   0.812  13.726 -2.6526 -0.8356  1.0328
12594TIP3    H259198   1.503   0.956  13.682  2.5001 -1.5964 -0.2648
12595TIP3   OH259199   1.094   1.028   0.321 -0.1847  0.5139 -0.5559
12595TIP3    H159200   1.178   1.067   0.344 -0.6261  0.4541  1.3615
12595TIP3    H259201   1.034   1.059   0.389 -1.2834 -0.9162 -0.8244
12596TIP3   OH259202   6.373   2.768  12.513  0.0452  0.5328  0.0561
12596TIP3    H159203   6.468   2.752  12.520  0.1064  0.6371 -0.5013
12596TIP3    H259204   6.350   2.735  12.426 -0.7355 -1.0091  0.8008
12597TIP3   OH259205   4.480   4.883  16.555 -0.5339 -0.2609 -0.1261
12597TIP3    H159206   4.572   4.891  16.580 -0.7319 -0.5490  0.7046
12597TIP3    H259207   4.475   4.924  16.468  0.4231 -0.4613 -0.2849
12598TIP3   OH259208   4.195   0.652  16.434 -0.6511  0.4575  0.3037
12598TIP3    H159209   4.252   0.619  16.364 -1.2471 -0.7477  0.3624
12598TIP3    H259210   4.255   0.679  16.503 -0.1357 -0.5775  0.2733
12599TIP3   OH259211   4.515   4.680   1.278 -0.1401 -0.4311 -0.0161
12599TIP3    H159212   4.537   4.669   1.371 -0.5232  0.4706  0.1885
12599TIP3    H259213   4.513   4.590   1.243  1.0721 -0.7213  0.5907
12600TIP3   OH259214   5.564   5.335   1.610  0.4865  0.7376  0.0351
12600TIP3    H159215   5.504   5.326   1.536  1.0943  0.8859 -0.4803
12600TIP3    H259216   5.650   5.312   1.575  0.5628 -0.6595  1.0669
12601TIP3   OH259217   0.614   5.615   5.619  0.2026  0.0133  0.3338
12601TIP3    H159218   0.598   5.682   5.685  0.3974  0.5285 -0.1375
12601TIP3    H259219   0.678   5.653   5.560 -2.0655  0.7615 -1.8370
12602TIP3   OH259220   6.078   6.060   4.963  0.5410  0.1646  0.0848
12602TIP3    H159221   6.139   5.991   4.987 -0.3515 -0.9078 -0.6409
12602TIP3    H259222   6.134   6.134   4.938  1.5119 -0.3517  0.6718
12603TIP3   OH259223   5.099   3.156  11.432  0.3040 -0.1107  0.4636
12603TIP3    H159224   5.028   3.158  11.496 -1.0801 -0.7444 -0.9709
12603TIP3    H259225   5.155   3.230  11.457  0.0368 -0.5588  2.5895
12604TIP3   OH259226   3.899   4.048  15.926 -0.2202 -0.5592 -0.3423
12604TIP3    H159227   3.910   3.966  15.975 -1.5227 -0.7615 -0.3526
12604TIP3    H259228   3.845   4.024  15.851 -0.3433  0.2434 -0.5143
12605TIP3   OH259229   0.033   1.642   1.059 -0.1118  0.2522 -0.2853
12605TIP3    H159230  -0.001   1.563   1.018  1.5104 -0.1907 -0.8534
12605TIP3    H259231  -0.013   1.714   1.015  0.1695 -0.2942 -1.5120
12606TIP3   OH259232   1.594   0.531   0.581 -0.1599  0.0559 -0.0632
12606TIP3    H159233   1.638   0.453   0.548  0.9619  0.4220  0.5169
12606TIP3    H259234   1.509   0.499   0.612 -0.1786 -0.7219 -0.8862
12607TIP3   OH259235   1.226   0.821   3.969 -0.0423 -0.4530  0.5444
12607TIP3    H159236   1.252   0.729   3.964  2.5205  0.1203  1.5499
12607TIP3    H259237   1.181   0.829   4.053 -0.6226 -0.8310  0.2789
12608TIP3   OH259238   6.599   4.442  11.021  0.0965 -0.2321 -0.3316
12608TIP3    H159239   6.662   4.396  10.964 -2.3675 -2.1640 -1.6949
12608TIP3    H259240   6.566   4.514  10.967  0.5485  0.3134  0.1076
12609TIP3   OH259241   4.096   4.799  17.128 -0.1028 -0.2789 -0.2090
12609TIP3    H159242   4.178   4.847  17.139 -0.8383  0.6419  1.8502
12609TIP3    H259243   4.065   4.821  17.041  1.2224  0.3406 -0.5348
12610TIP3   OH259244   2.303   0.458  11.732 -0.3563  0.8715 -0.2761
12610TIP3    H159245   2.222   0.444  11.780  1.1741 -0.4430  2.1110
12610TIP3    H259246   2.284   0.532  11.675 -2.4798  2.3103  2.0641
12611TIP3   OH259247   2.715   0.241   1.778 -0.3994  0.1408  0.4029
12611TIP3    H159248   2.794   0.289   1.754 -1.2274  2.1227  1.3826
12611TIP3    H259249   2.743   0.184   1.850  0.7223 -1.3650 -1.1391
12612TIP3   OH259250   4.176   3.828  14.313  0.3724 -0.2863  0.4160
12612TIP3    H159251   4.178   3.923  14.327 -1.5580 -0.1630  0.1419
12612TIP3    H259252   4.261   3.808  14.274  0.5170  1.4507 -0.2714
12613TIP3   OH259253   3.560   5.422   4.446  0.7437 -0.3350  0.4698
12613TIP3    H159254   3.478   5.450   4.404  0.2192  0.2881  1.8362
12613TIP3    H259255   3.626   5.482   4.411  0.6763 -0.9721 -0.8020
12614TIP3   OH259256   4.259   3.940  17.175  0.3139 -0.1307  0.2253
12614TIP3    H159257   4.330   3.952  17.112  0.1447 -0.2894  0.0023
12614TIP3    H259258   4.251   4.024  17.219  0.1383  0.1110 -0.2750
12615TIP3   OH259259   5.473   0.374  14.078  0.9356  0.3413 -0.2954
12615TIP3    H159260   5.565   0.365  14.055  0.9282 -0.3451 -0.0673
12615TIP3    H259261   5.425   0.355  13.997  0.8725 -3.0169  0.4176
12616TIP3   OH259262   1.282   4.180   1.667 -0.1089 -0.7042 -0.4513
12616TIP3    H159263   1.194   4.217   1.663 -0.2311 -0.9246  0.1029
12616TIP3    H259264   1.286   4.118   1.595 -0.0122  0.1552 -1.1927
12617TIP3   OH259265   6.258   3.483  14.908 -0.1167  0.6022 -0.5332
12617TIP3    H159266   6.301   3.441  14.982 -1.0852 -0.4397 -0.5433
12617TIP3    H259267   6.311   3.562  14.891  1.2461 -0.1583  0.0097
12618TIP3   OH259268   1.442   0.355  15.988 -0.2105 -0.3152  0.5991
12618TIP3    H159269   1.398   0.287  15.936 -3.6789  1.9184  0.3253
12618TIP3    H259270   1.425   0.331  16.079  1.8706 -1.7179  0.6958
12619TIP3   OH259271   4.699   1.472   0.229 -0.3582 -0.0304  0.2235
12619TIP3    H159272   4.678   1.418   0.154 -1.0440  0.1141  0.3014
12619TIP3    H259273   4.651   1.432   0.302  0.0134  0.0373  0.5113
12620TIP3   OH259274   4.377   2.025   4.299  0.2825 -0.1044  0.4776
12620TIP3    H159275   4.292   2.037   4.342  0.2507 -3.2444  1.5843
12620TIP3    H259276   4.441   2.035   4.370  0.8132  1.3763 -0.1785
12621TIP3   OH259277   1.944   6.205  14.229  0.0315  0.3978  0.2117
12621TIP3    H159278   1.951   6.256  14.148  2.1672  0.7918  0.5680
12621TIP3    H259279   1.884   6.254  14.284  0.8141  1.6953 -0.0594
12622TIP3   OH259280   2.672   4.688  16.237 -0.3669 -0.2707  0.0749
12622TIP3    H159281   2.758   4.720  16.262 -0.8078  0.4588  0.6762
12622TIP3    H259282   2.662   4.715  16.146 -0.2310  0.2239  0.2046
12623TIP3   OH259283   1.637   0.948   6.692  0.3735  0.5395 -0.0896
12623TIP3    H159284   1.600   0.867   6.658  1.1219 -0.4620  1.3834
12623TIP3    H259285   1.730   0.931   6.700  0.4925  1.4206  0.5913
12624TIP3   OH259286   1.308   2.179   0.124  0.3671 -0.1731  0.2080
12624TIP3    H159287   1.322   2.244   0.192  1.6074 -0.1872 -0.0170
12624TIP3    H259288   1.335   2.096   0.163 -0.2316 -0.4037  0.1503
12625TIP3   OH259289   4.838   4.450  11.706  0.9221 -0.4194 -0.2873
12625TIP3    H159290   4.870   4.445  11.616  1.3276  1.9355 -0.3194
12625TIP3    H259291   4.896   4.390  11.755  2.1218 -0.0524 -1.2169
12626TIP3   OH259292   6.062   0.776   2.957  0.3041  0.0762  0.1904
12626TIP3    H159293   5.992   0.828   2.997 -1.4237  0.0709 -2.5832
12626TIP3    H259294   6.030   0.686   2.959  2.0039 -0.5856  2.2882
12627TIP3   OH259295   1.450   2.180   5.539  0.7579 -0.1999 -0.2609
12627TIP3    H159296   1.386   2.238   5.499  0.3406  0.1456  0.8809
12627TIP3    H259297   1.408   2.148   5.619  1.1148 -1.7920 -0.6575
12628TIP3   OH259298   0.808   3.211  16.682 -0.1233 -0.1969 -0.0980
12628TIP3    H159299   0.798   3.269  16.757 -1.9529 -1.0760  0.4018
12628TIP3    H259300   0.875   3.253  16.627  2.5129 -0.3582  2.7675
12629TIP3   OH259301   0.966   3.078   6.083 -0.5730  0.1303 -0.1366
12629TIP3    H159302   0.941   2.998   6.130 -0.4638  0.3114  0.2351
12629TIP3    H259303   0.931   3.066   5.995 -1.2416  0.0078  0.1351
12630TIP3   OH259304   4.728   3.236  11.126 -0.2867 -0.0797  0.1583
12630TIP3    H159305   4.752   3.241  11.033  1.2581 -0.8673  0.4779
12630TIP3    H259306   4.636   3.210  11.125 -0.6971  1.2548 -1.1402
12631TIP3   OH259307   2.945   1.133  16.543  0.2564  0.1289 -0.2969
12631TIP3    H159308   2.919   1.046  16.514 -0.0689 -0.0164  0.4041
12631TIP3    H259309   2.924   1.135  16.637  1.5064  0.4830  0.0041
12632TIP3   OH259310   0.369   4.615   1.931  0.1151 -0.1660 -0.4339
12632TIP3    H159311   0.319   4.577   2.003  0.1087 -1.9093 -1.3157
12632TIP3    H259312   0.448   4.561   1.925  2.1915  2.4847  0.9006
12633TIP3   OH259313   1.953   5.841  11.111 -0.2042 -0.0373  0.3870
12633TIP3    H159314   1.968   5.927  11.072 -0.1293  0.2323  1.0059
12633TIP3    H259315   1.904   5.793  11.044 -0.8623  0.7249  0.3095
12634TIP3   OH259316   3.396   3.669  11.656 -0.3724  0.0138  0.0259
12634TIP3    H159317   3.431   3.581  11.673  0.4670  0.3258 -0.0468
12634TIP3    H259318   3.415   3.718  11.736 -0.3484  0.2813 -0.1431
12635TIP3   OH259319   0.395   4.212  11.510  0.6614 -0.3572 -0.1240
12635TIP3    H159320   0.386   4.228  11.416 -1.8394  2.6906  0.4634
12635TIP3    H259321   0.450   4.284  11.541 -1.4402  0.8161  1.1352
12636TIP3   OH259322   6.435   2.645   2.604  0.0929 -0.5203  0.5971
12636TIP3    H159323   6.453   2.666   2.512 -0.5905  2.4486  1.0412
12636TIP3    H259324   6.428   2.550   2.605  0.4075 -0.6954 -2.3690
12637TIP3   OH259325   1.601   0.325  12.082 -0.0038 -0.1345 -0.1384
12637TIP3    H159326   1.606   0.256  12.016  0.2078 -0.2185 -0.0353
12637TIP3    H259327   1.573   0.403  12.033  2.0824  0.3171 -0.7237
12638TIP3   OH259328   0.277   5.983   1.802  0.0730 -0.4295  0.0574
12638TIP3    H159329   0.325   6.040   1.742  1.1098  0.0986  1.3470
12638TIP3    H259330   0.189   6.021   1.806  0.1535 -0.1477 -0.6887
12639TIP3   OH259331   4.081   6.496  15.818 -0.1634  0.5146  0.3995
12639TIP3    H159332   4.096   6.483  15.911  0.2327  0.0458  0.2789
12639TIP3    H259333   4.163   6.534  15.786 -0.7077  1.7565  0.4424
12640TIP3   OH259334   2.197   6.121  13.524  0.3887  0.0511  0.9163
12640TIP3    H159335   2.115   6.170  13.535 -0.1934 -1.1747  2.3088
12640TIP3    H259336   2.258   6.162  13.586  0.0996 -0.5529  1.6065
12641TIP3   OH259337   2.805   1.672  14.578  0.0869  0.4189 -0.2683
12641TIP3    H159338   2.900   1.668  14.590  0.3690 -3.4658 -2.2140
12641TIP3    H259339   2.769   1.631  14.657  0.0438  1.3701  0.2119
12642TIP3   OH259340   0.707   1.654   3.597  0.1094  0.0147  0.7424
12642TIP3    H159341   0.632   1.688   3.646 -0.8060  0.8238 -1.1377
12642TIP3    H259342   0.688   1.561   3.587 -0.5621  0.1697  0.4725
12643TIP3   OH259343   5.497   4.110   5.215 -0.3989 -0.1685  0.2996
12643TIP3    H159344   5.569   4.168   5.243 -0.4322  0.5821 -1.0911
12643TIP3    H259345   5.430   4.170   5.182  0.0178 -1.0118 -2.2551
12644TIP3   OH259346   0.803   4.981   2.384 -0.0729  0.5599 -0.3568
12644TIP3    H159347   0.851   5.018   2.458 -2.6341 -0.1160  1.7910
12644TIP3    H259348   0.717   5.023   2.387 -0.6222 -0.3319 -2.2587
12645TIP3   OH259349   1.351   6.180  15.267  0.1185 -0.2385 -0.3843
12645TIP3    H159350   1.351   6.129  15.186 -0.5993 -0.8675  0.0007
12645TIP3    H259351   1.414   6.136  15.324 -1.1235 -1.2315  0.2603
12646TIP3   OH259352   2.926   1.437   4.439 -0.0823 -0.0650 -0.0112
12646TIP3    H159353   2.921   1.513   4.497 -0.5490 -0.4593  0.4735
12646TIP3    H259354   3.002   1.454   4.383  0.8635 -0.0603  1.2542
12647TIP3   OH259355   6.539   1.443   5.404 -0.3714 -0.4996 -0.2601
12647TIP3    H159356   6.477   1.476   5.338 -0.0116  1.2155  0.2055
12647TIP3    H259357   6.558   1.353   5.376 -2.1621 -0.6697 -1.0602
12648TIP3   OH259358   4.354   1.004   4.478  0.1926 -0.0895 -0.2247
12648TIP3    H159359   4.419   0.977   4.413  0.2954 -2.0254  0.6227
12648TIP3    H259360   4.272   1.009   4.429  0.6393  0.6073 -0.9293
12649TIP3   OH259361   3.703   4.413   2.130  0.2735  0.1771 -0.5647
12649TIP3    H159362   3.654   4.332   2.140  2.2465 -1.2903 -1.9914
12649TIP3    H259363   3.717   4.422   2.035  2.4453  0.6510 -0.2628
12650TIP3   OH259364   3.550   0.954  14.913  0.1709  0.4837  0.0735
12650TIP3    H159365   3.632   0.922  14.876 -0.9787  0.7819 -3.0405
12650TIP3    H259366   3.530   1.033  14.861 -2.2566  0.1796  0.4502
12651TIP3   OH259367   0.205   3.690   0.590 -0.3692  0.4633 -0.0694
12651TIP3    H159368   0.198   3.666   0.498 -0.3156  0.6097 -0.1119
12651TIP3    H259369   0.294   3.666   0.615 -0.2652  0.7616 -0.1535
12652TIP3   OH259370   2.579   0.882   2.411 -0.1966 -0.3377  0.5375
12652TIP3    H159371   2.646   0.813   2.405 -0.7887 -0.9738  1.0663
12652TIP3    H259372   2.509   0.843   2.463 -1.5422 -0.1439 -1.0379
12653TIP3   OH259373   5.623   1.010   1.755  0.7140  0.6569 -0.1312
12653TIP3    H159374   5.672   1.091   1.768  3.7751 -0.9768 -0.5252
12653TIP3    H259375   5.672   0.963   1.688 -0.8692 -1.6109  0.1899
12654TIP3   OH259376   1.845   1.269   4.824 -0.1936 -0.2147  0.0136
12654TIP3    H159377   1.838   1.290   4.917  0.0497  0.3061 -0.0827
12654TIP3    H259378   1.814   1.348   4.779 -5.1447 -2.0544 -0.3897
12655TIP3   OH259379   6.627   6.058  15.489  0.6487  0.6034  0.1393
12655TIP3    H159380   6.556   6.121  15.501  0.1733  0.6063 -2.2671
12655TIP3    H259381   6.619   6.029  15.398  2.4780 -0.9565  0.4115
12656TIP3   OH259382   2.367   3.555   0.901 -0.3905 -0.4862 -0.1599
12656TIP3    H159383   2.439   3.538   0.841  0.0328  0.4609  0.0544
12656TIP3    H259384   2.348   3.470   0.940  0.1568 -0.8761 -0.7200
12657TIP3   OH259385   2.137   3.144  11.527 -0.2575 -0.7083  0.4826
12657TIP3    H159386   2.199   3.092  11.476 -1.7365 -0.6326 -1.5558
12657TIP3    H259387   2.082   3.080  11.572 -1.0059 -0.9388 -0.6914
12658TIP3   OH259388   1.066   3.863   5.107  0.3755 -0.5717  0.2866
12658TIP3    H159389   1.107   3.861   5.194 -2.1033 -1.3313  1.5436
12658TIP3    H259390   0.989   3.918   5.119  0.9957  0.9017 -2.0044
12659TIP3   OH259391   2.236   6.433  16.754 -0.2434 -0.2177 -0.4046
12659TIP3    H159392   2.271   6.380  16.825 -0.0459 -1.7630 -1.5882
12659TIP3    H259393   2.249   6.380  16.675 -1.8433  0.7500 -1.4008
12660TIP3   OH259394   6.157   4.264  15.758 -0.2395  0.1748  0.6054
12660TIP3    H159395   6.247   4.242  15.780  0.5280  0.9738 -1.4776
12660TIP3    H259396   6.163   4.305  15.672 -2.5695  0.5318  0.5540
12661TIP3   OH259397   5.276   1.090   0.455  0.2783  0.1687  0.0956
12661TIP3    H159398   5.266   1.100   0.360 -0.2135 -1.9080 -0.1066
12661TIP3    H259399   5.327   1.010   0.466  0.7376  0.6292  1.5931
12662TIP3   OH259400   5.473   1.383   4.146 -0.1393  0.2179  0.3838
12662TIP3    H159401   5.405   1.407   4.084  0.7556  0.6573 -0.4530
12662TIP3    H259402   5.465   1.448   4.216 -0.5416  0.3005  0.2620
12663TIP3   OH259403   1.658   4.972   2.499 -0.2146 -0.4335  0.1431
12663TIP3    H159404   1.741   5.020   2.502  0.1059 -1.0179  1.9476
12663TIP3    H259405   1.603   5.014   2.565 -0.7919 -1.0302  0.0569
12664TIP3   OH259406   1.146   0.342  13.172  0.0666 -0.3904  0.0905
12664TIP3    H159407   1.228   0.389  13.156 -0.6719  0.1937 -2.5139
12664TIP3    H259408   1.152   0.264  13.116 -1.4925  0.1614 -0.9314
12665TIP3   OH259409   6.359   6.644   4.744  0.4194  0.4548 -0.6142
12665TIP3    H159410   6.337   6.724   4.697 -1.4344 -0.1616 -0.8943
12665TIP3    H259411   6.403   6.589   4.678  2.5586  1.5348 -0.1740
12666TIP3   OH259412   6.466   4.275  14.691 -0.3065 -0.7095  0.5824
12666TIP3    H159413   6.433   4.362  14.715 -1.3059 -0.6329 -0.9499
12666TIP3    H259414   6.400   4.215  14.724  0.2177 -0.8931  1.3390
12667TIP3   OH259415   3.334   6.517  13.504  0.2688 -0.6062  0.3362
12667TIP3    H159416   3.413   6.478  13.541  1.6758  0.3702 -1.4866
12667TIP3    H259417   3.320   6.469  13.422  0.7843  1.1913 -0.8666
12668TIP3   OH259418   6.005   0.779  15.211  0.2165 -0.5187 -0.0185
12668TIP3    H159419   6.039   0.868  15.224  1.3584 -0.9910  0.3555
12668TIP3    H259420   6.067   0.723  15.257 -1.6308 -1.3748  1.5919
12669TIP3   OH259421   6.183   6.320   0.112  0.7692  0.3195  0.1438
12669TIP3    H159422   6.276   6.330   0.132  0.1256  2.4687  2.7059
12669TIP3    H259423   6.156   6.407   0.084 -0.4786 -0.2852 -0.5834
12670TIP3   OH259424   0.511   5.903   1.425  0.0583  0.0260 -0.3065
12670TIP3    H159425   0.474   5.944   1.503  2.2832  0.8235  0.4025
12670TIP3    H259426   0.601   5.935   1.421  0.8957 -2.2237 -1.5911
12671TIP3   OH259427   2.468   5.253  15.427  0.4312 -0.3243  0.2328
12671TIP3    H159428   2.506   5.303  15.354 -1.8871 -0.3005 -1.0360
12671TIP3    H259429   2.460   5.317  15.498  1.1590  0.0876 -0.0414
12672TIP3   OH259430   1.361   3.466  14.891 -0.7025  0.4839 -0.4697
12672TIP3    H159431   1.368   3.442  14.984 -0.6113  1.1846 -0.2896
12672TIP3    H259432   1.354   3.382  14.845  1.8405 -0.0392 -0.0620
12673TIP3   OH259433   6.587   1.370   2.346  0.4627 -1.0984  0.9654
12673TIP3    H159434   6.653   1.438   2.361 -2.8782  2.4618  0.9368
12673TIP3    H259435   6.559   1.384   2.255 -1.7285 -1.0940  1.6049
12674TIP3   OH259436   4.430   6.041   5.196 -0.2935  0.2686 -0.0325
12674TIP3    H159437   4.382   6.116   5.233  0.2254  0.7131 -0.2526
12674TIP3    H259438   4.389   6.025   5.112  1.2514  2.0022 -1.1985
12675TIP3   OH259439   1.778   0.071   0.890 -0.1259  0.4582  0.4388
12675TIP3    H159440   1.708   0.124   0.853 -0.2157  1.0116  1.3910
12675TIP3    H259441   1.827   0.040   0.813 -2.4861 -1.5133 -0.3941
12676TIP3   OH259442   4.408   2.344  17.036  0.2761 -0.0191  0.6270
12676TIP3    H159443   4.491   2.358  17.082  0.8688  0.5797 -0.5587
12676TIP3    H259444   4.409   2.410  16.966 -1.5278  0.4482  1.0035
12677TIP3   OH259445   5.774   3.070  13.772 -0.2778 -0.0117  0.0105
12677TIP3    H159446   5.775   3.116  13.856  1.0439  0.6884 -0.3587
12677TIP3    H259447   5.682   3.052  13.756 -0.6760  0.9933  1.0011
12678TIP3   OH259448   1.517   1.403   2.320  0.4373 -0.2590 -0.0749
12678TIP3    H159449   1.576   1.335   2.353 -0.3628 -1.0645 -0.2422
12678TIP3    H259450   1.496   1.375   2.231 -1.1560 -0.6951  0.3870
12679TIP3   OH259451   1.319   1.568   3.486 -0.4314 -0.1242 -0.3451
12679TIP3    H159452   1.385   1.509   3.521  1.3316  1.8825 -0.1209
12679TIP3    H259453   1.242   1.554   3.541  0.6639 -0.6263  1.1141
12680TIP3   OH259454   2.348   2.697   2.154 -0.5549  0.6688  0.3217
12680TIP3    H159455   2.439   2.674   2.136 -0.3509  2.7048 -1.6909
12680TIP3    H259456   2.341   2.788   2.125 -3.4396  0.3054 -0.3571
12681TIP3   OH259457   0.731   2.246   6.288  0.0781 -0.1867 -0.4012
12681TIP3    H159458   0.815   2.288   6.306 -0.1527  0.1132 -0.0087
12681TIP3    H259459   0.670   2.287   6.349 -0.3748 -0.3347 -0.7450
12682TIP3   OH259460   6.202   3.202  12.963  0.0199  0.1143  0.0892
12682TIP3    H159461   6.138   3.234  12.900  0.7621  0.5993 -0.4356
12682TIP3    H259462   6.247   3.281  12.993  0.3915 -0.2219  0.4348
12683TIP3   OH259463   2.677   3.633  17.201 -0.1345 -0.1567 -0.1192
12683TIP3    H159464   2.653   3.627  17.108 -0.0739  0.2078 -0.1611
12683TIP3    H259465   2.714   3.721  17.210 -0.6308  0.0097  0.3666
12684TIP3   OH259466   2.285   6.046   3.297  0.2734 -0.3999 -0.3424
12684TIP3    H159467   2.306   6.124   3.246 -1.3667  0.6300  0.4427
12684TIP3    H259468   2.276   6.078   3.387  0.1321 -1.6074  0.0886
12685TIP3   OH259469   1.155   0.712  13.820  0.1537 -0.0793 -0.1517
12685TIP3    H159470   1.141   0.732  13.727  0.0487 -1.2118 -0.3938
12685TIP3    H259471   1.228   0.650  13.820 -0.1629 -0.4655  0.4792
12686TIP3   OH259472   2.774   3.798  10.478  0.9687  0.3253 -0.3208
12686TIP3    H159473   2.783   3.870  10.540 -1.4407 -1.1078  1.9212
12686TIP3    H259474   2.732   3.837  10.401  3.3022  1.9910 -0.8407
12687TIP3   OH259475   0.563   2.516  15.283 -0.1054 -0.1147 -0.0059
12687TIP3    H159476   0.506   2.546  15.354  0.3260  0.5619  0.0635
12687TIP3    H259477   0.525   2.433  15.255 -1.5308  0.6724 -0.4354
12688TIP3   OH259478   1.585   0.835   3.330  0.2077 -0.5422 -0.2940
12688TIP3    H159479   1.653   0.841   3.398 -1.3705  1.1441  1.2615
12688TIP3    H259480   1.503   0.832   3.379 -1.1169  2.4633 -2.0223
12689TIP3   OH259481   4.832   3.088  14.973  0.0764 -0.6532  0.4055
12689TIP3    H159482   4.745   3.047  14.976 -1.4342  2.3130  0.8798
12689TIP3    H259483   4.846   3.121  15.062  0.4655  1.1467 -0.2764
12690TIP3   OH259484   2.024   4.036   2.977 -0.4125  0.4192  0.3288
12690TIP3    H159485   2.028   3.969   2.908  0.0129  0.6680  0.1028
12690TIP3    H259486   1.977   3.994   3.049  1.2602 -0.7206  0.8181
12691TIP3   OH259487   5.896   3.181   1.875 -0.2292 -0.3730  0.2345
12691TIP3    H159488   5.933   3.200   1.961  0.4802 -3.0087  0.6101
12691TIP3    H259489   5.819   3.127   1.894 -1.4013  0.9022 -0.7381
12692TIP3   OH259490   6.496   5.716  15.519  0.5297 -0.1480 -0.2897
12692TIP3    H159491   6.562   5.757  15.576  2.9340 -2.0235 -1.5549
12692TIP3    H259492   6.461   5.644  15.572  1.6704 -0.9521 -0.5860
12693TIP3   OH259493   0.625   0.679   3.292 -0.8400  0.7351  0.8414
12693TIP3    H159494   0.713   0.714   3.283 -1.4491  1.9945 -0.8033
12693TIP3    H259495   0.571   0.754   3.316 -1.4796 -0.0321  1.9066
12694TIP3   OH259496   1.515   3.137  11.800  0.6171 -0.6258 -0.3010
12694TIP3    H159497   1.507   3.049  11.764 -1.6345  0.0451 -1.5754
12694TIP3    H259498   1.426   3.171  11.805  1.1294  0.6909  2.6169
12695TIP3   OH259499   3.022   6.410   5.242  0.1775 -0.4099 -0.0360
12695TIP3    H159500   3.004   6.497   5.278 -2.2699 -0.4579 -0.9051
12695TIP3    H259501   3.080   6.369   5.305 -0.9450  0.8394  1.9107
12696TIP3   OH259502   4.796   6.564   2.099 -0.2111  0.0201  0.8223
12696TIP3    H159503   4.824   6.487   2.048 -0.9402 -0.2424  0.8060
12696TIP3    H259504   4.764   6.626   2.033 -0.4683 -0.0285  0.8989
12697TIP3   OH259505   3.968   3.281   3.535  0.6330 -0.1941  0.5120
12697TIP3    H159506   3.966   3.369   3.572 -0.0330 -0.8732  2.1936
12697TIP3    H259507   4.028   3.233   3.592  1.4187 -0.7137 -0.7128
12698TIP3   OH259508   3.095   2.628  15.335  0.1265  0.5542  0.5120
12698TIP3    H159509   3.025   2.682  15.299  1.4998  1.5469 -0.8666
12698TIP3    H259510   3.058   2.540  15.340 -1.3416  1.1273  0.2617
12699TIP3   OH259511   1.731   4.489   2.991  0.0055  0.5680 -0.2429
12699TIP3    H159512   1.807   4.432   3.001 -1.3805 -1.5565 -1.1294
12699TIP3    H259513   1.740   4.527   2.904  1.8846  3.3368  1.0169
12700TIP3   OH259514   5.018   0.299  14.958 -0.2915 -0.2094  0.0251
12700TIP3    H159515   4.993   0.207  14.952 -2.7082  0.4020 -0.4565
12700TIP3    H259516   4.956   0.337  15.021  2.6717  0.5234  2.7381
12701TIP3   OH259517   5.704   5.513  15.282  0.6993  0.4728  0.7571
12701TIP3    H159518   5.656   5.575  15.228 -0.4227 -0.8489  0.1851
12701TIP3    H259519   5.796   5.526  15.257  0.1855 -0.4994 -2.0002
12702TIP3   OH259520   2.268   0.552  16.707  0.2448 -0.0577 -0.0820
12702TIP3    H159521   2.252   0.459  16.722 -0.3565  0.0096 -0.2707
12702TIP3    H259522   2.181   0.589  16.693  0.5039  0.4799 -0.2994
12703TIP3   OH259523   2.441   6.058   3.763  0.0962 -0.3550  0.0515
12703TIP3    H159524   2.402   6.089   3.682  0.0110 -0.1131  0.1865
12703TIP3    H259525   2.368   6.025   3.815  0.4047 -2.9535 -1.0305
12704TIP3   OH259526   1.675   4.646  10.591 -0.3532 -0.5085  0.8466
12704TIP3    H159527   1.584   4.625  10.609 -0.9919  1.1110 -0.2462
12704TIP3    H259528   1.725   4.574  10.631 -2.0488 -1.1151  1.9752
12705TIP3   OH259529   6.062   0.849   0.853  0.2699  0.0789 -0.4009
12705TIP3    H159530   6.007   0.924   0.827 -0.1128 -0.4645 -1.2087
12705TIP3    H259531   6.142   0.889   0.888 -0.1711  0.8705 -0.2631
12706TIP3   OH259532   0.673   5.185  13.236 -0.3687 -0.3680  0.1377
12706TIP3    H159533   0.592   5.222  13.272 -0.6608 -1.7140  0.9401
12706TIP3    H259534   0.661   5.190  13.141 -1.6478 -1.0578  0.2414
12707TIP3   OH259535   6.479   5.164   4.078 -0.2379  0.1288  0.2761
12707TIP3    H159536   6.400   5.136   4.033 -0.8359 -0.2604  1.5119
12707TIP3    H259537   6.482   5.259   4.066 -0.4419  0.0421 -0.4777
12708TIP3   OH259538   5.961   3.789   3.718  0.8185  0.1478  0.3452
12708TIP3    H159539   5.923   3.833   3.795  0.9304  0.4447  0.2320
12708TIP3    H259540   6.011   3.716   3.755  0.4042 -0.0523  0.5157
12709TIP3   OH259541   2.353   1.813  12.521 -0.2074  0.2949 -0.2413
12709TIP3    H159542   2.334   1.730  12.478  1.0048  1.2389 -2.7793
12709TIP3    H259543   2.427   1.793  12.580 -1.4545 -0.8710  1.0142
12710TIP3   OH259544   4.503   0.134   3.002 -0.2411  0.0530  0.0851
12710TIP3    H159545   4.597   0.134   3.023 -0.4599 -1.0852  1.1493
12710TIP3    H259546   4.497   0.085   2.920  0.1449  0.6301 -0.2961
12711TIP3   OH259547   0.791   3.073  12.415 -0.0960  0.6210 -0.5770
12711TIP3    H159548   0.834   3.064  12.500 -0.0390  0.0802 -0.6599
12711TIP3    H259549   0.717   3.013  12.419  0.0695  0.3840 -1.0108
12712TIP3   OH259550   6.286   0.005  14.711  0.4747 -0.0400 -0.5234
12712TIP3    H159551   6.375   0.029  14.737 -0.0178  2.7825 -1.2078
12712TIP3    H259552   6.296  -0.042  14.629  1.3203  0.5032 -0.7347
12713TIP3   OH259553   1.005   0.078   1.711 -0.0729 -0.2884 -0.6600
12713TIP3    H159554   0.974   0.009   1.652  1.9552 -0.6656 -1.3527
12713TIP3    H259555   1.099   0.086   1.692  0.7932 -0.6900  2.7421
12714TIP3   OH259556   3.883   0.811   2.812 -0.2818  0.3210  0.4849
12714TIP3    H159557   3.969   0.828   2.850 -0.4862 -0.0676  1.1511
12714TIP3    H259558   3.836   0.894   2.820 -0.0597  0.4585  0.3688
12715TIP3   OH259559   0.182   3.193  16.498  0.0127  0.2751 -0.1880
12715TIP3    H159560   0.217   3.135  16.566  0.6214  1.5241  0.6028
12715TIP3    H259561   0.104   3.231  16.538 -3.1240 -3.2655 -2.2866
12716TIP3   OH259562   0.131   4.957  16.967  0.0219  0.1475 -0.6740
12716TIP3    H159563   0.071   4.976  17.039 -1.2089  0.3606 -1.7234
12716TIP3    H259564   0.201   5.022  16.976 -0.4507  0.5814 -0.0578
12717TIP3   OH259565   6.773   5.539   1.944  0.3014  0.1620 -0.4474
12717TIP3    H159566   6.773   5.620   1.995 -2.5843  0.9257 -1.4650
12717TIP3    H259567   6.688   5.499   1.963  0.2818 -0.9006 -2.5139
12718TIP3   OH259568   2.322   3.368  13.319 -0.0634 -0.0894 -0.0982
12718TIP3    H159569   2.379   3.418  13.260 -0.2042  0.4749  0.2374
12718TIP3    H259570   2.233   3.397  13.296 -0.0557  1.1236  1.2629
12719TIP3   OH259571   4.182   2.986   4.369 -0.2476  0.0598  0.5713
12719TIP3    H159572   4.089   3.010   4.369 -0.2342  0.1134  0.5269
12719TIP3    H259573   4.212   3.002   4.458  0.2871  2.2511  0.0714
12720TIP3   OH259574   5.327   2.947  11.015  0.1110  0.0253 -0.1741
12720TIP3    H159575   5.258   2.934  11.080 -0.5402  0.7746 -0.7028
12720TIP3    H259576   5.329   3.041  11.000  1.4890  0.0627  0.0718
12721TIP3   OH259577   1.224   6.558   0.983  0.1846 -0.0118 -0.3192
12721TIP3    H159578   1.145   6.612   0.987 -1.5065 -2.4272  0.6421
12721TIP3    H259579   1.226   6.524   0.894  0.1210  0.0161 -0.3309
12722TIP3   OH259580   6.660   5.843   0.224 -0.0344  0.4690  0.1258
12722TIP3    H159581   6.606   5.796   0.288 -0.2132  0.4900 -0.0084
12722TIP3    H259582   6.656   5.788   0.145  1.8984 -0.6737  0.7459
12723TIP3   OH259583   3.102   6.714  12.674  0.7819 -0.0448 -0.3600
12723TIP3    H159584   3.049   6.635  12.687 -4.0100  2.9969  1.4123
12723TIP3    H259585   3.138   6.732  12.761 -0.6331  1.1243  0.0300
12724TIP3   OH259586   4.140   6.708  12.954  0.2077  0.7630  0.5135
12724TIP3    H159587   4.065   6.688  12.899 -0.8558  0.0032  2.1556
12724TIP3    H259588   4.212   6.658  12.917 -0.4386  0.3769 -0.2464
12725TIP3   OH259589   3.903   0.885   0.144  0.0195  0.3224  0.9542
12725TIP3    H159590   3.812   0.911   0.154 -0.1247  0.8552 -1.1689
12725TIP3    H259591   3.918   0.821   0.213 -2.5334 -1.2785  0.1567
12726TIP3   OH259592   3.367   1.935   2.992  0.3483 -0.9108  0.1426
12726TIP3    H159593   3.311   2.004   2.956  1.6042 -0.0375 -0.2119
12726TIP3    H259594   3.310   1.859   3.000 -0.8275 -0.1091 -0.3881
12727TIP3   OH259595   3.059   3.186   5.663 -0.4315  0.0692 -0.6276
12727TIP3    H159596   3.033   3.272   5.696  0.3834 -0.3893  1.3745
12727TIP3    H259597   3.103   3.144   5.737 -0.5628 -1.9790 -1.6276
12728TIP3   OH259598   6.463   6.535   2.387 -0.5447  0.2901 -0.0525
12728TIP3    H159599   6.409   6.614   2.389 -1.4055 -0.2922  0.7686
12728TIP3    H259600   6.409   6.470   2.341 -0.5217 -0.2710  0.6821
12729TIP3   OH259601   3.339   5.881   1.498  0.0101 -0.6600 -0.5237
12729TIP3    H159602   3.258   5.877   1.549  0.1580 -2.0143 -0.3570
12729TIP3    H259603   3.311   5.902   1.409 -0.5053 -0.9648 -0.4337
12730TIP3   OH259604   1.730   6.477  15.108 -0.4392 -0.0458  0.0302
12730TIP3    H159605   1.747   6.447  15.197  1.0665  0.1682 -0.1624
12730TIP3    H259606   1.636   6.499  15.107 -0.3751  0.3733  1.6764
12731TIP3   OH259607   4.117   1.459   4.260  0.3935 -0.2586  0.2049
12731TIP3    H159608   4.053   1.430   4.325 -0.6575 -0.0900 -0.7185
12731TIP3    H259609   4.101   1.553   4.250  1.0501 -0.1399  0.2395
12732TIP3   OH259610   1.231   5.366  15.687 -0.4635 -0.2081  0.3091
12732TIP3    H159611   1.241   5.326  15.600  0.1909  0.4236  0.0891
12732TIP3    H259612   1.255   5.457  15.675  0.8298 -0.3756  1.4043
12733TIP3   OH259613   2.697   0.008  14.247  0.3612 -0.2214  0.5072
12733TIP3    H159614   2.625   0.057  14.286  0.2521  1.8926 -2.0939
12733TIP3    H259615   2.771   0.022  14.307 -0.9881 -1.5360  2.6355
12734TIP3   OH259616   6.555   6.317   6.239 -0.2540  0.0234  0.0373
12734TIP3    H159617   6.519   6.376   6.173  1.0401  0.0293 -0.6921
12734TIP3    H259618   6.543   6.230   6.201 -3.7928 -0.4883  1.8567
12735TIP3   OH259619   4.189   4.253  17.029 -0.0920 -0.7050 -0.7004
12735TIP3    H159620   4.249   4.206  16.970  1.3106 -0.7334  0.6973
12735TIP3    H259621   4.102   4.227  16.999  0.6092 -2.1218 -1.6341
12736TIP3   OH259622   0.993   2.057  17.048 -0.8436  0.3282  0.5293
12736TIP3    H159623   0.948   1.999  17.109  0.2947  0.2931  1.3684
12736TIP3    H259624   1.063   2.003  17.011 -2.7989 -0.3243 -2.4995
12737TIP3   OH259625   0.002   3.349  13.552 -0.5259  0.0874  0.4699
12737TIP3    H159626  -0.034   3.262  13.533 -0.6274 -0.1511  1.6803
12737TIP3    H259627   0.030   3.344  13.644  1.5413  0.6349 -0.0790
12738TIP3   OH259628   2.481   5.325  13.496  0.0997  0.1995  0.4937
12738TIP3    H159629   2.430   5.342  13.575 -0.0237 -0.7981  0.6414
12738TIP3    H259630   2.426   5.359  13.424 -0.8239 -0.9214  0.6425
12739TIP3   OH259631   4.796   0.212   0.325  0.3344  0.0225 -0.0485
12739TIP3    H159632   4.721   0.181   0.375  0.8388 -2.0077 -0.4708
12739TIP3    H259633   4.789   0.308   0.328 -0.4540 -0.0500  2.6251
12740TIP3   OH259634   1.433   1.382   2.057  0.3406  0.9376 -0.4367
12740TIP3    H159635   1.363   1.447   2.056  0.4981  1.1385  0.4980
12740TIP3    H259636   1.388   1.298   2.064  0.1853  1.0581  0.0450
12741TIP3   OH259637   1.526   1.120   2.416  0.5757 -0.1882 -0.6880
12741TIP3    H159638   1.577   1.039   2.416 -0.2352 -0.7285  0.0434
12741TIP3    H259639   1.435   1.090   2.415  0.2219  0.6439  1.5644
12742TIP3   OH259640   5.883   4.206   0.614 -0.7109  0.0959  0.3612
12742TIP3    H159641   5.902   4.291   0.655  0.7850  0.0156 -0.0830
12742TIP3    H259642   5.845   4.228   0.529 -2.1154  0.2813  1.0129
12743TIP3   OH259643   3.249   4.747  12.237 -0.2600 -0.3238  0.2216
12743TIP3    H159644   3.337   4.710  12.234  0.0768  0.3816  1.0966
12743TIP3    H259645   3.255   4.828  12.188 -0.5627 -0.5389 -0.1768
12744TIP3   OH259646   3.687   3.048  13.262 -0.1825 -0.2504 -0.3234
12744TIP3    H159647   3.767   3.080  13.305 -0.3423 -2.3211  1.7056
12744TIP3    H259648   3.620   3.113  13.286  0.0342 -0.6602  1.5110
12745TIP3   OH259649   1.672   5.454  15.435 -0.4356 -0.1516  0.2481
12745TIP3    H159650   1.722   5.485  15.511 -0.5823  1.0885 -0.1451
12745TIP3    H259651   1.727   5.386  15.397 -0.9018 -1.6754  2.1415
12746TIP3   OH259652   3.625   5.080   2.466 -0.1476  0.3234  0.2989
12746TIP3    H159653   3.707   5.113   2.428 -1.2550  1.1169 -1.5595
12746TIP3    H259654   3.609   5.137   2.541  1.6378 -0.6941  1.5204
12747TIP3   OH259655   3.141   0.322  16.417 -0.2316  0.2874 -0.4728
12747TIP3    H159656   3.215   0.296  16.472  0.4946 -0.9361 -1.9320
12747TIP3    H259657   3.165   0.407  16.381  0.6890 -0.2696 -1.2344
12748TIP3   OH259658   6.331   1.325   4.653  0.5722 -0.1553  0.3322
12748TIP3    H159659   6.346   1.370   4.569  1.6275 -0.1813  0.4912
12748TIP3    H259660   6.334   1.395   4.718  2.8726 -0.4658  0.6504
12749TIP3   OH259661   4.548   1.435   6.680  0.1341 -0.8083 -0.9330
12749TIP3    H159662   4.631   1.477   6.657  1.0631 -1.6793  0.6391
12749TIP3    H259663   4.492   1.507   6.708  1.0872 -0.3944 -0.0117
12750TIP3   OH259664   5.955   0.407  15.008 -0.8621 -0.2099 -0.0494
12750TIP3    H159665   5.994   0.406  15.095  0.5168  0.3588 -0.6229
12750TIP3    H259666   5.906   0.325  15.002  1.7688 -1.9117  0.1019
12751TIP3   OH259667   2.359   3.946  12.326  0.0641 -0.1358 -0.6283
12751TIP3    H159668   2.294   3.887  12.286 -0.8901 -0.3877  1.2032
12751TIP3    H259669   2.443   3.914  12.293 -0.5314 -1.6698 -0.7474
12752TIP3   OH259670   2.258   3.069  15.112 -1.0488 -0.0136  0.5343
12752TIP3    H159671   2.345   3.081  15.149 -1.3858 -0.0937  1.3836
12752TIP3    H259672   2.259   3.119  15.031 -0.2776  0.1448  0.6326
12753TIP3   OH259673   4.106   3.798  14.581 -0.5193 -0.0409  0.0701
12753TIP3    H159674   4.142   3.796  14.492  1.2679  1.3009  0.7018
12753TIP3    H259675   4.013   3.782  14.569 -0.2873 -0.2016 -2.0087
12754TIP3   OH259676   5.935   3.894  15.444  0.2399 -1.0266 -0.2306
12754TIP3    H159677   6.027   3.920  15.440  0.3398 -1.3856 -0.2991
12754TIP3    H259678   5.913   3.900  15.537  0.3157 -0.8827 -0.2216
12755TIP3   OH259679   1.680   3.693   0.062 -0.1715  0.0317  0.1535
12755TIP3    H159680   1.704   3.651  -0.020  1.7005  0.9490  0.1597
12755TIP3    H259681   1.590   3.666   0.079 -0.9489  0.5760 -2.6880
12756TIP3   OH259682   1.249   4.849   4.490  0.0827 -0.1267 -0.0837
12756TIP3    H159683   1.245   4.896   4.573 -0.5291  0.2200 -0.2998
12756TIP3    H259684   1.342   4.830   4.477  0.2404  0.2800  0.4211
12757TIP3   OH259685   6.219   2.569  14.393  0.3404 -0.0338 -0.3278
12757TIP3    H159686   6.212   2.618  14.475  0.2497  2.1936 -1.6040
12757TIP3    H259687   6.227   2.477  14.421 -1.8876  0.3992  2.1009
12758TIP3   OH259688   5.126   4.239  16.129 -0.1964 -0.2731  0.6537
12758TIP3    H159689   5.133   4.146  16.149  0.1240 -0.2143  0.8160
12758TIP3    H259690   5.112   4.242  16.034  0.6376 -0.4507  0.5205
12759TIP3   OH259691   4.227   3.186  15.423  0.1455  0.1254 -0.0068
12759TIP3    H159692   4.160   3.158  15.485  0.8398 -0.3642  0.5370
12759TIP3    H259693   4.259   3.104  15.383  0.2789  0.3688 -0.4107
12760TIP3   OH259694   0.474   0.778   2.010  0.5426  0.1560  0.1590
12760TIP3    H159695   0.465   0.749   1.919 -2.3188  3.0893 -0.6576
12760TIP3    H259696   0.505   0.868   2.005  0.0533  0.4918  2.0805
12761TIP3   OH259697   6.058   1.005   2.705 -0.2830  0.1497 -0.3703
12761TIP3    H159698   6.070   1.080   2.763 -1.8250 -0.4746  0.8092
12761TIP3    H259699   6.127   0.944   2.729  0.1481  0.6071 -0.4167
12762TIP3   OH259700   4.910   0.137  10.760 -0.2742  0.3369 -0.3524
12762TIP3    H159701   4.928   0.199  10.830 -2.4840  2.7557 -1.7588
12762TIP3    H259702   4.957   0.172  10.684 -1.7725  0.5276 -1.2372
12763TIP3   OH259703   6.224   1.330  14.740 -0.8595  0.0447  0.4597
12763TIP3    H159704   6.145   1.297  14.783 -0.6779 -0.4307  0.4262
12763TIP3    H259705   6.219   1.425  14.752 -2.4659  0.2438 -1.2605
12764TIP3   OH259706   5.277   1.203  12.180 -0.2828  0.1614 -0.0636
12764TIP3    H159707   5.316   1.290  12.172  0.0368 -0.1630 -2.9686
12764TIP3    H259708   5.196   1.209  12.130 -0.2422 -1.2301 -0.3197
12765TIP3   OH259709   5.272   2.820   2.081  0.4508  0.3437  0.2427
12765TIP3    H159710   5.232   2.902   2.109 -1.1815 -0.2927 -0.1065
12765TIP3    H259711   5.257   2.817   1.986 -1.6637 -1.3858  0.5360
12766TIP3   OH259712   2.682   2.894  16.856 -0.1272 -0.6390 -0.2374
12766TIP3    H159713   2.677   2.939  16.772  2.0173  1.0620  0.4309
12766TIP3    H259714   2.603   2.922  16.903 -0.0574  0.4914 -0.7594
12767TIP3   OH259715   3.679   1.135   0.409  0.4234 -0.4063  0.0172
12767TIP3    H159716   3.653   1.050   0.374 -1.9575  0.5971 -0.8774
12767TIP3    H259717   3.654   1.198   0.342 -1.3849  1.2990  2.0883
12768TIP3   OH259718   3.432   2.978   6.174  0.4842 -0.2211 -0.3344
12768TIP3    H159719   3.443   2.921   6.250  0.4358 -1.1033 -0.9768
12768TIP3    H259720   3.507   3.037   6.178  1.3388 -1.2688 -0.4522
12769TIP3   OH259721   6.136   5.597   0.639 -0.3912 -0.1583 -0.2111
12769TIP3    H159722   6.165   5.674   0.689  1.0073 -0.4974 -0.4627
12769TIP3    H259723   6.072   5.555   0.697 -1.3046  1.2546 -0.1308
12770TIP3   OH259724   2.169   0.678   1.545  0.1959  0.2915 -0.4513
12770TIP3    H159725   2.242   0.627   1.510  0.4010  0.4218 -0.2118
12770TIP3    H259726   2.142   0.631   1.624  0.6404  0.7638 -0.0113
12771TIP3   OH259727   0.007   5.917  11.297  0.2992  0.4091  0.2528
12771TIP3    H159728  -0.083   5.898  11.323 -0.2849  0.1532 -1.8155
12771TIP3    H259729   0.059   5.846  11.334  0.0475  1.5921  3.1963
12772TIP3   OH259730   4.083   6.513  13.584  0.1045  0.0933  1.0131
12772TIP3    H159731   4.164   6.484  13.625  1.0148 -0.0180 -0.7628
12772TIP3    H259732   4.105   6.598  13.544 -0.6308  0.0622  0.5170
12773TIP3   OH259733   4.896   2.210   3.289  0.4979 -0.1023  0.5588
12773TIP3    H159734   4.847   2.217   3.370  0.2677  0.2245  0.3942
12773TIP3    H259735   4.925   2.300   3.271  0.1495 -0.0891  0.0393
12774TIP3   OH259736   1.799   4.288   1.866  0.2780 -0.2882 -0.5016
12774TIP3    H159737   1.753   4.226   1.922  0.3294  0.0410 -0.0891
12774TIP3    H259738   1.804   4.245   1.781 -0.4003 -0.5088 -0.4333
12775TIP3   OH259739   3.769   6.025   5.202  0.4215 -0.2045  0.2504
12775TIP3    H159740   3.695   5.999   5.256  1.5172 -2.5712  0.7535
12775TIP3    H259741   3.846   5.997   5.251  1.6501  1.3630 -0.6717
12776TIP3   OH259742   6.734   1.020  15.852  0.0812 -0.1344 -0.2107
12776TIP3    H159743   6.703   0.941  15.897  2.0444 -0.4426  0.7041
12776TIP3    H259744   6.755   0.990  15.764  0.7976 -0.6577  0.1269
12777TIP3   OH259745   2.200   6.599   1.908  0.0518 -0.0822  0.2791
12777TIP3    H159746   2.221   6.507   1.895 -0.3657 -0.2840  1.0038
12777TIP3    H259747   2.241   6.622   1.991 -2.0662 -0.3587  1.4817
12778TIP3   OH259748   5.564   1.906  16.157  0.6512  0.3826  0.3044
12778TIP3    H159749   5.499   1.865  16.214 -0.3502 -0.9380 -1.6760
12778TIP3    H259750   5.530   1.994  16.141  0.0603  0.1772  0.4041
12779TIP3   OH259751   5.265   0.839   0.145 -0.5818 -0.2609  0.0125
12779TIP3    H159752   5.300   0.925   0.120 -0.2832 -0.0065  1.2532
12779TIP3    H259753   5.341   0.781   0.143 -1.0384 -0.9053 -2.3722
12780TIP3   OH259754   2.500   6.276   4.895  0.0075  0.1288 -0.0025
12780TIP3    H159755   2.489   6.349   4.956  0.0407  0.4608 -0.3890
12780TIP3    H259756   2.413   6.235   4.890  0.2614 -0.5972  1.1274
12781TIP3   OH259757   1.721   3.191  15.747  1.1884  0.2069 -0.1274
12781TIP3    H159758   1.735   3.243  15.826  2.7004  0.7426 -0.6957
12781TIP3    H259759   1.732   3.254  15.675  0.9348 -0.4783 -0.7754
12782TIP3   OH259760   3.032   0.459  14.410 -0.1373 -0.0419  0.4588
12782TIP3    H159761   3.051   0.404  14.486  1.3037 -0.1825  0.0180
12782TIP3    H259762   2.938   0.478  14.417 -0.5237 -1.9551  0.9992
12783TIP3   OH259763   2.478   4.184  12.425 -0.3067  0.1608  0.4093
12783TIP3    H159764   2.558   4.203  12.474 -0.7777  0.5429  1.0354
12783TIP3    H259765   2.449   4.099  12.457 -0.2490  0.1019  0.3065
12784TIP3   OH259766   4.269   3.844   3.195  0.7154  0.1967  0.0859
12784TIP3    H159767   4.200   3.890   3.243  1.2698  2.0284 -0.7805
12784TIP3    H259768   4.305   3.910   3.136  0.8462 -1.6476 -2.0397
12785TIP3   OH259769   2.586   6.521   1.582  0.4571  0.2224  0.3184
12785TIP3    H159770   2.581   6.437   1.628  0.4883 -0.0453 -0.1566
12785TIP3    H259771   2.497   6.555   1.586 -0.0494 -0.7971 -1.2380
12786TIP3   OH259772   2.971   0.291  15.533  0.0068 -0.0475  0.0143
12786TIP3    H159773   3.055   0.310  15.490 -0.5028  0.4463 -0.8034
12786TIP3    H259774   2.975   0.339  15.616  0.2445  0.5913 -0.3563
12787TIP3   OH259775   0.954   6.700   1.514  0.5838 -0.2568 -0.0733
12787TIP3    H159776   0.897   6.741   1.449  1.4160  0.5567 -0.3220
12787TIP3    H259777   1.039   6.693   1.470  0.6976 -1.4111  0.2971
12788TIP3   OH259778   5.602   5.264   4.007 -0.0445  0.1384  0.0767
12788TIP3    H159779   5.577   5.173   3.996 -0.3943  0.2318  0.0745
12788TIP3    H259780   5.549   5.295   4.081  0.6888  0.1106  0.6237
12789TIP3   OH259781   2.196   2.455  14.468 -0.6607  0.0858  0.3215
12789TIP3    H159782   2.143   2.435  14.390 -0.1556  0.0094 -0.0043
12789TIP3    H259783   2.279   2.410  14.453 -0.5840  0.0049  0.9451
12790TIP3   OH259784   3.613   2.922   3.180 -0.8998  0.4989  0.2613
12790TIP3    H159785   3.539   2.981   3.197 -2.0526 -1.0368  0.8443
12790TIP3    H259786   3.681   2.979   3.144 -1.9161  2.1878  0.8659
12791TIP3   OH259787   3.571   2.432  15.161  0.1778  0.3554 -0.5127
12791TIP3    H159788   3.495   2.391  15.203  0.3898  1.4377  0.9868
12791TIP3    H259789   3.628   2.359  15.138 -0.5876 -0.3595 -0.1897
12792TIP3   OH259790   6.268   2.474   1.195  0.4590  0.1228  0.4626
12792TIP3    H159791   6.176   2.477   1.167  0.6372 -2.0929 -0.6542
12792TIP3    H259792   6.269   2.415   1.270  0.7886  1.4864  1.5756
12793TIP3   OH259793   0.010   1.970  13.420  0.1729 -0.1315  0.2283
12793TIP3    H159794   0.002   2.001  13.511  0.1000  0.4833  0.0180
12793TIP3    H259795  -0.028   2.040  13.368 -0.4733 -0.8185 -0.2370
12794TIP3   OH259796   5.902   2.111  14.772  0.8068 -0.0162  0.6346
12794TIP3    H159797   5.944   2.033  14.808 -2.7041 -1.1353  2.8564
12794TIP3    H259798   5.899   2.095  14.678 -0.1323 -2.8382  1.0424
12795TIP3   OH259799   5.278   5.328  12.124  0.3732 -0.0150 -0.2531
12795TIP3    H159800   5.277   5.398  12.189  0.5922  0.8172 -1.1141
12795TIP3    H259801   5.201   5.345  12.070  0.7252 -0.1096 -0.7966
12796TIP3   OH259802   5.196   1.597  11.940 -0.3732  0.2576  0.3811
12796TIP3    H159803   5.161   1.522  11.989  0.1453 -0.3187 -0.1231
12796TIP3    H259804   5.214   1.562  11.853 -2.8500  1.6576 -0.7928
12797TIP3   OH259805   4.003   6.400  13.834 -0.2902 -0.2874  0.2494
12797TIP3    H159806   4.028   6.444  13.916 -0.3581  0.6609 -0.2282
12797TIP3    H259807   4.041   6.454  13.765 -0.7593 -0.7345 -0.3716
12798TIP3   OH259808   6.033   0.477   0.891 -0.3692  0.4308  0.6711
12798TIP3    H159809   6.096   0.525   0.837 -1.3198  1.9324  0.8242
12798TIP3    H259810   6.034   0.388   0.856  2.5334  0.1153  1.3015
12799TIP3   OH259811   0.512   4.968   0.342 -0.2526 -0.5550 -0.0759
12799TIP3    H159812   0.571   4.932   0.408  1.5058  0.2881 -1.1049
12799TIP3    H259813   0.454   5.027   0.390 -0.3499 -1.4913  0.9790
12800TIP3   OH259814   6.129   6.125   3.876 -0.3481 -0.0617 -0.4020
12800TIP3    H159815   6.124   6.127   3.781  0.5177  0.1810 -0.4494
12800TIP3    H259816   6.220   6.146   3.896 -0.2799 -1.0678  0.4485
12801TIP3   OH259817   3.426   5.599   4.299  0.1956  0.3228  0.9808
12801TIP3    H159818   3.439   5.586   4.205  0.8532  0.2944  1.0708
12801TIP3    H259819   3.412   5.693   4.308 -2.6774  0.0266  0.5477
12802TIP3   OH259820   0.031   4.969  15.232 -0.1499 -0.1255  1.2640
12802TIP3    H159821  -0.023   4.897  15.266 -2.4513 -0.2303 -2.0929
12802TIP3    H259822  -0.017   5.000  15.155  1.8085  3.6840  1.3560
12803TIP3   OH259823   1.018   2.319  11.544  0.1467 -0.0980  0.3215
12803TIP3    H159824   1.073   2.266  11.601  0.8254  0.1476 -0.0932
12803TIP3    H259825   1.074   2.392  11.518 -1.0213  1.3214  1.5655
12804TIP3   OH259826   4.857   0.888   5.519 -0.4840  0.8534  0.6548
12804TIP3    H159827   4.933   0.833   5.530 -1.6609 -1.1611 -0.6210
12804TIP3    H259828   4.814   0.888   5.604  0.2244  0.9139  1.0174
12805TIP3   OH259829   2.398   5.287   2.847 -0.0980 -0.7474  0.2528
12805TIP3    H159830   2.456   5.286   2.924 -1.5606 -0.0271  1.4339
12805TIP3    H259831   2.440   5.229   2.784  0.6601 -2.1630  1.9872
12806TIP3   OH259832   2.921   0.399  11.049  0.3616  0.2807 -0.2892
12806TIP3    H159833   2.886   0.474  11.001 -1.1921 -0.0204  0.3085
12806TIP3    H259834   2.979   0.356  10.986  0.4131  1.3594 -1.0030
12807TIP3   OH259835   6.754   3.078   4.415 -0.5369  0.0318  0.5511
12807TIP3    H159836   6.703   2.997   4.404 -0.8198  0.2719  0.0697
12807TIP3    H259837   6.789   3.072   4.504 -0.3020 -0.7651  0.4215
12808TIP3   OH259838   4.524   6.306   3.098  0.5265 -0.1832 -0.1103
12808TIP3    H159839   4.515   6.279   3.190 -0.2756  1.2285  0.2559
12808TIP3    H259840   4.502   6.399   3.098  2.0146  0.2139 -1.5092
12809TIP3   OH259841   3.008   3.622   0.586 -0.1282 -0.2411  0.3136
12809TIP3    H159842   2.925   3.666   0.568  0.3635  0.3708 -0.4875
12809TIP3    H259843   3.075   3.685   0.561  0.6332  0.2079  3.1022
12810TIP3   OH259844   1.204   1.230   2.734  0.1338 -0.5176 -0.0775
12810TIP3    H159845   1.136   1.179   2.779  0.3018 -0.4556  0.2494
12810TIP3    H259846   1.243   1.284   2.803  0.8005 -0.8627 -0.1741
12811TIP3   OH259847   5.865   4.361   1.743 -0.5688 -0.0485  0.6855
12811TIP3    H159848   5.824   4.339   1.827 -1.0460  0.9777  0.7308
12811TIP3    H259849   5.954   4.387   1.765 -0.3990 -0.6715  0.7632
12812TIP3   OH259850   3.321   6.124  13.086 -0.1098  0.1233  0.5246
12812TIP3    H159851   3.236   6.166  13.093  0.0693  0.6250 -0.1951
12812TIP3    H259852   3.339   6.120  12.992  1.3527  1.4770  0.6967
12813TIP3   OH259853   3.567   5.348  15.921 -0.2914  0.2586 -0.4670
12813TIP3    H159854   3.653   5.308  15.935 -0.5288 -0.1148 -0.0285
12813TIP3    H259855   3.532   5.360  16.010 -0.4063  1.0418 -0.6158
12814TIP3   OH259856   6.409   1.167  12.370  0.0613  0.6888 -0.2224
12814TIP3    H159857   6.447   1.080  12.380 -1.4070  0.2002  1.9141
12814TIP3    H259858   6.381   1.172  12.279 -0.4024 -1.3418 -0.2210
12815TIP3   OH259859   1.910   5.533  13.475 -0.0018  0.5039 -0.4575
12815TIP3    H159860   1.881   5.527  13.566  0.2570 -1.1902 -0.4507
12815TIP3    H259861   2.001   5.564  13.481  0.5536 -1.1141 -0.0025
12816TIP3   OH259862   3.229   1.677  12.472  0.0982 -0.5528 -0.6684
12816TIP3    H159863   3.201   1.606  12.415 -0.0237 -0.6801 -0.4537
12816TIP3    H259864   3.185   1.755  12.437 -1.6433 -0.9745  0.4572
12817TIP3   OH259865   5.833   1.655   2.075 -0.1600  0.6951 -0.7463
12817TIP3    H159866   5.883   1.707   2.137 -0.8409  2.1014 -1.3116
12817TIP3    H259867   5.743   1.656   2.110 -0.2230  0.0599 -0.8742
12818TIP3   OH259868   2.497   0.231  15.165 -0.5826 -0.1292 -0.3089
12818TIP3    H159869   2.404   0.253  15.175 -0.2545  0.3945  2.4585
12818TIP3    H259870   2.543   0.296  15.219  1.4641 -0.1210 -1.9296
12819TIP3   OH259871   0.886   4.588   5.659 -0.1571  0.2377 -0.0537
12819TIP3    H159872   0.929   4.505   5.638 -0.4094 -0.7371  2.7631
12819TIP3    H259873   0.805   4.587   5.609  1.7117  0.8908 -3.4162
12820TIP3   OH259874   5.787   4.881   6.369  0.0955  0.4428 -0.2963
12820TIP3    H159875   5.795   4.976   6.373 -1.7314  0.6237 -0.3463
12820TIP3    H259876   5.824   4.858   6.284  2.4128  0.8460  0.5321
12821TIP3   OH259877   5.762   0.870  15.714  0.4355 -0.4400  0.5085
12821TIP3    H159878   5.822   0.937  15.748  0.0282  1.6700 -2.5103
12821TIP3    H259879   5.797   0.848  15.628 -1.3426 -1.5919  0.0304
12822TIP3   OH259880   6.028   0.846   3.599 -0.0165 -0.4249 -0.0779
12822TIP3    H159881   6.063   0.850   3.510  0.1896  0.1874  0.0294
12822TIP3    H259882   5.964   0.917   3.603  0.3032 -0.1663  0.4067
12823TIP3   OH259883   4.538   2.620  13.522  0.3443  0.4280 -0.2778
12823TIP3    H159884   4.572   2.599  13.609  1.8468 -0.2928 -0.9912
12823TIP3    H259885   4.443   2.625  13.534  0.0283 -3.8235  0.6586
12824TIP3   OH259886   6.479   2.283  12.676 -0.0282 -0.0955  0.4324
12824TIP3    H159887   6.394   2.242  12.659  0.7974 -1.8607  0.3153
12824TIP3    H259888   6.543   2.218  12.646  1.3814  0.4005  2.1921
12825TIP3   OH259889   4.071   1.400  14.032  0.6793  0.4044 -0.0230
12825TIP3    H159890   4.060   1.375  13.940 -1.9045 -1.1685  0.6280
12825TIP3    H259891   4.097   1.492  14.028 -0.9190  0.8414 -2.3269
12826TIP3   OH259892   3.131   0.572   0.207 -0.4738  0.0694 -0.0067
12826TIP3    H159893   3.166   0.493   0.248  2.3941  1.5766  0.7055
12826TIP3    H259894   3.107   0.544   0.119  0.1727 -1.6715  0.3241
12827TIP3   OH259895   0.094   4.362  13.044  0.5467  0.5775 -0.2139
12827TIP3    H159896   0.087   4.314  13.126 -0.7298  2.8148  1.0957
12827TIP3    H259897   0.100   4.454  13.070 -1.8182  1.5443 -2.5924
12828TIP3   OH259898   5.050   2.168  14.526  0.2776  0.8370 -0.4832
12828TIP3    H159899   5.114   2.234  14.554 -0.0677  0.9087  0.1366
12828TIP3    H259900   5.101   2.107  14.473  1.0124  0.5205  0.5623
12829TIP3   OH259901   0.625   3.293   1.605  0.0134  0.1558 -0.1339
12829TIP3    H159902   0.536   3.328   1.611 -0.5011 -1.1581  0.2690
12829TIP3    H259903   0.617   3.218   1.546  1.2216  1.0537 -1.5349
12830TIP3   OH259904   5.881   4.453   2.153 -0.7373 -0.0978 -0.0035
12830TIP3    H159905   5.849   4.498   2.075  0.0410  1.1341  0.3539
12830TIP3    H259906   5.818   4.476   2.221 -0.7995 -0.2398 -0.0139
12831TIP3   OH259907   4.548   6.519   2.644  0.0800  0.0555  0.2059
12831TIP3    H159908   4.599   6.590   2.606 -0.8562  0.2494 -0.7421
12831TIP3    H259909   4.609   6.445   2.646  0.7016  0.5485  0.0690
12832TIP3   OH259910   1.907   2.617  13.832 -0.2128 -0.3029  0.6394
12832TIP3    H159911   1.841   2.607  13.763 -0.4074 -0.5051  0.8516
12832TIP3    H259912   1.879   2.556  13.900  2.3834 -3.4960 -0.8924
12833TIP3   OH259913   2.509   5.096   2.664 -0.1870 -0.6407 -0.2732
12833TIP3    H159914   2.482   5.017   2.710  0.2116 -0.5074  0.2058
12833TIP3    H259915   2.602   5.082   2.645 -0.3814 -0.7522 -1.1658
12834TIP3   OH259916   3.190   1.777   4.999 -0.7036  0.1626 -0.2449
12834TIP3    H159917   3.094   1.775   5.009 -0.6568  0.1925  0.2610
12834TIP3    H259918   3.215   1.685   5.000 -0.7651  0.1381 -0.7997
12835TIP3   OH259919   4.891   2.852  11.249  0.3874 -0.3243 -0.7913
12835TIP3    H159920   4.855   2.882  11.332  0.8253 -1.2772 -0.2330
12835TIP3    H259921   4.815   2.826  11.197  0.1369 -0.1589 -0.5034
12836TIP3   OH259922   1.198   3.298   5.747  0.8210  0.7349 -0.0834
12836TIP3    H159923   1.234   3.236   5.683 -0.1459  1.0444 -0.9506
12836TIP3    H259924   1.111   3.320   5.713  0.6545  1.6185  0.8648
12837TIP3   OH259925   3.578   4.462   1.617  0.0499  0.1860  0.2546
12837TIP3    H159926   3.574   4.388   1.678  1.3876 -0.2065 -0.0966
12837TIP3    H259927   3.561   4.539   1.672  0.1584 -0.2514  0.9201
12838TIP3   OH259928   2.371   6.452  11.830  0.3362  0.7913 -0.5498
12838TIP3    H159929   2.319   6.395  11.773  1.1405 -1.3636  0.7605
12838TIP3    H259930   2.454   6.463  11.783  0.8593 -0.6713 -0.0119
12839TIP3   OH259931   2.117   0.269   0.564 -0.2507  0.1703 -0.4795
12839TIP3    H159932   2.137   0.252   0.472  0.5053  0.6638 -0.4139
12839TIP3    H259933   2.034   0.317   0.562 -0.8350 -0.8136 -0.8296
12840TIP3   OH259934   4.825   0.478  11.895 -0.2729 -0.4441 -0.0929
12840TIP3    H159935   4.751   0.428  11.860 -0.3770 -2.8468  3.0749
12840TIP3    H259936   4.891   0.475  11.826 -1.8164 -1.3659 -1.6178
12841TIP3   OH259937   3.689   4.897  12.605 -0.6868  0.2048 -0.5811
12841TIP3    H159938   3.622   4.964  12.594 -1.0749  0.1758  1.2720
12841TIP3    H259939   3.726   4.915  12.692  1.6958  0.1967 -1.5070
12842TIP3   OH259940   4.133   4.718   2.395 -0.3263 -0.4615  0.1671
12842TIP3    H159941   4.210   4.680   2.353  1.6749  2.5917  0.7478
12842TIP3    H259942   4.093   4.772   2.326 -1.3918 -1.2297  0.1646
12843TIP3   OH259943   4.104   4.828   5.348 -0.5462 -0.7619  0.2852
12843TIP3    H159944   4.048   4.761   5.387 -0.4885 -0.1766  1.4018
12843TIP3    H259945   4.074   4.910   5.387 -2.7896  0.4171 -3.3727
12844TIP3   OH259946   4.765   1.460   1.531 -0.5353  0.1773  0.0483
12844TIP3    H159947   4.780   1.404   1.607 -0.5412 -0.9104 -0.7351
12844TIP3    H259948   4.758   1.400   1.457  3.5124  1.3105 -1.5566
12845TIP3   OH259949   3.799   2.041  11.217  0.6314 -0.0516 -0.8674
12845TIP3    H159950   3.858   2.012  11.287 -0.2606  0.4000  0.1191
12845TIP3    H259951   3.814   1.980  11.145  0.8160 -1.2077  0.1207
12846TIP3   OH259952   5.899   1.874   4.327 -0.5399 -0.4572 -0.0762
12846TIP3    H159953   5.887   1.786   4.363  0.8598 -0.9732 -0.8004
12846TIP3    H259954   5.873   1.866   4.236  1.1403 -0.5871 -0.5915
12847TIP3   OH259955   1.967   6.449   2.877  0.0661 -0.5881 -0.3070
12847TIP3    H159956   1.999   6.387   2.943  0.6260 -0.3859 -0.3826
12847TIP3    H259957   2.043   6.468   2.823 -0.0972  0.1660 -0.2872
12848TIP3   OH259958   1.096   0.479   0.297  0.4846 -0.6346 -0.1090
12848TIP3    H159959   1.161   0.414   0.271  1.2915  0.2055 -0.2506
12848TIP3    H259960   1.134   0.522   0.373  1.2020  1.4255 -1.5308
12849TIP3   OH259961   0.637   5.286   5.420 -0.6238  0.0260 -0.4091
12849TIP3    H159962   0.606   5.195   5.416  0.7831 -0.6754  2.2367
12849TIP3    H259963   0.572   5.331   5.474 -0.0129 -0.0659  0.4202
12850TIP3   OH259964   6.378   3.927   1.623  0.3737 -0.0797 -0.0593
12850TIP3    H159965   6.448   3.992   1.612 -0.0246  0.3756  0.0247
12850TIP3    H259966   6.357   3.931   1.717 -0.8130  0.9245 -0.3304
12851TIP3   OH259967   1.684   5.713   3.047 -0.0275  0.1283 -0.0998
12851TIP3    H159968   1.742   5.760   2.988 -0.1842 -0.7475 -0.9694
12851TIP3    H259969   1.667   5.630   3.004 -0.1625 -0.5365  1.1676
12852TIP3   OH259970   1.456   4.683  13.536  0.2243  0.3766  0.2673
12852TIP3    H159971   1.361   4.681  13.522  0.3046 -0.3382 -0.2219
12852TIP3    H259972   1.493   4.651  13.454  0.8735  0.1100  0.6552
12853TIP3   OH259973   2.637   4.133  13.163  0.2311 -0.1151  0.2029
12853TIP3    H159974   2.587   4.067  13.114 -0.3087 -0.4180  1.1281
12853TIP3    H259975   2.573   4.201  13.184  0.6171  0.3452 -0.0953
12854TIP3   OH259976   5.017   0.538  11.704  0.1177 -0.8055 -0.5539
12854TIP3    H159977   5.011   0.464  11.643  0.2828 -0.9602 -0.3827
12854TIP3    H259978   5.105   0.532  11.739 -0.4355 -1.5731  0.7822
12855TIP3   OH259979   3.764   6.425   1.658  0.4716  0.0750  0.4169
12855TIP3    H159980   3.744   6.461   1.572 -0.4313  2.2360  1.4744
12855TIP3    H259981   3.807   6.341   1.639 -0.3118  0.1656 -2.1003
12856TIP3   OH259982   5.769   5.985  11.939 -0.2708  0.3837 -0.0352
12856TIP3    H159983   5.728   5.900  11.922 -1.8009  1.0913  0.0115
12856TIP3    H259984   5.800   5.979  12.029 -1.5717  0.3312  0.4268
12857TIP3   OH259985   6.261   0.738   3.235 -0.6771  0.5107 -0.0500
12857TIP3    H159986   6.302   0.722   3.320 -1.5506 -2.3756 -0.0666
12857TIP3    H259987   6.285   0.662   3.182 -2.7326  0.6897 -1.3391
12858TIP3   OH259988   6.296   1.611   3.962  0.0798 -0.3445  0.3108
12858TIP3    H159989   6.335   1.688   4.003 -0.4539 -0.7654  1.6796
12858TIP3    H259990   6.346   1.538   3.999  0.8436 -0.6677 -1.2638
12859TIP3   OH259991   4.162   6.079  13.052 -0.4210 -0.4738  0.6836
12859TIP3    H159992   4.231   6.104  12.990  0.5438  0.4354  2.0741
12859TIP3    H259993   4.088   6.135  13.029  1.3421  3.2187  3.0429
12860TIP3   OH259994   6.503   5.962  13.316  0.5508  0.6104 -0.1580
12860TIP3    H159995   6.519   6.011  13.235  1.3125  0.9341  0.1758
12860TIP3    H259996   6.427   5.908  13.297  0.2394  1.2726 -0.8303
12861TIP3   OH259997   1.685   1.964  10.924  0.4121 -0.4054  0.2170
12861TIP3    H159998   1.617   1.904  10.958 -0.0876  0.2523  0.4054
12861TIP3    H259999   1.672   1.963  10.829 -0.3905  0.3171  0.3061
12862TIP3   OH260000   6.380   3.432   0.712 -0.6423  0.2932 -0.5040
12862TIP3    H160001   6.309   3.467   0.658  0.7414 -0.4177 -2.9431
12862TIP3    H260002   6.445   3.502   0.715 -1.1100  0.6861  1.1262
12863TIP3   OH260003   3.067   0.737   4.016 -0.0433 -1.3927 -0.4684
12863TIP3    H160004   2.997   0.796   4.042 -1.0341 -2.1972 -1.2627
12863TIP3    H260005   3.116   0.721   4.097 -0.0081  0.1540 -0.1564
12864TIP3   OH260006   4.040   0.093  15.824  0.3595  0.6253 -0.0467
12864TIP3    H160007   4.089   0.018  15.859 -0.5714 -0.1842 -0.4266
12864TIP3    H260008   3.975   0.113  15.892 -0.8166 -0.3298 -0.8523
12865TIP3   OH260009   3.800   4.021   5.485 -0.2854 -0.0787  0.1365
12865TIP3    H160010   3.794   4.112   5.515 -0.3524 -0.4005  1.1355
12865TIP3    H260011   3.816   3.970   5.565  0.7076 -0.8510 -0.5285
12866TIP3   OH260012   0.845   0.519   4.434 -0.2673 -0.0776 -0.1705
12866TIP3    H160013   0.874   0.602   4.473  1.1185 -1.0164  0.9102
12866TIP3    H260014   0.784   0.482   4.497 -2.0233  0.7510 -1.3210
12867TIP3   OH260015   4.656   6.535   1.478 -0.4922 -0.5414 -0.3402
12867TIP3    H160016   4.588   6.597   1.504 -0.1221 -0.2041 -0.1510
12867TIP3    H260017   4.728   6.590   1.446  0.2841 -0.8096  0.8853
12868TIP3   OH260018   4.583   1.095   6.230 -0.5639  0.9053  0.1664
12868TIP3    H160019   4.631   1.032   6.176 -1.1044  1.6515 -1.2287
12868TIP3    H260020   4.580   1.055   6.317  0.2879 -0.3521 -0.3629
12869TIP3   OH260021   0.976   5.979  15.132  0.0067  0.0881  0.0340
12869TIP3    H160022   1.036   5.905  15.138 -0.6528 -0.5318 -0.8551
12869TIP3    H260023   0.893   5.945  15.164 -0.4215  0.3071 -0.8360
12870TIP3   OH260024   1.202   4.414  14.205  0.2069  1.1714  0.1309
12870TIP3    H160025   1.268   4.412  14.274  0.0207  0.7482  0.3013
12870TIP3    H260026   1.252   4.407  14.123  0.4024  1.3153  0.2381
12871TIP3   OH260027   3.054   3.916   2.486  0.8088  0.2733 -0.3758
12871TIP3    H160028   3.090   4.002   2.464 -2.3445  2.1367  1.1549
12871TIP3    H260029   3.074   3.905   2.579  1.6302 -0.9539 -0.6740
12872TIP3   OH260030   1.584   3.635   2.891 -1.0996 -0.0142 -0.7451
12872TIP3    H160031   1.592   3.676   2.805 -2.3371  1.2325 -0.2964
12872TIP3    H260032   1.673   3.632   2.925 -0.8109  0.9962 -1.3861
12873TIP3   OH260033   3.720   1.384  12.295  0.1499 -0.3244  0.0373
12873TIP3    H160034   3.784   1.337  12.349 -0.7889 -0.7143  0.8502
12873TIP3    H260035   3.667   1.433  12.358  0.4130  0.9749 -0.7174
12874TIP3   OH260036   3.654   1.036  16.722  0.1535  0.2142 -0.3224
12874TIP3    H160037   3.672   1.078  16.806 -1.3745  1.6592 -0.6700
12874TIP3    H260038   3.609   1.103  16.671  2.6865  0.0597 -3.0485
12875TIP3   OH260039   6.363   3.259   2.666  0.1719 -0.1877 -0.0856
12875TIP3    H160040   6.397   3.324   2.604  0.9374  0.9706  1.4534
12875TIP3    H260041   6.317   3.195   2.612 -0.7744  1.7201 -1.6950
12876TIP3   OH260042   4.195   2.853  12.867  0.4145  0.4587 -0.1799
12876TIP3    H160043   4.133   2.909  12.913  2.1298  1.7562  0.6586
12876TIP3    H260044   4.164   2.764  12.884 -1.3603  1.0523 -0.0692
12877TIP3   OH260045   6.001   5.233   3.574  0.3617 -0.3369  0.0759
12877TIP3    H160046   5.974   5.259   3.662  0.3423 -1.3171  0.3754
12877TIP3    H260047   6.047   5.310   3.540  3.7624 -1.0980  2.3756
12878TIP3   OH260048   0.905   0.725   1.620  0.5483  0.2092 -0.2318
12878TIP3    H160049   0.873   0.813   1.600  0.7222  0.5087  0.7414
12878TIP3    H260050   0.878   0.672   1.545 -0.4845  0.8662 -0.3461
12879TIP3   OH260051   1.721   5.052  15.966 -0.4628  0.1958  0.3532
12879TIP3    H160052   1.771   5.005  15.899 -0.4592 -0.8827  1.0921
12879TIP3    H260053   1.773   5.129  15.985 -0.1531  0.1965 -0.4315
12880TIP3   OH260054   6.473   4.420  15.079  0.5827 -0.0810 -0.1997
12880TIP3    H160055   6.516   4.360  15.019  1.4583 -1.1173  1.3900
12880TIP3    H260056   6.382   4.389  15.083  1.2665 -2.1491  1.4859
12881TIP3   OH260057   0.834   4.626  16.419  0.3248  0.5755  0.2039
12881TIP3    H160058   0.826   4.615  16.324 -1.2029  0.0297  0.3593
12881TIP3    H260059   0.910   4.573  16.443  0.8482  0.8877 -0.7339
12882TIP3   OH260060   6.052   0.272  13.718 -0.2018  0.1100  0.6956
12882TIP3    H160061   6.101   0.279  13.637 -0.7480 -0.0970  0.3407
12882TIP3    H260062   6.114   0.236  13.781  0.1656  0.0715  0.3138
12883TIP3   OH260063   6.657   0.286   3.920  0.7813  0.1893 -0.2321
12883TIP3    H160064   6.739   0.329   3.942 -0.1746  0.8146  2.4995
12883TIP3    H260065   6.658   0.280   3.824  4.1464 -0.2327 -0.2830
12884TIP3   OH260066   3.920   2.431  15.527  0.1937  0.1437  0.1079
12884TIP3    H160067   3.832   2.393  15.531 -0.0834  0.6692 -0.7167
12884TIP3    H260068   3.907   2.519  15.492  1.1867 -0.2614 -1.3590
12885TIP3   OH260069   3.508   3.232   3.845  0.5854 -0.3479  0.2636
12885TIP3    H160070   3.528   3.324   3.867  0.8207 -0.1872 -0.5888
12885TIP3    H260071   3.414   3.223   3.860  0.3564  0.3386 -0.6696
12886TIP3   OH260072   5.560   1.740  12.463 -0.5679 -0.5310  0.4331
12886TIP3    H160073   5.610   1.661  12.479 -0.1426 -0.0018  1.8276
12886TIP3    H260074   5.541   1.738  12.369  3.1772 -0.1212 -0.4886
12887TIP3   OH260075   3.272   2.124  11.624 -0.0695 -0.0594 -0.0805
12887TIP3    H160076   3.363   2.114  11.600 -0.7732 -2.8261 -2.0482
12887TIP3    H260077   3.263   2.074  11.706 -0.3040 -2.4602 -1.4626
12888TIP3   OH260078   6.717   2.952  16.669  0.5483  1.1037  0.3609
12888TIP3    H160079   6.639   2.907  16.637  1.5127 -0.2989 -0.1048
12888TIP3    H260080   6.683   3.027  16.717 -1.1357 -0.1842  1.2756
12889TIP3   OH260081   6.643   6.415   0.355 -0.2636  0.1903  0.0758
12889TIP3    H160082   6.676   6.505   0.350 -0.9823  0.3882 -1.3394
12889TIP3    H260083   6.710   6.369   0.405  1.3944  0.9494 -1.3319
12890TIP3   OH260084   1.698   2.967   6.013  0.1094  0.6162  0.0457
12890TIP3    H160085   1.689   2.974   6.108 -0.2900  2.8111 -0.0945
12890TIP3    H260086   1.617   3.005   5.978  0.4171  0.2000 -1.1826
12891TIP3   OH260087   3.352   3.749  14.338  0.1107  0.8883 -0.5151
12891TIP3    H160088   3.259   3.750  14.361  0.8650  1.1823  3.1370
12891TIP3    H260089   3.372   3.840  14.317 -0.0487  1.2240  0.7057
12892TIP3   OH260090   4.682   2.959  10.811 -0.7406 -0.3727  0.6636
12892TIP3    H160091   4.761   2.924  10.768 -0.0112  0.3977  1.3387
12892TIP3    H260092   4.690   3.054  10.802 -1.5128 -0.2816  0.8855
12893TIP3   OH260093   2.320   6.549  13.812  0.2872  0.0971  0.4439
12893TIP3    H160094   2.382   6.582  13.747 -0.0624 -1.7326 -0.9067
12893TIP3    H260095   2.374   6.529  13.888  0.9294  0.9681  0.2337
12894TIP3   OH260096   0.423   1.130   3.793  0.6817  0.1601  0.3121
12894TIP3    H160097   0.373   1.212   3.790  1.6170  0.7920  1.4934
12894TIP3    H260098   0.363   1.068   3.835 -0.5697 -0.2029 -1.8488
12895TIP3   OH260099   3.892   2.756   3.353  0.0772 -0.2732 -1.1773
12895TIP3    H160100   3.821   2.752   3.418 -0.7525  1.1183 -1.9474
12895TIP3    H260101   3.919   2.848   3.353  2.7938 -0.9824 -0.0089
12896TIP3   OH260102   5.132   0.549  11.226  0.3506  0.5103  0.1641
12896TIP3    H160103   5.057   0.609  11.230  0.4775  0.6565  0.4087
12896TIP3    H260104   5.127   0.511  11.139 -1.6141 -1.5978  1.0954
12897TIP3   OH260105   1.730   0.258   5.241 -0.6862  0.3487 -0.6108
12897TIP3    H160106   1.658   0.282   5.300  0.0119 -1.9444  1.3380
12897TIP3    H260107   1.716   0.166   5.221  1.3978 -0.0484 -0.5584
12898TIP3   OH260108   5.702   5.348   5.677  0.1345 -0.4711 -0.5309
12898TIP3    H160109   5.718   5.427   5.728  1.6594 -0.3673 -1.1268
12898TIP3    H260110   5.645   5.377   5.605 -0.4481 -0.2272  0.0153
12899TIP3   OH260111   3.299   1.107   6.447  0.0546 -0.6810  0.5794
12899TIP3    H160112   3.220   1.053   6.450  0.9315 -2.0980 -0.7804
12899TIP3    H260113   3.371   1.045   6.432  1.1449  0.7908 -0.6682
12900TIP3   OH260114   2.707   0.480   4.873  0.6328 -0.1606  0.2722
12900TIP3    H160115   2.662   0.479   4.788  0.1529 -1.4882  0.5325
12900TIP3    H260116   2.788   0.431   4.857  0.3624 -0.7407  0.6746
12901TIP3   OH260117   1.493   2.357   2.201 -0.2285 -0.3690 -0.1447
12901TIP3    H160118   1.420   2.300   2.178  0.4978 -0.7594 -1.6428
12901TIP3    H260119   1.513   2.336   2.292 -1.6949 -0.5518  0.1580
12902TIP3   OH260120   1.439   0.434   3.474  0.2357 -0.4354 -0.3555
12902TIP3    H160121   1.489   0.475   3.403  2.1014 -2.4767 -0.3094
12902TIP3    H260122   1.439   0.499   3.544  0.6863  0.5542 -1.2410
12903TIP3   OH260123   2.496   4.981   4.474  0.1954  1.0386  0.6892
12903TIP3    H160124   2.490   5.054   4.535 -1.0280  2.5409 -1.1260
12903TIP3    H260125   2.591   4.964   4.466  0.3923  1.1086  2.5752
12904TIP3   OH260126   3.311   3.874  15.673 -0.4437 -0.3156 -0.1729
12904TIP3    H160127   3.376   3.928  15.718  0.7897 -1.0708 -0.9864
12904TIP3    H260128   3.355   3.844  15.594 -1.4900 -1.5887 -0.3062
12905TIP3   OH260129   0.259   1.494  14.824 -0.4778 -0.3831 -0.0478
12905TIP3    H160130   0.236   1.503  14.732 -1.1198 -0.2290  0.1268
12905TIP3    H260131   0.316   1.417  14.827 -0.0497 -0.1047 -0.6391
12906TIP3   OH260132   6.648   4.251   0.100 -0.3048 -0.4286  0.3559
12906TIP3    H160133   6.663   4.160   0.124 -1.3088 -0.5209  0.6534
12906TIP3    H260134   6.560   4.253   0.063  0.4114  0.0878 -1.4350
12907TIP3   OH260135   1.079   1.040  12.592 -0.3016  0.1381  0.0895
12907TIP3    H160136   1.016   0.969  12.603 -1.6484  1.2853  0.0100
12907TIP3    H260137   1.158   0.997  12.560 -0.7935 -1.4362  0.8840
12908TIP3   OH260138   2.403   5.668  16.666  0.1288  0.1817 -0.3377
12908TIP3    H160139   2.323   5.636  16.709  0.2568  0.0024 -0.2330
12908TIP3    H260140   2.394   5.764  16.669 -0.9411  0.1613 -1.9642
12909TIP3   OH260141   3.187   1.011  17.181  0.0737  0.2583 -0.2539
12909TIP3    H160142   3.146   1.079  17.127 -1.1296 -1.0678 -1.0795
12909TIP3    H260143   3.281   1.024  17.168 -0.0945  1.9886 -0.0754
12910TIP3   OH260144   4.599   0.484   5.902 -0.0197  0.2253 -0.4839
12910TIP3    H160145   4.583   0.577   5.917  5.2029  1.5978 -1.3079
12910TIP3    H260146   4.582   0.471   5.808 -2.9959 -0.4479  0.0371
12911TIP3   OH260147   3.050   6.431  12.374  0.4221 -0.3267  0.3104
12911TIP3    H160148   3.025   6.523  12.366  0.0743 -0.3773  0.8000
12911TIP3    H260149   3.093   6.425  12.459 -2.2375 -1.2019  1.7159
12912TIP3   OH260150   2.628   3.297  15.841 -0.4500 -0.0811  0.1492
12912TIP3    H160151   2.679   3.354  15.899  1.5262 -0.2566 -1.2899
12912TIP3    H260152   2.577   3.357  15.786  1.1365  0.3399 -0.9325
12913TIP3   OH260153   2.080   5.344   1.886  0.7385 -0.8073 -0.4766
12913TIP3    H160154   2.066   5.411   1.819 -0.8486 -0.8762 -0.2391
12913TIP3    H260155   2.157   5.296   1.855 -0.0388 -0.9316 -2.3267
12914TIP3   OH260156   4.227   3.663   3.599  0.7652  0.1867 -0.4996
12914TIP3    H160157   4.259   3.581   3.638 -1.0607 -0.7062 -0.8007
12914TIP3    H260158   4.304   3.700   3.555  2.4081  0.2126  2.1617
12915TIP3   OH260159   4.176   4.564   0.414  0.4385 -0.1731  0.3466
12915TIP3    H160160   4.270   4.580   0.417  0.6204 -1.2441  1.7290
12915TIP3    H260161   4.141   4.612   0.490 -0.4218  1.6618 -1.1287
12916TIP3   OH260162   3.142   2.135   6.529 -0.0072  0.2990 -0.1642
12916TIP3    H160163   3.229   2.148   6.490  0.3704  1.0536  0.8630
12916TIP3    H260164   3.082   2.139   6.455  0.5759  2.9384 -0.6122
12917TIP3   OH260165   4.160   5.917   3.457 -0.6857  0.1561 -0.3142
12917TIP3    H160166   4.070   5.923   3.490 -0.4527  0.0284  0.3522
12917TIP3    H260167   4.156   5.848   3.391 -0.8626 -0.6225  0.4847
12918TIP3   OH260168   4.775   0.359   2.175  0.3177 -0.3417 -0.2248
12918TIP3    H160169   4.786   0.290   2.241 -1.2454  0.0001  0.4384
12918TIP3    H260170   4.837   0.427   2.200  0.4344 -0.6421  0.3122
12919TIP3   OH260171   0.976   2.633  14.215 -0.4280  0.3301  0.5865
12919TIP3    H160172   0.967   2.717  14.171 -2.7307  0.0582  0.4384
12919TIP3    H260173   0.991   2.655  14.307  1.8977  0.8739  0.1336
12920TIP3   OH260174   5.664   3.987   1.880 -0.0101 -0.3432  0.1756
12920TIP3    H160175   5.756   4.002   1.856  0.1850 -0.0563  1.0504
12920TIP3    H260176   5.644   4.059   1.940 -0.2416 -1.4404  1.4535
12921TIP3   OH260177   0.339   4.013  12.953  0.4744 -0.3095 -0.2377
12921TIP3    H160178   0.358   4.095  13.000 -2.1692  0.4244 -0.2915
12921TIP3    H260179   0.368   4.030  12.863  0.8479  0.1861 -0.0317
12922TIP3   OH260180   5.001   5.133   5.386  0.2347  0.0443 -0.1804
12922TIP3    H160181   4.998   5.229   5.384  1.1181  0.0939  0.2886
12922TIP3    H260182   5.064   5.113   5.455  1.2290 -0.8586 -1.3209
12923TIP3   OH260183   4.255   2.146  11.238 -0.0369  0.8670  0.2472
12923TIP3    H160184   4.257   2.058  11.201 -0.6337  0.2713  1.5801
12923TIP3    H260185   4.180   2.189  11.196  1.7916  1.6943 -2.3926
12924TIP3   OH260186   2.646   4.184   0.116  0.0839  0.1394 -0.3529
12924TIP3    H160187   2.614   4.095   0.128  1.2042 -0.1164  1.0027
12924TIP3    H260188   2.568   4.239   0.126 -0.5297 -0.6450 -0.7272
12925TIP3   OH260189   3.930   1.797   4.886  0.3364 -0.1592 -0.0324
12925TIP3    H160190   3.942   1.768   4.976 -0.3097 -0.4292 -0.0232
12925TIP3    H260191   3.990   1.870   4.875  0.9130 -0.5578  0.4081
12926TIP3   OH260192   0.073   3.898  12.972  0.1726  0.1797  0.5112
12926TIP3    H160193   0.042   3.872  13.059 -1.5753  0.7904  0.1218
12926TIP3    H260194   0.147   3.955  12.989  0.4674 -0.4961  1.5643
12927TIP3   OH260195   4.993   0.200   5.370 -0.0998  0.2985 -0.9352
12927TIP3    H160196   5.032   0.154   5.445  1.8153  0.2664 -1.8813
12927TIP3    H260197   4.908   0.230   5.402 -0.4531 -1.9072  0.4435
12928TIP3   OH260198   4.077   4.751  11.602 -0.1539  0.3624  0.5050
12928TIP3    H160199   4.133   4.808  11.655  0.8358 -0.6443  0.5632
12928TIP3    H260200   4.087   4.785  11.513 -0.2324  0.7977  0.6580
12929TIP3   OH260201   4.830   4.306   0.911  0.0783 -0.0721  0.1388
12929TIP3    H160202   4.768   4.379   0.910 -0.9415 -0.8849  1.0407
12929TIP3    H260203   4.806   4.253   0.834 -0.5596 -0.5302  0.6378
12930TIP3   OH260204   4.936   1.388  11.753 -0.0485  0.2859 -0.3403
12930TIP3    H160205   4.843   1.378  11.776 -0.6855 -0.1760 -2.8871
12930TIP3    H260206   4.936   1.440  11.673  1.9694  0.8627 -0.0321
12931TIP3   OH260207   3.113   5.228   3.389 -0.0887  0.2278  0.2555
12931TIP3    H160208   3.048   5.158   3.389 -0.0022  0.1474  0.8261
12931TIP3    H260209   3.075   5.296   3.332  0.0886 -0.5127 -0.7678
12932TIP3   OH260210   5.589   3.212  16.487  0.4240  0.3238  0.0211
12932TIP3    H160211   5.665   3.191  16.543  0.4470 -0.0800 -0.1554
12932TIP3    H260212   5.597   3.306  16.471  0.4861  0.4254  0.5934
12933TIP3   OH260213   4.812   6.416  14.640  0.3076 -0.2559  0.1777
12933TIP3    H160214   4.726   6.391  14.605  0.1867 -0.3065  0.5000
12933TIP3    H260215   4.857   6.333  14.654 -0.2047 -0.3472  1.5250
12934TIP3   OH260216   5.250   5.411   2.995  0.0814 -1.1059 -0.0553
12934TIP3    H160217   5.231   5.317   2.991 -0.5059 -0.9420 -3.3765
12934TIP3    H260218   5.344   5.415   3.012 -0.1839 -2.1695  2.1044
12935TIP3   OH260219   4.759   1.794  11.417  0.1212  0.2804 -0.2248
12935TIP3    H160220   4.829   1.858  11.429  1.0398 -0.6551 -0.4102
12935TIP3    H260221   4.757   1.779  11.322 -0.4601  0.4329 -0.2385
12936TIP3   OH260222   6.353   0.583  15.565 -0.2969  0.2967 -0.0224
12936TIP3    H160223   6.436   0.609  15.604 -0.2762 -2.4512  2.0628
12936TIP3    H260224   6.302   0.547  15.638 -2.3570 -0.3237 -1.6628
12937TIP3   OH260225   1.920   3.273  11.366 -0.4307 -0.5078 -0.3138
12937TIP3    H160226   1.991   3.248  11.425  0.5545  2.3474 -0.1042
12937TIP3    H260227   1.961   3.274  11.279 -0.2106  0.9104 -0.2229
12938TIP3   OH260228   5.881   2.653  16.306  0.3033 -0.3774  0.3071
12938TIP3    H160229   5.793   2.627  16.332  0.3785  1.5009  2.8228
12938TIP3    H260230   5.899   2.601  16.228 -2.4322 -1.9150  0.5602
12939TIP3   OH260231   0.127   2.275  16.471 -0.0946 -0.0311  0.2230
12939TIP3    H160232   0.187   2.209  16.506  0.7859  1.1862  1.1416
12939TIP3    H260233   0.077   2.230  16.404  0.5333 -1.5930  0.7627
12940TIP3   OH260234   3.488   1.013   3.402  0.0059 -0.5353 -0.5404
12940TIP3    H160235   3.513   1.066   3.326 -1.7797 -1.8275 -2.1125
12940TIP3    H260236   3.448   0.934   3.365 -0.9638 -1.2070  1.7464
12941TIP3   OH260237   2.380   5.969   1.278  0.1211 -0.5500  0.1419
12941TIP3    H160238   2.448   5.973   1.210  0.6293  0.2379  0.6826
12941TIP3    H260239   2.427   5.942   1.357 -0.4099 -1.1404  0.2612
12942TIP3   OH260240   6.697   0.226   1.179 -0.0252 -0.5786  0.0363
12942TIP3    H160241   6.727   0.256   1.264  1.4492  1.2820 -1.0516
12942TIP3    H260242   6.622   0.282   1.158 -0.0049 -0.6129 -0.1340
12943TIP3   OH260243   4.427   5.354   0.225 -0.3772 -0.4938 -0.2738
12943TIP3    H160244   4.406   5.420   0.292  0.4009 -0.9508  0.4331
12943TIP3    H260245   4.432   5.272   0.273  0.9653 -0.7118 -0.7546
12944TIP3   OH260246   5.447   5.051  15.290 -0.2051  0.1733 -0.1469
12944TIP3    H160247   5.475   5.013  15.374 -2.6607  2.2368  1.7516
12944TIP3    H260248   5.496   5.133  15.284 -0.1894  0.1267 -0.6635
12945TIP3   OH260249   0.014   3.007  16.409 -0.0008 -0.3679 -0.7338
12945TIP3    H160250   0.077   3.079  16.409  0.0135 -0.3763  0.0178
12945TIP3    H260251   0.004   2.983  16.501 -1.3322 -0.1597 -0.8000
12946TIP3   OH260252   6.002   2.851   1.370 -0.4066  0.3974 -0.0449
12946TIP3    H160253   5.957   2.767   1.375 -0.3853  0.2204 -2.1254
12946TIP3    H260254   6.027   2.860   1.278  2.4661  1.2031  0.7101
12947TIP3   OH260255   1.817   0.984   4.474 -0.5192  0.3386  0.1140
12947TIP3    H160256   1.789   0.997   4.383  1.8052  2.0228 -0.4704
12947TIP3    H260257   1.756   1.037   4.525 -1.0272  0.4744 -0.6155
12948TIP3   OH260258   5.904   1.821  10.338  0.0286  0.2919  0.2464
12948TIP3    H160259   5.982   1.832  10.393  0.5054  0.1909 -0.3959
12948TIP3    H260260   5.932   1.850  10.251 -0.3248 -0.8016 -0.2404
12949TIP3   OH260261   2.366   2.248   1.166 -0.5480 -0.1082 -0.2712
12949TIP3    H160262   2.452   2.288   1.168 -0.6949  0.2272 -0.6036
12949TIP3    H260263   2.307   2.318   1.139 -0.9077 -0.3681 -0.1779
12950TIP3   OH260264   4.237   2.015   1.707  0.5303 -0.3188  0.4098
12950TIP3    H160265   4.331   2.031   1.693  0.6179 -1.6814 -0.8680
12950TIP3    H260266   4.209   2.086   1.764  2.2121  0.4780  0.3196
12951TIP3   OH260267   2.259   2.385  15.993 -0.2338  0.2745  0.1258
12951TIP3    H160268   2.261   2.459  16.055  1.6884  0.5911 -0.2599
12951TIP3    H260269   2.312   2.414  15.919 -0.3253 -1.1093 -0.5131
12952TIP3   OH260270   3.832   3.699   1.471 -0.3374 -0.1991 -0.0599
12952TIP3    H160271   3.907   3.689   1.412  0.7672  1.2546  0.9998
12952TIP3    H260272   3.821   3.613   1.512  2.5247  0.1421  1.7138
12953TIP3   OH260273   2.966   2.898   5.817  0.0923  0.6598 -0.1220
12953TIP3    H160274   2.904   2.889   5.745 -0.0774  0.4045  0.0555
12953TIP3    H260275   3.049   2.920   5.775 -0.1600  1.2005 -0.3478
12954TIP3   OH260276   0.078   3.233  12.891 -0.0006  0.4201  0.0983
12954TIP3    H160277   0.056   3.247  12.799  2.7256  1.4649 -0.4875
12954TIP3    H260278   0.120   3.314  12.919  2.6236 -1.1444  1.1041
12955TIP3   OH260279   0.366   0.022   5.521  0.9075 -0.4940 -0.2169
12955TIP3    H160280   0.300   0.037   5.588  1.2422 -0.8422  0.1986
12955TIP3    H260281   0.381  -0.072   5.522  1.8825 -0.3520  0.1579
12956TIP3   OH260282   2.347   2.303  17.201 -0.5700  0.9486 -0.5278
12956TIP3    H160283   2.424   2.360  17.206 -0.4559  0.7435  0.0532
12956TIP3    H260284   2.333   2.291  17.107  0.4592  0.5100 -0.6421
12957TIP3   OH260285   4.219   0.734   2.084  0.2299 -0.4552  0.0208
12957TIP3    H160286   4.230   0.666   2.017 -1.2072  1.6654 -2.5820
12957TIP3    H260287   4.137   0.712   2.127 -1.4598  0.6667 -2.3715
12958TIP3   OH260288   5.745   1.328   0.127 -0.0706 -0.2476 -0.5227
12958TIP3    H160289   5.838   1.347   0.140 -0.5450  1.6302  0.4205
12958TIP3    H260290   5.700   1.409   0.151 -2.1004 -1.7331  1.1245
12959TIP3   OH260291   6.105   3.690  14.215 -0.1348 -0.6703 -0.1318
12959TIP3    H160292   6.130   3.708  14.124 -0.2634 -0.4128 -0.1146
12959TIP3    H260293   6.047   3.761  14.239  0.0042 -0.6658  0.1970
12960TIP3   OH260294   1.955   4.283  11.993 -0.2625 -0.4136 -0.1717
12960TIP3    H160295   2.001   4.302  11.911 -1.5238 -1.9397 -1.3024
12960TIP3    H260296   2.024   4.264  12.056  0.6965 -0.8439 -1.3214
12961TIP3   OH260297   0.920   1.402   3.232  0.3579  0.2466 -0.4981
12961TIP3    H160298   0.888   1.433   3.148 -1.1933 -0.6793 -0.2816
12961TIP3    H260299   0.906   1.475   3.292  1.4613  0.9066 -1.0030
12962TIP3   OH260300   5.697   6.670   1.284 -0.2459  0.1157 -0.1157
12962TIP3    H160301   5.639   6.745   1.280 -1.6930 -0.9353  0.1914
12962TIP3    H260302   5.743   6.679   1.367 -2.0070 -0.4249  0.9715
12963TIP3   OH260303   2.739   5.515   5.526 -0.0240 -0.2633  0.2032
12963TIP3    H160304   2.731   5.595   5.578  1.4231 -0.3778  0.6329
12963TIP3    H260305   2.734   5.444   5.591 -3.1559 -0.6761 -0.3361
12964TIP3   OH260306   2.444   2.388  11.937  0.1896 -0.4397 -0.6739
12964TIP3    H160307   2.530   2.399  11.978 -0.6310  0.9228  0.7712
12964TIP3    H260308   2.416   2.477  11.915 -0.1865 -0.9929 -2.6238
12965TIP3   OH260309   6.495   1.448  16.170  0.0417 -0.6090  0.1181
12965TIP3    H160310   6.531   1.425  16.256  0.5694  0.5976  0.2504
12965TIP3    H260311   6.561   1.507  16.132 -0.4857 -0.6233 -0.8431
12966TIP3   OH260312   5.362   6.690   4.978 -0.2937  0.1455  0.2836
12966TIP3    H160313   5.284   6.646   4.945  0.3584 -0.6432 -0.2328
12966TIP3    H260314   5.353   6.685   5.074 -1.6320  1.4510  0.2556
12967TIP3   OH260315   4.374   1.133   0.253 -0.4123 -0.1825  0.3057
12967TIP3    H160316   4.303   1.082   0.292 -1.9547 -0.0428 -2.0733
12967TIP3    H260317   4.330   1.212   0.219  1.5024  1.6062  1.7733
12968TIP3   OH260318   1.652   4.290   3.310 -0.5427 -0.5417  0.3015
12968TIP3    H160319   1.597   4.352   3.359 -0.4761  0.4575 -0.8737
12968TIP3    H260320   1.595   4.258   3.240 -0.8615 -2.4937  1.3818
12969TIP3   OH260321   5.857   2.296  12.310 -0.3773 -0.2348  0.1418
12969TIP3    H160322   5.870   2.390  12.319  0.2646 -0.3888  1.0381
12969TIP3    H260323   5.813   2.285  12.226 -1.6159  0.9525  0.6096
12970TIP3   OH260324   5.765   1.216  15.753 -0.0990 -0.6574  0.2349
12970TIP3    H160325   5.769   1.180  15.665 -0.4985 -0.8111  0.2755
12970TIP3    H260326   5.744   1.309  15.741 -0.2141 -0.6917  0.1660
12971TIP3   OH260327   4.629   6.215  14.836 -0.1117  0.4241 -0.0655
12971TIP3    H160328   4.625   6.302  14.876 -2.1606  0.7359 -0.8661
12971TIP3    H260329   4.659   6.158  14.907 -1.9258  1.2606  1.4612
12972TIP3   OH260330   1.292   4.571   4.643  0.0567  0.0269  0.2995
12972TIP3    H160331   1.254   4.648   4.685  2.4250  1.9970 -0.8444
12972TIP3    H260332   1.373   4.604   4.604  1.2854 -3.1467 -0.0844
12973TIP3   OH260333   4.722   1.310   2.910  0.4180  0.1701 -0.0800
12973TIP3    H160334   4.764   1.386   2.950 -1.6173  0.3003  1.9756
12973TIP3    H260335   4.753   1.236   2.961 -0.2792  0.0314  0.1438
12974TIP3   OH260336   3.984   2.384   2.264  0.0633  1.0672  0.4294
12974TIP3    H160337   3.905   2.436   2.254 -2.3234 -2.3093  0.1393
12974TIP3    H260338   4.005   2.354   2.176 -0.0609 -0.3084  0.8400
12975TIP3   OH260339   5.751   2.640   6.433 -0.2880  0.6124  0.0368
12975TIP3    H160340   5.690   2.713   6.426 -0.6669  0.3879  0.9631
12975TIP3    H260341   5.698   2.562   6.418  0.3036  0.5439 -2.0351
12976TIP3   OH260342   1.419   3.412   1.486  0.1278  0.2453  0.0600
12976TIP3    H160343   1.348   3.347   1.484  0.2460  0.1070  0.2715
12976TIP3    H260344   1.378   3.490   1.526 -0.0565  0.3561 -0.3391
12977TIP3   OH260345   1.153   2.401  12.882  0.1155 -0.1873 -0.1896
12977TIP3    H160346   1.168   2.329  12.943 -1.2543  0.4179  0.9114
12977TIP3    H260347   1.125   2.474  12.937 -0.6213  0.5559 -1.4975
12978TIP3   OH260348   0.213   6.590   5.688 -0.3393 -0.2851 -0.1924
12978TIP3    H160349   0.167   6.641   5.620  0.8246  0.4895 -0.4353
12978TIP3    H260350   0.239   6.656   5.753 -1.4600 -1.0251  1.0565
12979TIP3   OH260351   2.488   2.797   5.008 -0.0295 -0.3818 -0.0177
12979TIP3    H160352   2.479   2.844   5.091  0.7615  0.0347 -0.1603
12979TIP3    H260353   2.546   2.724   5.029 -0.5090 -0.7677 -0.0159
12980TIP3   OH260354   3.746   6.206   2.561 -0.4225 -0.2528  0.4203
12980TIP3    H160355   3.711   6.122   2.530  1.6517 -1.0746  0.1731
12980TIP3    H260356   3.756   6.195   2.655  0.6849 -0.6294  0.2693
12981TIP3   OH260357   6.292   2.933   3.225  0.5001  0.5827 -0.2902
12981TIP3    H160358   6.289   3.019   3.182  2.6524  0.8290 -0.0915
12981TIP3    H260359   6.346   2.948   3.303  0.4912 -0.8583  0.0126
12982TIP3   OH260360   6.240   3.435   2.118  0.4208 -0.1449 -0.3163
12982TIP3    H160361   6.312   3.499   2.121  0.2013  0.0939 -0.0259
12982TIP3    H260362   6.161   3.488   2.117 -0.0964 -0.1763  5.3639
12983TIP3   OH260363   0.931   0.849  15.356  0.6684  0.4855  0.0787
12983TIP3    H160364   0.924   0.878  15.447  0.0335  0.8322 -0.0732
12983TIP3    H260365   0.937   0.754  15.362 -2.2595  0.2066  0.4036
12984TIP3   OH260366   2.866   5.049  11.492 -0.6579 -0.0077 -0.0592
12984TIP3    H160367   2.869   5.129  11.544  0.4676  1.1044 -1.7176
12984TIP3    H260368   2.934   4.993  11.529 -0.7088  0.2615  0.4400
12985TIP3   OH260369   4.957   0.537  13.564  0.4522 -0.1987  0.3062
12985TIP3    H160370   4.951   0.583  13.648  1.5668  1.0038 -0.2259
12985TIP3    H260371   5.030   0.580  13.519 -2.6285  2.1176 -3.0165
12986TIP3   OH260372   0.387   6.206  13.387  0.9893 -0.5770 -0.3532
12986TIP3    H160373   0.314   6.151  13.359  1.5208 -1.0784 -0.7667
12986TIP3    H260374   0.410   6.257  13.309  0.2838  0.4876  0.1156
12987TIP3   OH260375   4.667   0.949  13.921  0.3329 -0.0488 -0.5595
12987TIP3    H160376   4.597   0.891  13.951 -0.3035  1.5543  1.3719
12987TIP3    H260377   4.621   1.023  13.882  0.8038  1.4697  1.5790
12988TIP3   OH260378   0.664   2.954   0.150 -0.3766  0.2936 -0.0489
12988TIP3    H160379   0.657   3.023   0.083 -1.7527  1.5823  1.3436
12988TIP3    H260380   0.601   2.888   0.123  0.1966  0.0488 -0.8335
12989TIP3   OH260381   1.251   2.651   3.954  0.4353 -0.1665 -0.9920
12989TIP3    H160382   1.335   2.642   3.999 -0.0634  0.3292  0.0662
12989TIP3    H260383   1.202   2.573   3.979  0.3302 -0.1162 -1.0409
12990TIP3   OH260384   6.539   6.097  14.845  0.1848 -0.3539 -0.2748
12990TIP3    H160385   6.503   6.015  14.881 -0.4250 -0.9040 -2.0244
12990TIP3    H260386   6.577   6.071  14.761 -2.9434  1.6274 -2.4862
12991TIP3   OH260387   0.559   4.893   4.993 -0.0939 -0.2825 -0.3452
12991TIP3    H160388   0.505   4.964   5.026  1.8445  1.0062  0.2233
12991TIP3    H260389   0.536   4.885   4.900  0.0348  1.4595 -0.5476
12992TIP3   OH260390   6.457   0.803  10.270 -0.4166  0.1425  0.4665
12992TIP3    H160391   6.383   0.749  10.241  1.1770 -1.9713  0.0945
12992TIP3    H260392   6.474   0.862  10.196 -1.4069  0.3183  0.3643
12993TIP3   OH260393   1.644   5.251  15.182  0.2407  0.3361 -0.3306
12993TIP3    H160394   1.613   5.341  15.169 -0.7125  0.1675  0.6067
12993TIP3    H260395   1.601   5.201  15.113  0.4817  0.5372 -0.6287
12994TIP3   OH260396   4.416   1.314   4.441 -0.2418  0.1070  0.1466
12994TIP3    H160397   4.373   1.229   4.449 -3.6894  1.6509 -0.4052
12994TIP3    H260398   4.401   1.340   4.350  0.7771  1.3238  0.3023
12995TIP3   OH260399   1.401   0.342   2.325 -0.0496 -0.4042  0.1404
12995TIP3    H160400   1.481   0.329   2.377 -0.6254  0.0384  1.1779
12995TIP3    H260401   1.430   0.391   2.248  0.8985 -1.4493 -0.1982
12996TIP3   OH260402   0.122   0.184  11.566 -0.3416 -0.2297  0.3749
12996TIP3    H160403   0.100   0.264  11.615  0.4241 -0.5501  1.2849
12996TIP3    H260404   0.187   0.140  11.621  0.9366 -0.3765 -1.1612
12997TIP3   OH260405   5.921   4.261   4.191  0.3510  0.1958 -0.4072
12997TIP3    H160406   5.881   4.286   4.108 -1.2618  0.1647  0.3249
12997TIP3    H260407   5.990   4.327   4.205  0.2594  0.5343 -1.4733
12998TIP3   OH260408   2.617   6.208   6.439  0.2565  0.5329  0.3750
12998TIP3    H160409   2.569   6.130   6.411 -0.0567  0.7240  0.3697
12998TIP3    H260410   2.691   6.213   6.379 -0.5541  1.0860 -0.6238
12999TIP3   OH260411   5.387   0.497   4.614 -0.1287 -0.1750 -0.4578
12999TIP3    H160412   5.342   0.561   4.559 -0.7391 -0.4587 -0.2913
12999TIP3    H260413   5.428   0.549   4.683  0.0999  0.1176 -0.8094
13000TIP3   OH260414   5.393   0.968   3.260  0.3692 -0.1597  0.1954
13000TIP3    H160415   5.376   0.933   3.347  0.6500 -0.1094  0.2711
13000TIP3    H260416   5.307   0.968   3.217  0.5245 -1.9608 -0.1936
13001TIP3   OH260417   3.827   0.949   5.106  0.7114  0.2146 -0.1976
13001TIP3    H160418   3.872   0.870   5.136  0.5769 -0.2143 -1.1154
13001TIP3    H260419   3.770   0.973   5.180  1.2444 -0.1620  0.3437
13002TIP3   OH260420   6.503   2.068   2.619  0.5229 -0.0270 -0.0740
13002TIP3    H160421   6.551   2.014   2.557  1.8245  0.9970 -0.0060
13002TIP3    H260422   6.445   2.122   2.565  0.5548 -0.1919 -0.2733
13003TIP3   OH260423   5.703   3.203  11.242 -0.3179 -0.0471 -0.2008
13003TIP3    H160424   5.730   3.285  11.283  1.9040 -0.6639 -0.2959
13003TIP3    H260425   5.766   3.189  11.172 -0.4325 -2.0131  0.0230
13004TIP3   OH260426   5.569   5.914   3.359 -0.3308  0.5265  0.3285
13004TIP3    H160427   5.577   5.936   3.452 -1.5174  0.2437  0.5133
13004TIP3    H260428   5.551   5.998   3.316  0.0399  0.6302  0.3708
13005TIP3   OH260429   0.991   5.287  12.996  0.0046 -0.5917  0.2459
13005TIP3    H160430   0.927   5.314  12.930 -0.1029 -1.2449  0.0649
13005TIP3    H260431   1.068   5.262  12.944  0.3239 -0.0410  0.4472
13006TIP3   OH260432   2.406   1.679  12.098  0.6693 -0.3370  0.1012
13006TIP3    H160433   2.343   1.738  12.139  2.0696  0.0487  1.8295
13006TIP3    H260434   2.424   1.719  12.013 -0.2119  0.4040  0.2407
13007TIP3   OH260435   4.313   3.078  16.481 -0.2905  0.2019  0.3661
13007TIP3    H160436   4.263   3.149  16.441 -1.1664 -0.4072  0.3393
13007TIP3    H260437   4.287   3.080  16.573  0.3693  0.4806  0.5485
13008TIP3   OH260438   4.989   6.393   0.557 -0.3951  0.1460  0.0806
13008TIP3    H160439   4.897   6.402   0.531  0.4162  2.5229 -2.5541
13008TIP3    H260440   5.015   6.480   0.585  0.7605 -0.7998  2.1401
13009TIP3   OH260441   4.044   2.682  15.765 -0.1792  0.3173  0.2149
13009TIP3    H160442   3.970   2.693  15.826 -0.5641  2.1242 -0.5039
13009TIP3    H260443   4.122   2.685  15.821 -0.5853  0.0171  0.8098
13010TIP3   OH260444   3.761   1.462  15.814  0.2574  0.2740  0.0241
13010TIP3    H160445   3.693   1.509  15.765  1.0649 -1.3424 -2.8406
13010TIP3    H260446   3.720   1.379  15.838  0.7357 -0.1071 -0.4491
13011TIP3   OH260447   4.486   1.863  17.210  0.2120  0.0174 -0.2373
13011TIP3    H160448   4.544   1.810  17.265  0.5259  2.2095  1.6901
13011TIP3    H260449   4.403   1.816  17.212  1.1149 -1.6781 -0.6858
13012TIP3   OH260450   1.407   0.660   2.549 -0.2717  0.3500  0.2143
13012TIP3    H160451   1.421   0.638   2.457  0.9030  0.3541  0.3825
13012TIP3    H260452   1.365   0.582   2.586  0.4935 -0.1857 -0.0225
13013TIP3   OH260453   2.398   0.662   2.796 -0.0671 -0.0369 -0.3265
13013TIP3    H160454   2.317   0.613   2.804  0.8173 -1.7639 -1.3361
13013TIP3    H260455   2.382   0.744   2.843 -0.8701 -2.1532  3.4644
13014TIP3   OH260456   5.023   1.927  16.959 -0.5234  0.0146 -0.2926
13014TIP3    H160457   5.107   1.883  16.973 -0.8859 -0.6162 -0.0704
13014TIP3    H260458   4.993   1.951  17.047  0.4558  2.2491 -0.4892
13015TIP3   OH260459   4.392   4.873   1.684 -0.3209  0.3252  0.6624
13015TIP3    H160460   4.469   4.906   1.730 -0.9101  2.0273  0.4911
13015TIP3    H260461   4.321   4.881   1.747 -0.4943 -0.6955  0.6250
13016TIP3   OH260462   0.875   4.125   3.252  0.1056  0.0972 -0.2754
13016TIP3    H160463   0.919   4.091   3.330 -0.3547 -2.2081 -0.9521
13016TIP3    H260464   0.809   4.186   3.286  2.3236  2.0446  0.8738
13017TIP3   OH260465   1.411   0.375  13.104 -0.3530  0.3743 -0.0380
13017TIP3    H160466   1.490   0.420  13.132 -0.4919  1.1172 -0.8120
13017TIP3    H260467   1.442   0.290  13.071  0.0462  0.3944  0.2832
13018TIP3   OH260468   3.697   5.386   2.032  0.2490 -0.2885 -0.1163
13018TIP3    H160469   3.789   5.365   2.018  0.4403  1.0507 -1.0004
13018TIP3    H260470   3.662   5.404   1.945  0.2322  3.3163  0.4618
13019TIP3   OH260471   4.694   5.816   2.268  0.3066  0.0502 -0.7466
13019TIP3    H160472   4.658   5.757   2.201  0.5094  0.7652 -1.4982
13019TIP3    H260473   4.749   5.760   2.322  1.6882 -0.1972 -2.3365
13020TIP3   OH260474   2.410   3.174   1.724  0.8594 -0.0899 -0.6546
13020TIP3    H160475   2.433   3.207   1.810  1.5269 -0.9985 -0.4653
13020TIP3    H260476   2.485   3.194   1.669  0.4918  0.3673 -0.9935
13021TIP3   OH260477   1.659   6.096  15.468  0.6996 -0.0567 -0.0110
13021TIP3    H160478   1.592   6.030  15.453  1.3669 -0.7633  0.0564
13021TIP3    H260479   1.690   6.079  15.557  0.2065  0.9717  0.3744
13022TIP3   OH260480   0.506   2.107  15.715 -0.1565 -0.0547  0.4228
13022TIP3    H160481   0.540   2.017  15.711  0.8304  0.2756  1.0694
13022TIP3    H260482   0.499   2.125  15.809 -2.9584 -0.3945  0.3811
13023TIP3   OH260483   5.572   4.332   2.187 -0.6987  0.3863 -0.6747
13023TIP3    H160484   5.488   4.286   2.180 -0.0737 -0.8266 -0.4914
13023TIP3    H260485   5.573   4.367   2.277 -0.9158  0.2211 -0.6077
13024TIP3   OH260486   3.301   3.318  16.183  0.6097  0.6435  0.2683
13024TIP3    H160487   3.362   3.375  16.137 -0.5979  2.3011  0.6248
13024TIP3    H260488   3.284   3.364  16.266 -0.8785  0.0900  0.2969
13025TIP3   OH260489   5.279   1.041   3.608 -0.1288 -0.0723  0.7604
13025TIP3    H160490   5.298   1.127   3.570  0.1565 -0.6300 -0.3772
13025TIP3    H260491   5.334   1.037   3.686 -0.8820  1.1739  1.3914
13026TIP3   OH260492   4.371   1.423   0.506  0.1414 -0.2137  0.1610
13026TIP3    H160493   4.375   1.418   0.410  1.1417 -1.9943  0.2394
13026TIP3    H260494   4.280   1.400   0.527 -0.2175  0.6809 -0.3563
13027TIP3   OH260495   5.346   0.891  10.897  0.1416  0.3670  0.2854
13027TIP3    H160496   5.350   0.979  10.858  0.1302 -0.4550 -1.6709
13027TIP3    H260497   5.254   0.879  10.921  0.0850  0.7781  0.2808
13028TIP3   OH260498   5.505   6.668  14.698  0.4579 -0.1266 -1.0206
13028TIP3    H160499   5.461   6.740  14.654  1.4428  0.9411 -0.3212
13028TIP3    H260500   5.596   6.696  14.704  0.4091 -0.3009  1.5064
13029TIP3   OH260501   5.092   0.649  14.753 -0.1517 -0.5622 -0.2443
13029TIP3    H160502   5.141   0.724  14.784 -0.2629 -0.0230 -1.3385
13029TIP3    H260503   5.126   0.632  14.665 -0.7445 -1.2323 -0.3549
13030TIP3   OH260504   4.625   6.770  14.297 -0.2084 -0.0062  0.1018
13030TIP3    H160505   4.603   6.821  14.375 -2.4720  0.9555 -1.0770
13030TIP3    H260506   4.623   6.832  14.225  1.7336 -0.8986 -0.7939
13031TIP3   OH260507   0.765   5.919  11.221 -0.1550  0.1098 -0.1948
13031TIP3    H160508   0.828   5.860  11.180 -1.2223 -1.6551  0.5476
13031TIP3    H260509   0.812   6.000  11.235  0.4677  0.6723 -4.3135
13032TIP3   OH260510   6.763   5.897   4.130  0.2736  0.0922 -0.5878
13032TIP3    H160511   6.763   5.874   4.223  0.3745  2.6622  0.1141
13032TIP3    H260512   6.703   5.834   4.090 -0.6073 -0.4101  1.4061
13033TIP3   OH260513   0.823   5.811   3.381 -0.5064  0.0788  0.2047
13033TIP3    H160514   0.866   5.832   3.298  0.4364 -0.1216  0.6287
13033TIP3    H260515   0.880   5.746   3.422 -1.8493 -1.1237  0.2419
13034TIP3   OH260516   5.523   2.923  12.989  0.3123 -0.0224 -0.1877
13034TIP3    H160517   5.493   3.004  12.948  0.6235  0.4966  0.5702
13034TIP3    H260518   5.538   2.947  13.081  0.8615 -0.8231 -0.0533
13035TIP3   OH260519   1.498   5.837  15.715 -0.0254  0.2505  0.4505
13035TIP3    H160520   1.515   5.910  15.775  1.7617 -0.2158  0.5738
13035TIP3    H260521   1.583   5.794  15.705 -0.5921 -0.5632 -1.2792
13036TIP3   OH260522   0.336   4.336  16.753 -0.0707 -1.2600  0.0692
13036TIP3    H160523   0.407   4.392  16.720 -2.0101  0.3134 -1.6991
13036TIP3    H260524   0.338   4.347  16.848  0.7182  0.4202 -0.1168
13037TIP3   OH260525   2.787   2.722   2.147  0.1419 -0.8477  0.0591
13037TIP3    H160526   2.693   2.703   2.135  0.0704 -1.6445  1.6309
13037TIP3    H260527   2.824   2.715   2.059 -1.6166  1.6862 -1.0039
13038TIP3   OH260528   2.556   2.769  13.210 -0.2075 -0.4430  0.1580
13038TIP3    H160529   2.633   2.825  13.208 -0.1142 -0.5717  0.1193
13038TIP3    H260530   2.562   2.716  13.130 -0.8539  0.2352 -0.3546
13039TIP3   OH260531   5.904   3.240  15.618  0.1854 -0.1215  0.1647
13039TIP3    H160532   5.900   3.333  15.599  0.9244  0.5155  2.7353
13039TIP3    H260533   5.820   3.219  15.659 -0.1550 -0.7122 -0.8021
13040TIP3   OH260534   5.274   3.959  13.975  0.4935  0.4836 -0.6664
13040TIP3    H160535   5.357   3.960  13.928  0.0770 -2.1272 -1.5978
13040TIP3    H260536   5.219   3.898  13.927 -1.1048  0.1976  1.3696
13041TIP3   OH260537   4.038   0.735  14.745 -0.2298  0.3343 -0.3187
13041TIP3    H160538   4.020   0.716  14.653 -0.3278  2.4180 -0.7850
13041TIP3    H260539   4.032   0.830  14.751  0.9686  0.3403  1.5972
13042TIP3   OH260540   3.327   0.409   2.337  0.3857 -0.1468 -0.1967
13042TIP3    H160541   3.271   0.486   2.326  1.2539  0.3109 -1.8428
13042TIP3    H260542   3.396   0.421   2.271  0.4435 -2.4115 -0.6255
13043TIP3   OH260543   6.549   0.173   3.129  0.4393 -0.7672  0.0919
13043TIP3    H160544   6.576   0.199   3.040  1.6266 -1.4779  0.2204
13043TIP3    H260545   6.470   0.224   3.146  1.0094  0.4812 -0.8122
13044TIP3   OH260546   4.311   4.189  11.677 -0.5200 -0.2211 -0.7662
13044TIP3    H160547   4.377   4.147  11.730 -1.0428 -1.2949 -0.9347
13044TIP3    H260548   4.229   4.178  11.725 -0.6145  1.0383 -0.5824
13045TIP3   OH260549   4.978   2.325   6.171 -0.1309  0.3358  0.3067
13045TIP3    H160550   4.998   2.393   6.234 -0.7892  1.1031 -0.2838
13045TIP3    H260551   4.931   2.258   6.221  0.9675  0.0621  0.9955
13046TIP3   OH260552   5.445   4.894   2.505 -0.2447 -0.3103 -0.2953
13046TIP3    H160553   5.352   4.917   2.502  0.1712  1.4293 -3.0790
13046TIP3    H260554   5.474   4.923   2.592 -1.8159  1.2478 -0.2502
13047TIP3   OH260555   5.761   0.105  11.452  0.5474 -0.4057  0.8324
13047TIP3    H160556   5.709   0.038  11.495  0.3014  0.3675  1.7632
13047TIP3    H260557   5.830   0.127  11.515  1.4925 -0.7839 -0.0282
13048TIP3   OH260558   0.371   5.162   0.498 -0.1473 -0.8289  0.0225
13048TIP3    H160559   0.426   5.239   0.512  0.3103 -1.2433  0.4889
13048TIP3    H260560   0.349   5.131   0.585 -3.3145  0.8444 -0.0197
13049TIP3   OH260561   3.781   4.738   2.546 -0.0937 -0.1985  0.4213
13049TIP3    H160562   3.711   4.675   2.563  0.2729 -0.3792  1.2801
13049TIP3    H260563   3.859   4.684   2.535 -0.1033 -0.0072 -0.6772
13050TIP3   OH260564   0.075   5.883  15.202 -0.0639  0.5338  0.0102
13050TIP3    H160565  -0.020   5.885  15.196 -0.0868  0.9100  0.3944
13050TIP3    H260566   0.095   5.806  15.254 -0.1462  0.3296 -0.2598
13051TIP3   OH260567   2.952   1.319  11.687  0.3185  0.4665  0.3976
13051TIP3    H160568   2.920   1.399  11.646 -0.6372 -0.1030  0.0104
13051TIP3    H260569   2.915   1.320  11.775  0.1994  0.3791  0.3480
13052TIP3   OH260570   1.994   3.666   5.338  0.0303  0.4755 -0.3204
13052TIP3    H160571   1.973   3.574   5.357 -1.6141  0.6341 -1.1931
13052TIP3    H260572   2.028   3.700   5.421  0.0752 -0.7572  0.1937
13053TIP3   OH260573   5.680   3.916  12.069  0.2523  0.4439 -0.0788
13053TIP3    H160574   5.728   3.866  12.003 -1.5900 -0.7868 -0.5371
13053TIP3    H260575   5.700   3.872  12.152  2.4937  1.9375  0.2690
13054TIP3   OH260576   1.190   3.715   4.005 -0.4642 -0.3036 -0.0930
13054TIP3    H160577   1.208   3.635   3.956 -0.1247 -0.1209 -0.2684
13054TIP3    H260578   1.267   3.769   3.992 -0.2918 -0.3226  0.7987
13055TIP3   OH260579   4.407   5.556   5.757  0.1072  0.1564  0.0029
13055TIP3    H160580   4.366   5.622   5.701  1.2589 -0.1170 -1.2449
13055TIP3    H260581   4.354   5.477   5.744 -0.6668  0.5539  0.6953
13056TIP3   OH260582   5.779   4.356   4.787  0.1490  0.0913 -0.2201
13056TIP3    H160583   5.761   4.419   4.717  0.5982  2.6314  1.7788
13056TIP3    H260584   5.713   4.374   4.853  1.9393  0.4433  1.5802
13057TIP3   OH260585   4.287   3.576   3.197  0.6201 -0.1349 -0.2720
13057TIP3    H160586   4.368   3.557   3.245  0.6479 -0.4785 -0.4493
13057TIP3    H260587   4.279   3.671   3.200  0.9851 -0.1048 -0.1815
13058TIP3   OH260588   4.677   6.062   5.374  0.0087  0.1099  0.0938
13058TIP3    H160589   4.704   6.152   5.356  1.3767 -0.3186 -0.0713
13058TIP3    H260590   4.595   6.051   5.325  0.7302  0.7250 -1.2812
13059TIP3   OH260591   4.255   6.583  10.420  0.3634 -0.0485 -0.0119
13059TIP3    H160592   4.319   6.648  10.390  1.1769 -0.3017  1.1221
13059TIP3    H260593   4.209   6.625  10.492  1.4631 -0.9946  1.2774
13060TIP3   OH260594   6.107   2.347   0.719  0.4202 -0.0785  0.0005
13060TIP3    H160595   6.057   2.337   0.800 -0.5703 -1.8054 -0.7675
13060TIP3    H260596   6.191   2.303   0.737  0.0640 -0.7762 -0.0126
13061TIP3   OH260597   6.318   5.592   3.017  0.5559 -1.0947  0.0098
13061TIP3    H160598   6.259   5.614   2.945 -0.9163  2.0362  1.9546
13061TIP3    H260599   6.260   5.575   3.091  1.9582  0.7168  1.6510
13062TIP3   OH260600   6.394   5.984   0.287  0.4832  0.0278  0.2961
13062TIP3    H160601   6.455   6.025   0.224  0.5439 -0.6234 -0.0743
13062TIP3    H260602   6.333   5.935   0.232 -1.4847  2.0530  0.5342
13063TIP3   OH260603   0.519   3.471  12.851  0.4662 -0.3999 -0.3147
13063TIP3    H160604   0.494   3.443  12.763 -2.3776 -1.6299  0.7758
13063TIP3    H260605   0.471   3.554  12.864 -0.4698 -1.0595  0.6146
13064TIP3   OH260606   3.471   6.035  13.656 -0.1394  0.9327  0.3912
13064TIP3    H160607   3.380   6.051  13.630 -0.3518 -2.4406 -1.5608
13064TIP3    H260608   3.522   6.057  13.578  0.2645 -0.6495  0.1743
13065TIP3   OH260609   1.774   0.501   1.948  0.1704 -0.3796  0.0306
13065TIP3    H160610   1.785   0.566   1.879 -2.7529 -0.5411 -0.7469
13065TIP3    H260611   1.802   0.545   2.028 -0.7928  1.5050 -0.6155
13066TIP3   OH260612   4.298   6.144  15.627  0.5291 -0.6293 -0.3268
13066TIP3    H160613   4.380   6.154  15.580  0.4735  0.6983 -0.1776
13066TIP3    H260614   4.242   6.214  15.593  0.0176 -0.5038  0.7202
13067TIP3   OH260615   1.972   2.173   5.493  0.4576 -0.4184  0.3991
13067TIP3    H160616   1.895   2.126   5.523  0.1128  0.5083  1.0187
13067TIP3    H260617   1.944   2.217   5.413  0.5400 -0.5917  0.2729
13068TIP3   OH260618   2.083   5.199  13.463 -0.2406 -0.1064 -0.7563
13068TIP3    H160619   2.082   5.285  13.505  0.7297 -0.6002  0.3255
13068TIP3    H260620   2.093   5.138  13.535  0.7356 -1.0377 -1.6519
13069TIP3   OH260621   3.162   6.556  14.015  0.0700  0.2943 -0.2248
13069TIP3    H160622   3.135   6.474  14.057  0.8787 -0.0548 -0.3607
13069TIP3    H260623   3.245   6.579  14.057  0.3360  0.5234 -0.8568
13070TIP3   OH260624   0.961   5.635   5.597  0.5893  0.1997 -0.3078
13070TIP3    H160625   1.006   5.553   5.574 -1.5992 -1.6851  1.6224
13070TIP3    H260626   1.002   5.662   5.680 -1.8725 -1.8196  1.7525
13071TIP3   OH260627   1.033   4.765   0.852  0.4845 -0.0171 -0.0477
13071TIP3    H160628   0.966   4.833   0.856 -1.3486 -1.7414  0.3336
13071TIP3    H260629   1.112   4.811   0.825  0.1285  2.7921  3.0885
13072TIP3   OH260630   1.954   3.105  11.941 -0.1805 -0.1309 -0.2528
13072TIP3    H160631   1.859   3.098  11.952 -0.1760  0.3999  0.1789
13072TIP3    H260632   1.969   3.086  11.848 -0.8613  1.1024 -0.6365
13073TIP3   OH260633   6.567   0.749   0.948  0.0447 -0.7545  0.2141
13073TIP3    H160634   6.472   0.738   0.944 -0.0759  0.3823 -0.4404
13073TIP3    H260635   6.595   0.747   0.856  0.3042  1.5321  0.1921
13074TIP3   OH260636   1.127   6.412   1.756 -0.3024  0.0087 -0.5099
13074TIP3    H160637   1.196   6.455   1.807  0.4096 -0.2541 -1.2424
13074TIP3    H260638   1.172   6.372   1.683 -1.5881  2.9887 -3.1732
13075TIP3   OH260639   0.285   3.231   2.342  0.0411 -0.1047  0.0548
13075TIP3    H160640   0.229   3.153   2.336 -0.8850  0.4956  0.6013
13075TIP3    H260641   0.287   3.251   2.436  2.8047 -1.2415  0.3192
13076TIP3   OH260642   3.382   2.120   1.176  0.7856  0.5177  0.6653
13076TIP3    H160643   3.463   2.116   1.228 -0.2175  2.8056  2.6071
13076TIP3    H260644   3.386   2.205   1.132  1.6787 -1.3833 -3.4397
13077TIP3   OH260645   3.486   2.328  12.070  0.4495  0.4029  0.6696
13077TIP3    H160646   3.438   2.320  11.987 -0.8813  1.1301  1.3473
13077TIP3    H260647   3.455   2.410  12.108  1.2276  0.1984  1.7835
13078TIP3   OH260648   5.163   4.298   1.641 -0.5727  0.2834  0.5372
13078TIP3    H160649   5.088   4.273   1.586 -0.0506  0.9117 -0.4801
13078TIP3    H260650   5.125   4.311   1.728 -1.5481  0.0268  0.1675
13079TIP3   OH260651   0.823   6.655   3.628 -0.1716 -0.2522  0.4426
13079TIP3    H160652   0.907   6.693   3.655 -0.2750  0.0618  0.3291
13079TIP3    H260653   0.790   6.612   3.707 -0.7835  1.2184  1.0310
13080TIP3   OH260654   2.405   2.455  14.212 -0.4341 -0.3508  0.1014
13080TIP3    H160655   2.341   2.517  14.178  0.2700  1.1869  1.4201
13080TIP3    H260656   2.352   2.381  14.244 -1.5897  0.8339  1.0685
13081TIP3   OH260657   4.453   0.554  14.177  0.0200 -0.1413 -0.8063
13081TIP3    H160658   4.432   0.505  14.257  1.9746  1.4620  0.7989
13081TIP3    H260659   4.368   0.588  14.148 -0.6217  0.1275  1.2129
13082TIP3   OH260660   1.593   5.761  13.233  0.9148 -0.3578 -0.1119
13082TIP3    H160661   1.609   5.838  13.179  1.8042 -0.1093  0.4719
13082TIP3    H260662   1.514   5.721  13.196 -0.6764  1.8549  0.7500
13083TIP3   OH260663   2.191   2.050  15.193  0.1760 -0.2968  0.1624
13083TIP3    H160664   2.187   1.969  15.244  0.5569  0.0771  0.7995
13083TIP3    H260665   2.270   2.040  15.140 -0.7360 -1.1050 -1.1090
13084TIP3   OH260666   1.083   1.277   4.831  0.5450  0.2882 -0.2193
13084TIP3    H160667   1.058   1.195   4.873 -0.4791  0.7158  0.0337
13084TIP3    H260668   1.176   1.265   4.808  0.6319 -0.6180  0.5504
13085TIP3   OH260669   4.456   2.469   2.263 -0.1833  0.1847 -0.3705
13085TIP3    H160670   4.416   2.389   2.227  0.5587  0.4931 -1.9949
13085TIP3    H260671   4.541   2.440   2.297 -0.2343  0.1605 -0.2622
13086TIP3   OH260672   1.444   5.427   3.171  0.0254  0.0387  0.0335
13086TIP3    H160673   1.518   5.461   3.222 -0.6795  0.4489  0.7919
13086TIP3    H260674   1.425   5.342   3.210  0.4357 -0.3127 -0.5142
13087TIP3   OH260675   6.773   5.766  16.376  0.1666 -0.0644  0.0668
13087TIP3    H160676   6.852   5.740  16.423  0.0396 -0.8693 -0.1534
13087TIP3    H260677   6.802   5.781  16.286  0.1885  0.2984  0.1339
13088TIP3   OH260678   4.845   5.011   5.205  0.2387 -0.0941 -0.4181
13088TIP3    H160679   4.902   5.070   5.255 -0.2696  0.2006 -0.1799
13088TIP3    H260680   4.762   5.014   5.251  0.2274 -1.0677 -0.3637
13089TIP3   OH260681   2.772   4.132   6.011 -0.2992 -0.7931  0.4875
13089TIP3    H160682   2.780   4.127   5.916 -1.3257 -2.3507  0.4456
13089TIP3    H260683   2.768   4.041   6.040  1.8628 -0.4276  2.2276
13090TIP3   OH260684   1.494   6.206   4.419 -0.2880  0.9027 -0.7199
13090TIP3    H160685   1.450   6.121   4.411  0.0300  0.7343 -0.6770
13090TIP3    H260686   1.450   6.248   4.493  1.6358 -0.5187  1.3671
13091TIP3   OH260687   5.941   2.006   3.483 -0.2776  0.4359 -0.0376
13091TIP3    H160688   5.848   1.989   3.496 -0.8798  3.6261  0.8755
13091TIP3    H260689   5.945   2.061   3.405  0.8324  0.3543 -0.0563
13092TIP3   OH260690   5.462   4.772   5.581 -0.3684 -0.5966  0.2800
13092TIP3    H160691   5.482   4.860   5.612  1.7098 -0.4701 -1.2078
13092TIP3    H260692   5.518   4.715   5.634 -2.0994 -1.1278  1.6103
13093TIP3   OH260693   6.170   3.407  14.143  0.8558  0.3896  0.4066
13093TIP3    H160694   6.147   3.475  14.206  0.7180 -0.8007  1.7105
13093TIP3    H260695   6.090   3.393  14.093 -0.6111 -1.8311  3.1059
13094TIP3   OH260696   0.696   4.834  11.016  0.3084  0.1978  0.4336
13094TIP3    H160697   0.622   4.826  11.076  1.5534  0.1329  2.0314
13094TIP3    H260698   0.660   4.811  10.930 -1.0319 -1.9694  1.4781
13095TIP3   OH260699   5.602   3.567   0.448  0.2430  0.3087  0.4377
13095TIP3    H160700   5.637   3.643   0.495 -0.4083  0.6901  0.3084
13095TIP3    H260701   5.510   3.564   0.472  0.2715 -0.4848  0.4882
13096TIP3   OH260702   2.364   5.519  15.028  0.0316 -0.3271  0.2746
13096TIP3    H160703   2.284   5.467  15.024  0.7112 -1.3604 -2.0206
13096TIP3    H260704   2.355   5.583  14.957  0.8844  0.0697  0.5023
13097TIP3   OH260705   3.961   1.518   2.193  0.3266 -0.6533 -0.5953
13097TIP3    H160706   3.910   1.586   2.148  1.7717  0.4890 -0.5705
13097TIP3    H260707   3.900   1.480   2.255 -0.4724  0.7886 -0.4523
13098TIP3   OH260708   4.262   4.371  14.017  0.0789 -0.0947  0.2335
13098TIP3    H160709   4.297   4.284  14.001  1.9008  0.6325  0.0463
13098TIP3    H260710   4.256   4.377  14.112  0.2068 -0.3246  0.2558
13099TIP3   OH260711   5.277   3.665  15.384 -0.2238 -0.1797 -0.4543
13099TIP3    H160712   5.197   3.638  15.338  0.1293  0.6523 -1.6011
13099TIP3    H260713   5.265   3.759  15.398  1.4179  0.3981 -2.5034
13100TIP3   OH260714   3.620   2.147   1.254 -0.1728  0.1903  0.1326
13100TIP3    H160715   3.689   2.192   1.304 -0.0177  1.1887 -0.9232
13100TIP3    H260716   3.649   2.056   1.250  0.6426  0.4271  0.4325
13101TIP3   OH260717   3.572   2.961   3.496  0.4464  0.4317  0.3647
13101TIP3    H160718   3.607   3.011   3.423 -0.5123 -1.4372 -1.4936
13101TIP3    H260719   3.622   2.879   3.496  0.0992  0.1950  1.5147
13102TIP3   OH260720   4.309   5.669   5.053  0.5876  0.1931  0.4449
13102TIP3    H160721   4.301   5.701   4.963 -0.6935  0.3545  0.5938
13102TIP3    H260722   4.285   5.576   5.047  1.4886 -0.0508  0.4716
13103TIP3   OH260723   6.728   3.585  13.760  0.1860 -0.3196  0.3624
13103TIP3    H160724   6.672   3.529  13.813  0.7035 -1.9719 -0.7273
13103TIP3    H260725   6.805   3.601  13.814 -0.0230 -0.5691  0.7371
13104TIP3   OH260726   2.401   0.119   6.177  0.5627 -0.2367 -0.0632
13104TIP3    H160727   2.475   0.058   6.180  0.4776 -0.3227  0.2994
13104TIP3    H260728   2.333   0.077   6.230 -0.8657 -1.6143 -2.7296
13105TIP3   OH260729   3.534   1.188   5.387 -0.6863  0.2991  0.9726
13105TIP3    H160730   3.488   1.164   5.306  1.0555  0.5379 -0.1284
13105TIP3    H260731   3.506   1.278   5.405 -1.7315 -0.0428  1.1387
13106TIP3   OH260732   5.513   1.655  11.491  0.5719 -0.2638  0.0142
13106TIP3    H160733   5.474   1.727  11.442 -2.3161 -1.5952  0.1305
13106TIP3    H260734   5.551   1.598  11.424 -0.9195 -0.6974 -0.5054
13107TIP3   OH260735   4.871   1.669  17.221 -0.4522 -0.3687 -0.2375
13107TIP3    H160736   4.836   1.691  17.135  0.6884 -1.4109 -0.9954
13107TIP3    H260737   4.930   1.595  17.205  0.6365  0.1222  1.2683
13108TIP3   OH260738   6.549   5.680  13.736 -0.2544 -0.1293  0.2491
13108TIP3    H160739   6.504   5.596  13.747  0.6552 -0.3700  2.6331
13108TIP3    H260740   6.485   5.735  13.689 -2.1445 -1.1776  1.4557
13109TIP3   OH260741   0.023   1.057   2.059  0.1807 -0.7005  0.2077
13109TIP3    H160742   0.077   1.117   2.110  0.0712  0.8376 -1.3802
13109TIP3    H260743   0.072   0.975   2.057  0.6642 -0.4776  1.8585
13110TIP3   OH260744   1.866   3.867   0.119 -0.1581 -0.1811  0.2104
13110TIP3    H160745   1.824   3.914   0.191  1.1448 -0.7801  1.4145
13110TIP3    H260746   1.810   3.791   0.103 -0.6915  0.1931  0.2708
13111TIP3   OH260747   5.898   3.171  14.530  0.3519  0.5212 -0.0907
13111TIP3    H160748   5.840   3.122  14.472  2.0945  0.0016 -1.4652
13111TIP3    H260749   5.983   3.129  14.521  2.0364  3.8699 -1.5825
13112TIP3   OH260750   5.856   5.804  13.390 -0.6846  0.3765 -0.4223
13112TIP3    H160751   5.880   5.871  13.327 -0.7770  0.7814 -0.0368
13112TIP3    H260752   5.812   5.852  13.461  0.1460  0.0510  0.3408
13113TIP3   OH260753   6.053   1.853  10.081 -0.6393  0.7695  0.0140
13113TIP3    H160754   5.967   1.824  10.050 -0.3884  1.6160 -1.6057
13113TIP3    H260755   6.102   1.772  10.096 -2.4401  0.1382  3.4346
13114TIP3   OH260756   5.009   6.723  13.377  0.1705 -0.0891  0.0403
13114TIP3    H160757   5.045   6.757  13.459  0.7597 -1.1256  0.2294
13114TIP3    H260758   4.988   6.632  13.397  1.0427 -0.5745 -1.1901
13115TIP3   OH260759   5.655   2.303  15.852 -1.2350 -0.0586 -0.6908
13115TIP3    H160760   5.567   2.272  15.832 -0.6945 -1.0148 -1.7656
13115TIP3    H260761   5.709   2.270  15.780  0.2517 -0.7164  0.6437
13116TIP3   OH260762   3.635   0.689  13.839  0.6159 -0.7162 -0.5234
13116TIP3    H160763   3.586   0.607  13.843 -1.7447  0.6276  3.0496
13116TIP3    H260764   3.720   0.668  13.879 -0.1479 -1.3667  0.8181
13117TIP3   OH260765   5.150   0.394  14.185 -0.2837 -0.1287  0.3923
13117TIP3    H160766   5.090   0.321  14.200 -0.6395  0.3572  1.4381
13117TIP3    H260767   5.204   0.365  14.111 -1.1959 -0.9476  0.0100
13118TIP3   OH260768   5.382   3.795  17.258 -0.3981  0.5075  0.4128
13118TIP3    H160769   5.334   3.867  17.217 -1.9702 -1.4998 -1.5311
13118TIP3    H260770   5.455   3.779  17.199 -0.3678  0.1737  0.5393
13119TIP3   OH260771   4.161   5.993   3.815  0.0143 -0.4968  0.0193
13119TIP3    H160772   4.233   5.990   3.877  0.0435 -1.0251 -0.0342
13119TIP3    H260773   4.184   5.929   3.748 -0.2324 -0.2578 -0.3025
13120TIP3   OH260774   4.495   0.068  15.677  0.1206 -0.3754 -0.2838
13120TIP3    H160775   4.531   0.142  15.628 -0.9519  0.9020  0.7619
13120TIP3    H260776   4.556   0.054  15.749 -1.0805  1.5031  1.2333
13121TIP3   OH260777   3.961   0.220   1.396 -0.8759  0.3842 -0.0179
13121TIP3    H160778   3.872   0.255   1.396 -2.0544 -2.1190 -3.5026
13121TIP3    H260779   3.949   0.125   1.387  2.0967  0.0627 -1.6905
13122TIP3   OH260780   5.423   2.726   2.526 -0.1730 -0.3937  0.4472
13122TIP3    H160781   5.467   2.648   2.560  1.5600 -0.1979 -1.1358
13122TIP3    H260782   5.403   2.704   2.435  1.4819  1.3913 -0.4104
13123TIP3   OH260783   5.023   5.724  15.618  0.3446  0.1173 -0.2668
13123TIP3    H160784   5.110   5.718  15.656  0.3912 -1.1807 -0.5306
13123TIP3    H260785   5.039   5.727  15.523  0.1017 -0.7107 -0.3445
13124TIP3   OH260786   2.872   1.792  15.588  0.0218  0.2762 -0.0172
13124TIP3    H160787   2.805   1.729  15.564 -0.9921  1.2818  0.0710
13124TIP3    H260788   2.935   1.789  15.516 -1.5118  1.2187 -1.4802
13125TIP3   OH260789   2.019   3.147  14.578  0.1196  0.0134 -0.0572
13125TIP3    H160790   2.070   3.195  14.514  1.2196  0.5943  1.2133
13125TIP3    H260791   1.934   3.132  14.535  0.5474  1.0783 -1.3194
13126TIP3   OH260792   1.713   3.040  14.484 -0.7505 -0.7730  0.1123
13126TIP3    H160793   1.703   3.101  14.411  0.5610 -1.0720 -0.3448
13126TIP3    H260794   1.694   3.092  14.562  0.1665  0.1741 -0.2820
13127TIP3   OH260795   1.204   1.394  13.120  0.6662  0.0702 -0.0066
13127TIP3    H160796   1.180   1.450  13.194  2.1379  0.2211  0.4004
13127TIP3    H260797   1.128   1.395  13.063 -0.8015 -0.6193  1.8233
13128TIP3   OH260798   3.471   1.531  14.634  0.5578 -0.0907 -0.5953
13128TIP3    H160799   3.414   1.584  14.578  1.7229  1.6720 -0.2186
13128TIP3    H260800   3.478   1.447  14.589  0.0137  0.6493 -2.1458
13129TIP3   OH260801   1.019   4.648   5.167  0.0697 -0.2109 -0.7380
13129TIP3    H160802   0.946   4.704   5.141  0.9196  1.1594 -0.3077
13129TIP3    H260803   1.084   4.660   5.098 -0.3972 -2.0967 -1.5741
13130TIP3   OH260804   4.488   3.175   5.127 -0.0665  0.4783  0.1729
13130TIP3    H160805   4.574   3.208   5.100 -0.6300  2.9237  1.0897
13130TIP3    H260806   4.447   3.249   5.172 -2.3116 -0.9044  0.5620
13131TIP3   OH260807   1.382   0.879   6.524  0.0086 -0.0763  0.1860
13131TIP3    H160808   1.300   0.893   6.477  0.0828  2.0650  0.5631
13131TIP3    H260809   1.442   0.842   6.459 -0.7413  0.0581 -0.5930
13132TIP3   OH260810   6.676   5.812  15.701 -0.3240 -0.3343  0.1172
13132TIP3    H160811   6.647   5.879  15.763  0.6915 -0.4449  0.7370
13132TIP3    H260812   6.754   5.850  15.661  0.5482 -1.3349  0.8290
13133TIP3   OH260813   6.675   0.324  16.444  0.1343  0.1548  0.2316
13133TIP3    H160814   6.720   0.296  16.524  1.3081  1.6414  0.1185
13133TIP3    H260815   6.629   0.404  16.470  1.4957  1.3206 -0.8639
13134TIP3   OH260816   0.900   6.117   2.310  0.1142  0.3538  0.2124
13134TIP3    H160817   0.864   6.062   2.381  0.5651 -1.1602 -0.6941
13134TIP3    H260818   0.824   6.137   2.255  0.0624  0.0541  0.1721
13135TIP3   OH260819   1.657   2.115   4.224 -0.3441 -0.6225  0.1284
13135TIP3    H160820   1.656   2.199   4.269  0.1190  0.2026 -1.3647
13135TIP3    H260821   1.744   2.079   4.242  0.7554  0.8056 -2.0138
13136TIP3   OH260822   5.996   4.596   0.393 -0.1298 -0.2396  0.4649
13136TIP3    H160823   5.944   4.640   0.326 -0.1330 -0.2168  0.4824
13136TIP3    H260824   6.086   4.620   0.373 -0.2428  1.2164  1.5159
13137TIP3   OH260825   3.275   6.324   2.913  0.4552 -0.2018 -0.0729
13137TIP3    H160826   3.358   6.369   2.926  0.0708  0.6391 -0.4471
13137TIP3    H260827   3.209   6.388   2.939 -0.1721  0.0228 -2.0660
13138TIP3   OH260828   1.426   1.776   3.077  0.2917  0.5231 -0.3660
13138TIP3    H160829   1.410   1.867   3.050 -0.0870  0.9430  1.2085
13138TIP3    H260830   1.520   1.772   3.094 -0.1240  1.6318  2.8866
13139TIP3   OH260831   5.066   2.811   3.199  0.1327  0.1860  0.2532
13139TIP3    H160832   5.068   2.757   3.278 -0.7804  0.3070  0.3618
13139TIP3    H260833   4.974   2.833   3.187  0.3931  1.0108 -0.2782
13140TIP3   OH260834   1.254   3.719  11.878  0.1980  0.0627 -0.0521
13140TIP3    H160835   1.298   3.745  11.797 -0.0237  0.7473  0.0420
13140TIP3    H260836   1.167   3.691  11.849  0.5778 -0.9783 -0.2004
13141TIP3   OH260837   5.466   2.017   5.354 -0.5780  0.4158  0.2233
13141TIP3    H160838   5.529   2.006   5.426 -1.2448 -3.0461  0.4788
13141TIP3    H260839   5.384   2.041   5.398 -0.1392  2.1334  0.1665
13142TIP3   OH260840   2.479   2.808   2.443  0.4294 -0.3253 -0.1921
13142TIP3    H160841   2.471   2.903   2.453  1.6815 -0.1276 -0.8914
13142TIP3    H260842   2.415   2.786   2.375  0.4570  0.0739 -0.3498
13143TIP3   OH260843   3.460   6.082  16.950 -0.1662 -0.3267  0.1554
13143TIP3    H160844   3.479   6.064  17.042  1.0337  1.5027  0.3159
13143TIP3    H260845   3.365   6.072  16.942 -0.6903  2.1446  2.2622
13144TIP3   OH260846   2.887   4.450  12.873 -0.3248  0.5202 -0.1648
13144TIP3    H160847   2.930   4.519  12.922  0.2131  0.2618 -0.2657
13144TIP3    H260848   2.881   4.377  12.935  1.7307 -0.3429 -0.8871
13145TIP3   OH260849   6.256   1.611   3.677  0.8554  0.4317 -0.3978
13145TIP3    H160850   6.290   1.602   3.766 -1.4784  0.3859  0.5596
13145TIP3    H260851   6.330   1.646   3.627  2.0333  1.1662  1.7113
13146TIP3   OH260852   2.022   4.415   2.612  0.2954 -0.1635  0.1100
13146TIP3    H160853   1.976   4.382   2.690  1.3468 -0.6724  0.5362
13146TIP3    H260854   1.953   4.428   2.547 -0.8129  1.5658  1.5233
13147TIP3   OH260855   0.379   0.398  11.816 -0.0425 -0.3189 -0.2055
13147TIP3    H160856   0.347   0.483  11.846 -2.1547 -0.3109 -2.2476
13147TIP3    H260857   0.415   0.415  11.729  1.1472 -1.2463  0.0710
13148TIP3   OH260858   4.591   4.757  15.985 -0.6263 -0.1003  0.5462
13148TIP3    H160859   4.665   4.721  15.937 -1.0128 -1.1061  0.6975
13148TIP3    H260860   4.628   4.832  16.033  0.3391 -0.7246  0.7943
13149TIP3   OH260861   5.441   3.331   5.647 -0.2030 -0.4685 -0.4298
13149TIP3    H160862   5.393   3.394   5.700  0.1603 -0.3128 -0.2818
13149TIP3    H260863   5.373   3.285   5.598 -0.5107 -0.3157 -0.1564
13150TIP3   OH260864   3.185   3.238  13.328 -0.2342  0.4200  0.0161
13150TIP3    H160865   3.166   3.280  13.245 -1.2682  0.4589  0.2559
13150TIP3    H260866   3.278   3.219  13.325 -0.1364  1.0088 -0.8772
13151TIP3   OH260867   2.180   0.713  15.790  0.1623 -0.1230 -0.1739
13151TIP3    H160868   2.183   0.743  15.699 -0.4858  1.4374  0.2914
13151TIP3    H260869   2.089   0.683  15.801  0.4784 -1.1569 -0.2770
13152TIP3   OH260870   1.754   6.331  14.416 -0.0723  0.5334 -0.5878
13152TIP3    H160871   1.714   6.356  14.333 -1.2078  0.4049 -0.0856
13152TIP3    H260872   1.691   6.357  14.483 -0.3990 -1.7794  0.0743
13153TIP3   OH260873   5.489   0.777  12.268  0.2755 -0.1350  0.5641
13153TIP3    H160874   5.570   0.827  12.267 -0.2592  1.0968 -4.0619
13153TIP3    H260875   5.423   0.839  12.300  0.7437 -0.5129  2.3883
13154TIP3   OH260876   0.709   0.261   2.058  0.7909 -0.0767  0.8658
13154TIP3    H160877   0.692   0.355   2.049 -1.6877 -0.5499 -0.3622
13154TIP3    H260878   0.765   0.240   1.983 -0.0089  0.1781  0.1749
13155TIP3   OH260879   4.536   1.125   0.014  0.2038 -0.2186  0.2371
13155TIP3    H160880   4.496   1.124   0.101 -0.5872  0.4366 -0.1023
13155TIP3    H260881   4.488   1.193  -0.033  1.6256  0.4790 -0.2478
13156TIP3   OH260882   5.933   6.451  13.432 -0.0116 -0.0999 -0.3708
13156TIP3    H160883   5.929   6.513  13.359 -0.2323 -0.5818 -0.7672
13156TIP3    H260884   5.841   6.442  13.460 -0.0333 -0.6121 -0.6141
13157TIP3   OH260885   4.691   1.358  11.394  0.0915  0.2501 -0.4161
13157TIP3    H160886   4.662   1.343  11.304 -1.8392  0.4938  0.1345
13157TIP3    H260887   4.611   1.358  11.446  1.0111  1.6625  1.1050
13158TIP3   OH260888   6.300   2.784   0.255 -0.2287  0.0000 -0.7197
13158TIP3    H160889   6.214   2.809   0.289 -0.3556 -0.7266 -0.5004
13158TIP3    H260890   6.304   2.822   0.167 -0.6524  0.2802 -0.6197
13159TIP3   OH260891   2.639   0.841   4.675 -0.2772  0.3465  0.0115
13159TIP3    H160892   2.554   0.884   4.685  0.4318  1.8132  0.0177
13159TIP3    H260893   2.699   0.912   4.650  0.9527 -0.6457  0.0408
13160TIP3   OH260894   1.764   3.097   5.349  0.2935  0.4366  0.1056
13160TIP3    H160895   1.762   3.192   5.333 -0.3945  0.2566 -0.9520
13160TIP3    H260896   1.829   3.064   5.286  0.6178  0.2094  0.5535
13161TIP3   OH260897   6.639   4.326   4.321 -0.0421  0.2629 -0.0860
13161TIP3    H160898   6.707   4.302   4.258 -0.6906 -0.0235 -0.6737
13161TIP3    H260899   6.594   4.400   4.281 -0.6463 -0.1048 -0.0993
13162TIP3   OH260900   0.346   1.009  15.417 -0.2587  0.5259  0.3255
13162TIP3    H160901   0.266   0.991  15.368 -0.2860 -0.3709  0.6862
13162TIP3    H260902   0.371   1.097  15.389 -1.7459  1.1087  0.7265
13163TIP3   OH260903   5.232   2.378   4.167  0.2908  0.6541 -0.4647
13163TIP3    H160904   5.301   2.342   4.111  0.0249  1.1820 -1.1357
13163TIP3    H260905   5.173   2.423   4.107 -0.6369  0.2199  0.1057
13164TIP3   OH260906   5.536   3.303   3.481 -0.3866  0.2461 -0.0737
13164TIP3    H160907   5.538   3.208   3.477  0.7047  0.1797  1.3422
13164TIP3    H260908   5.521   3.323   3.573 -1.4459  1.4599 -0.4817
13165TIP3   OH260909   4.225   6.123  16.353 -0.4521 -0.2045  0.5649
13165TIP3    H160910   4.168   6.200  16.345  1.2405  1.1389  0.8180
13165TIP3    H260911   4.209   6.074  16.272 -0.3288  1.3257 -0.4421
13166TIP3   OH260912   4.296   4.643   4.095 -0.2326  0.0659 -0.2287
13166TIP3    H160913   4.298   4.616   4.187 -1.5665 -0.0282 -0.2134
13166TIP3    H260914   4.384   4.624   4.063  0.6554  1.2820  1.3483
13167TIP3   OH260915   5.960   0.953  13.232 -1.2164  0.1504  0.0640
13167TIP3    H160916   5.932   1.003  13.309  0.0461 -0.2698  0.8236
13167TIP3    H260917   6.034   0.901  13.263  0.1557  0.9077 -1.7611
13168TIP3   OH260918   1.837   3.904  12.547 -0.1059 -0.0238 -0.2371
13168TIP3    H160919   1.833   3.811  12.525  0.2091 -0.3036  0.8612
13168TIP3    H260920   1.930   3.926  12.544 -0.2491  0.5374 -1.5348
13169TIP3   OH260921   2.960   4.913  15.096  0.0471 -0.0225  0.4505
13169TIP3    H160922   2.870   4.888  15.116  0.3194 -0.6924  0.8471
13169TIP3    H260923   2.993   4.953  15.177 -0.1760  1.0520  0.0268
13170TIP3   OH260924   6.278   4.533  15.978  0.7148  0.0359  0.3704
13170TIP3    H160925   6.252   4.544  16.070 -0.3221  2.4989 -0.1470
13170TIP3    H260926   6.373   4.525  15.981  0.6702 -0.3872  1.6694
13171TIP3   OH260927   4.719   5.128   0.746  0.2508 -1.2574  0.0791
13171TIP3    H160928   4.781   5.122   0.819 -0.1886 -0.2267  0.5462
13171TIP3    H260929   4.751   5.064   0.682  2.6823  0.3063 -0.3686
13172TIP3   OH260930   1.287   3.916  15.368 -0.0291  0.1093  0.0917
13172TIP3    H160931   1.198   3.924  15.334 -0.1751 -4.1903 -1.2126
13172TIP3    H260932   1.277   3.867  15.450  1.0686 -0.6040 -0.1755
13173TIP3   OH260933   4.142   6.295   2.817 -0.1659 -0.0137  0.0507
13173TIP3    H160934   4.063   6.349   2.821 -1.6360 -2.0484 -0.0429
13173TIP3    H260935   4.202   6.337   2.879 -1.4497  1.3792  0.4198
13174TIP3   OH260936   1.866   3.170   2.465  0.0553 -0.0367  0.1751
13174TIP3    H160937   1.852   3.082   2.432 -1.4991  0.0761  0.4668
13174TIP3    H260938   1.854   3.162   2.560  1.9019  0.1342  0.4654
13175TIP3   OH260939   0.999   2.221  10.565 -0.4894 -0.2773  0.6423
13175TIP3    H160940   0.963   2.165  10.496 -1.0377 -1.0648  1.5300
13175TIP3    H260941   1.007   2.163  10.640  1.4217  0.2175  0.8661
13176TIP3   OH260942   0.584   2.722   5.634  0.0165  0.3317 -0.0567
13176TIP3    H160943   0.509   2.723   5.575  0.6267  2.0658 -0.9110
13176TIP3    H260944   0.644   2.658   5.596 -1.4410 -1.9085  1.2693
13177TIP3   OH260945   0.465   5.840   0.213 -0.1549  0.7215  0.6564
13177TIP3    H160946   0.525   5.790   0.157 -2.2594 -0.3533 -0.8295
13177TIP3    H260947   0.516   5.915   0.242  2.2034 -0.6486  0.3686
13178TIP3   OH260948   3.365   6.174   4.034  0.3164 -0.0255  0.2099
13178TIP3    H160949   3.320   6.172   4.119 -1.2965  1.9716 -0.4982
13178TIP3    H260950   3.374   6.082   4.009 -2.1502 -0.5779  1.0703
13179TIP3   OH260951   6.213   2.889  10.867 -0.2654 -0.2902 -0.3952
13179TIP3    H160952   6.254   2.958  10.815 -0.1622  0.2297  0.3559
13179TIP3    H260953   6.198   2.929  10.952 -1.2039 -0.8647 -0.2773
13180TIP3   OH260954   2.127   1.546   1.066 -0.0084  0.2120 -0.3420
13180TIP3    H160955   2.179   1.542   0.985 -0.5966  1.3182 -0.8045
13180TIP3    H260956   2.174   1.492   1.128  2.3037  2.0081 -0.4095
13181TIP3   OH260957   2.797   2.784  12.020 -0.0329  0.4784  0.6353
13181TIP3    H160958   2.792   2.802  12.114  0.2544  1.6808  0.4280
13181TIP3    H260959   2.717   2.822  11.984  0.3957  1.0123  0.2391
13182TIP3   OH260960   0.362   3.503   1.586  0.0459 -0.8537  0.3509
13182TIP3    H160961   0.330   3.482   1.499  0.0342 -0.8300  0.3496
13182TIP3    H260962   0.283   3.500   1.641 -0.1277  0.1913  0.1740
13183TIP3   OH260963   5.536   1.885   3.058  0.1786 -0.5029 -0.1676
13183TIP3    H160964   5.442   1.889   3.043 -0.0162 -1.4503  0.6960
13183TIP3    H260965   5.574   1.943   2.991 -1.0924  1.1660  0.5041
13184TIP3   OH260966   0.854   2.904   3.969  0.3445  0.8172 -0.3967
13184TIP3    H160967   0.827   2.913   3.877  0.8466  0.5688 -0.5746
13184TIP3    H260968   0.800   2.966   4.016 -0.0777  0.7875 -0.8347
13185TIP3   OH260969   2.903   2.406  14.125 -0.0669 -0.3100  0.1637
13185TIP3    H160970   2.950   2.323  14.123 -0.8587 -0.7522 -1.2883
13185TIP3    H260971   2.811   2.382  14.114 -0.0991  0.8550 -3.2534
13186TIP3   OH260972   0.221   6.211  11.036 -0.2990 -0.3561  0.1730
13186TIP3    H160973   0.154   6.231  11.101 -0.4039  0.0054 -0.0414
13186TIP3    H260974   0.245   6.296  10.999 -0.3970 -0.5757 -0.4124
13187TIP3   OH260975   3.026   2.891  11.695 -0.3783  0.2827  0.1348
13187TIP3    H160976   3.048   2.943  11.772  0.9727 -0.4618  0.3001
13187TIP3    H260977   3.102   2.833  11.684 -2.0714 -2.1172  0.3802
13188TIP3   OH260978   3.656   6.079   2.865 -0.3335 -0.4126  0.0247
13188TIP3    H160979   3.728   6.088   2.928  0.0167  0.0366 -0.4316
13188TIP3    H260980   3.662   5.987   2.837 -0.1826 -0.4839  0.2831
13189TIP3   OH260981   3.558   3.785   0.872  0.1194  0.1655 -0.2660
13189TIP3    H160982   3.558   3.878   0.852  0.9256  0.0457 -0.8977
13189TIP3    H260983   3.470   3.767   0.904  0.7291  1.6767  2.5806
13190TIP3   OH260984   2.026   6.562   1.435 -0.2878  0.1275  0.2523
13190TIP3    H160985   2.012   6.562   1.530  1.6073  0.0792  0.5679
13190TIP3    H260986   2.031   6.654   1.411  0.8705  0.1374  0.4895
13191TIP3   OH260987   6.520   1.137   5.777  0.3995  0.6049  0.4530
13191TIP3    H160988   6.586   1.070   5.760 -0.2526 -1.1578  3.9156
13191TIP3    H260989   6.570   1.214   5.804  1.0672  0.4150 -0.2012
13192TIP3   OH260990   5.953   0.205   4.640 -0.1079  0.2470 -0.1193
13192TIP3    H160991   5.872   0.226   4.592  0.2863 -0.4686 -1.1249
13192TIP3    H260992   6.022   0.249   4.590  0.1511  0.7854  0.6889
13193TIP3   OH260993   5.108   3.071   0.138  0.2159  0.0740 -0.6498
13193TIP3    H160994   5.094   3.040   0.049 -0.3756  2.1949 -1.3569
13193TIP3    H260995   5.126   3.165   0.128  1.7309  0.0656  1.3447
13194TIP3   OH260996   2.641   4.478  11.184 -0.2738  0.1044  0.1063
13194TIP3    H160997   2.706   4.463  11.115  1.2338 -1.2296  1.7327
13194TIP3    H260998   2.681   4.545  11.240 -0.8693  0.1814  0.4397
13195TIP3   OH260999   5.365   4.520  11.942  0.2894 -0.1687  0.3824
13195TIP3    H161000   5.355   4.472  11.860 -2.5757  0.5747  0.1795
13195TIP3    H261001   5.432   4.471  11.991 -0.3528 -2.5947 -1.0143
13196TIP3   OH261002   5.304   4.928   3.285  0.0850 -0.0678 -0.1087
13196TIP3    H161003   5.347   4.957   3.366  0.4823 -2.2130  0.5203
13196TIP3    H261004   5.347   4.845   3.263 -1.0452 -0.2813 -1.6930
13197TIP3   OH261005   0.206   5.605  12.095  0.1837 -0.1188 -0.5010
13197TIP3    H161006   0.226   5.620  12.003 -1.4016  0.4753 -0.7725
13197TIP3    H261007   0.234   5.515  12.111  2.2953  0.3750 -1.0052
13198TIP3   OH261008   5.056   6.587  15.604 -0.3449  0.4389  0.8118
13198TIP3    H161009   4.971   6.616  15.570  0.3219 -0.2319 -1.6078
13198TIP3    H261010   5.034   6.530  15.678 -2.0250 -0.1465 -0.0840
13199TIP3   OH261011   1.410   2.924   4.552  0.4643  0.5250  0.6474
13199TIP3    H161012   1.355   2.961   4.483 -0.0620 -0.8565  0.2962
13199TIP3    H261013   1.465   2.859   4.507  0.4975 -0.0067  1.4341
13200TIP3   OH261014   3.494   2.561  13.311  0.1981 -0.0847 -0.0669
13200TIP3    H161015   3.520   2.473  13.286  0.0607  0.6051 -3.0195
13200TIP3    H261016   3.401   2.567  13.287  1.0260  1.8425 -3.3719
13201TIP3   OH261017   4.190   3.428   1.643 -0.0641  0.1850  0.8017
13201TIP3    H161018   4.283   3.411   1.657  0.2783  1.0244 -0.3243
13201TIP3    H261019   4.183   3.447   1.550 -1.5171 -0.7357  0.6936
13202TIP3   OH261020   1.037   5.975  14.812 -0.4325  0.4096 -0.1029
13202TIP3    H161021   1.031   5.883  14.835  1.8410  0.1082 -0.4746
13202TIP3    H261022   1.130   5.989  14.794 -0.8567  2.5743 -0.8932
13203TIP3   OH261023   3.302   5.085   0.715  0.0827 -0.4552 -0.1995
13203TIP3    H161024   3.390   5.047   0.715  0.0405 -0.5624  0.3295
13203TIP3    H261025   3.245   5.013   0.688 -0.2487 -1.4397  2.6698
13204TIP3   OH261026   6.318   2.690   6.212 -0.1101  0.5842  0.3391
13204TIP3    H161027   6.285   2.743   6.285  1.6963  0.8633  0.9969
13204TIP3    H261028   6.288   2.602   6.231  0.4164  0.6317  1.5110
13205TIP3   OH261029   0.598   0.747   5.704  0.1868 -0.3010  0.1215
13205TIP3    H161030   0.605   0.678   5.769 -0.6809 -1.2164 -0.7324
13205TIP3    H261031   0.509   0.740   5.670  0.8442 -0.3394 -1.6942
13206TIP3   OH261032   0.868   0.157  12.874 -0.6708 -0.0136  0.0452
13206TIP3    H161033   0.827   0.244  12.875  0.0736  0.3354  0.8678
13206TIP3    H261034   0.797   0.097  12.898 -1.2588  0.3229 -0.7930
13207TIP3   OH261035   0.324   2.126  16.774 -0.1886  0.0034  0.2574
13207TIP3    H161036   0.308   2.220  16.773 -0.5790 -0.0537  1.0349
13207TIP3    H261037   0.274   2.093  16.848 -0.9210 -0.9827 -0.6368
13208TIP3   OH261038   2.760   6.354  14.398  0.4066  0.0056  0.2223
13208TIP3    H161039   2.854   6.369  14.410  0.3876 -0.3322  0.8754
13208TIP3    H261040   2.726   6.344  14.487 -0.1605 -0.3953 -0.0317
13209TIP3   OH261041   0.663   2.122  16.739 -0.3547 -0.2113 -0.2784
13209TIP3    H161042   0.759   2.116  16.748 -0.1821  1.4259 -0.7188
13209TIP3    H261043   0.629   2.087  16.821  0.6637 -0.0715  0.2219
13210TIP3   OH261044   1.135   4.958  12.691  0.5862 -0.2055 -0.5996
13210TIP3    H161045   1.145   4.906  12.770 -0.9468 -1.2582 -1.0505
13210TIP3    H261046   1.187   5.037  12.707  2.0132 -1.3399  0.5695
13211TIP3   OH261047   1.511   5.946   5.389 -0.3664 -0.3110  0.2496
13211TIP3    H161048   1.578   5.895   5.434  0.6437 -0.8767 -1.7663
13211TIP3    H261049   1.559   6.019   5.349 -0.8038 -0.9898 -1.6376
13212TIP3   OH261050   1.812   1.258  11.481  0.1841 -0.5269 -0.2248
13212TIP3    H161051   1.799   1.227  11.391 -0.2206  1.3582 -0.8685
13212TIP3    H261052   1.822   1.353  11.472 -2.1805  0.0322  1.9297
13213TIP3   OH261053   4.747   2.805   0.826 -0.3928  0.4176 -0.2026
13213TIP3    H161054   4.701   2.809   0.910 -0.0909 -0.4092  0.0136
13213TIP3    H261055   4.708   2.875   0.774 -0.5984  0.9212  0.6187
13214TIP3   OH261056   6.343   1.136   4.843  0.7387 -0.1061  0.1780
13214TIP3    H161057   6.319   1.173   4.758 -2.0173  2.4929  1.8896
13214TIP3    H261058   6.300   1.051   4.846 -1.7001  1.0593  0.0521
13215TIP3   OH261059   5.171   3.718  14.312 -0.9917 -0.1824  0.0248
13215TIP3    H161060   5.244   3.669  14.350 -1.6909 -0.0073  1.6981
13215TIP3    H261061   5.154   3.787  14.376  0.1736  2.5279 -2.3845
13216TIP3   OH261062   5.030   0.190  17.163 -0.2887  0.2064 -0.3777
13216TIP3    H161063   5.013   0.161  17.073 -0.0869  0.6839 -0.5729
13216TIP3    H261064   5.125   0.187  17.172 -0.3747 -1.5933  0.4258
13217TIP3   OH261065   6.052   3.417  13.353 -0.2904  0.0343 -0.7206
13217TIP3    H161066   6.025   3.356  13.284 -1.1848 -0.4198  0.0262
13217TIP3    H261067   6.048   3.503  13.311 -0.4394 -0.2777 -1.3552
13218TIP3   OH261068   0.247   1.086   5.388  0.2964  0.2068  0.0040
13218TIP3    H161069   0.198   1.125   5.315  1.2695  0.7707 -0.3634
13218TIP3    H261070   0.256   0.994   5.365  1.0512  0.4839 -0.8490
13219TIP3   OH261071   1.336   5.697   2.014 -0.0848  0.3848  0.5497
13219TIP3    H161072   1.422   5.740   2.018  0.5269 -0.5038 -1.5359
13219TIP3    H261073   1.326   5.673   1.922 -1.6135 -1.4752  1.1399
13220TIP3   OH261074   0.794   4.650  11.494 -0.1361  0.2527  0.7306
13220TIP3    H161075   0.845   4.630  11.573 -1.4709 -0.8332  1.3597
13220TIP3    H261076   0.708   4.611  11.511 -0.5335  0.2371 -1.1611
13221TIP3   OH261077   0.622   1.834  15.051 -0.1978  0.0678 -0.7217
13221TIP3    H161078   0.570   1.863  15.126 -1.1558 -2.1560 -0.4355
13221TIP3    H261079   0.559   1.833  14.978 -0.1887 -1.0859 -0.7371
13222TIP3   OH261080   6.089   3.347   5.803  0.2195 -0.0449  0.0225
13222TIP3    H161081   6.062   3.274   5.858  1.9098 -1.2973 -0.7364
13222TIP3    H261082   6.157   3.392   5.853 -2.4443  2.6200  1.5765
13223TIP3   OH261083   3.036   3.495   4.104  0.4313  0.5027  0.1299
13223TIP3    H161084   2.947   3.511   4.135 -0.0977 -0.9240 -0.5481
13223TIP3    H261085   3.030   3.412   4.057  2.0799  0.5072 -0.1403
13224TIP3   OH261086   0.010   0.453  13.305  0.3765  0.3069 -0.2490
13224TIP3    H161087   0.063   0.514  13.356  0.2073  0.6804 -0.5144
13224TIP3    H261088   0.032   0.473  13.213  1.3694 -0.9728 -0.3192
13225TIP3   OH261089   0.274   2.798   0.964 -0.1526 -0.1267  0.0791
13225TIP3    H161090   0.271   2.781   0.870 -1.3443 -0.8914  0.2279
13225TIP3    H261091   0.227   2.880   0.975 -1.0347 -0.6232  0.1077
13226TIP3   OH261092   4.927   6.033   4.836  0.7420  0.0093  0.3363
13226TIP3    H161093   4.923   5.961   4.899  2.4686 -0.5740 -0.1631
13226TIP3    H261094   4.887   5.997   4.757 -1.2408  0.6760  0.9621
13227TIP3   OH261095   1.327   5.900  14.824 -0.3505  0.5107 -0.1951
13227TIP3    H161096   1.346   5.812  14.791  0.2735 -0.2761  2.0829
13227TIP3    H261097   1.370   5.959  14.762  1.8148 -0.9148 -0.1257
13228TIP3   OH261098   6.179   4.902  14.357 -0.1000 -0.3807 -0.5011
13228TIP3    H161099   6.266   4.921  14.320  0.4868 -0.2607  0.8674
13228TIP3    H261100   6.119   4.911  14.283  0.6148  2.8973 -0.8652
13229TIP3   OH261101   0.490   5.977  13.997  0.3492 -0.0255 -0.3804
13229TIP3    H161102   0.559   6.041  14.014 -0.4423  0.9372 -0.7225
13229TIP3    H261103   0.455   5.956  14.083  1.7421 -1.3382 -0.0800
13230TIP3   OH261104   5.550   5.796   4.876 -0.1657  0.0291  0.0506
13230TIP3    H161105   5.474   5.775   4.822 -0.7513 -0.5188  1.0724
13230TIP3    H261106   5.580   5.881   4.843 -1.9678  0.8629  0.4655
13231TIP3   OH261107   5.529   3.471  15.750  0.1634 -0.2026  0.2833
13231TIP3    H161108   5.563   3.382  15.741  0.0136 -0.4000  1.5301
13231TIP3    H261109   5.489   3.473  15.837  1.0395  1.3697  0.6850
13232TIP3   OH261110   5.108   0.489  17.071 -0.0111  0.4364  0.3837
13232TIP3    H161111   5.040   0.428  17.099 -0.1954  0.4276 -0.0696
13232TIP3    H261112   5.190   0.441  17.085 -0.0649  0.6284  1.3815
13233TIP3   OH261113   2.879   6.552   3.449 -0.1798  0.2232 -0.2548
13233TIP3    H161114   2.946   6.499   3.405 -0.1197  0.3291 -0.2919
13233TIP3    H261115   2.803   6.494   3.456  0.1336 -0.1080  0.3829
13234TIP3   OH261116   5.394   4.228   3.576 -0.6872 -0.2213  0.0447
13234TIP3    H161117   5.331   4.288   3.614  0.1577  1.0161 -0.4440
13234TIP3    H261118   5.341   4.168   3.523 -1.3766  2.0308 -2.0286
13235TIP3   OH261119   1.583   6.645   0.722  0.5644 -0.3781 -0.1709
13235TIP3    H161120   1.553   6.676   0.637  0.2448 -1.3223 -0.4196
13235TIP3    H261121   1.559   6.713   0.784 -1.0253 -0.5792 -0.5424
13236TIP3   OH261122   3.250   0.026  15.015 -0.2059 -0.0157  0.9119
13236TIP3    H161123   3.288  -0.054  14.981  1.6545  1.0722  0.2808
13236TIP3    H261124   3.244   0.012  15.110 -1.8081 -1.6061  0.6233
13237TIP3   OH261125   4.585   4.259   5.017 -0.7179 -0.0915  0.2538
13237TIP3    H161126   4.640   4.193   5.061  0.8704  0.2867 -1.0686
13237TIP3    H261127   4.581   4.230   4.926  0.9838  2.1532 -0.6432
13238TIP3   OH261128   0.344   4.051   5.667 -0.5186  0.5165 -0.0771
13238TIP3    H161129   0.329   3.958   5.680 -0.3743  0.5249  0.1539
13238TIP3    H261130   0.406   4.076   5.737 -1.0899  0.9280  0.2949
13239TIP3   OH261131   1.115   5.266   3.434  0.4853 -0.4331  0.1133
13239TIP3    H161132   1.109   5.182   3.480 -1.6771 -0.5987 -0.3335
13239TIP3    H261133   1.033   5.311   3.456  1.3657  1.3495 -0.0831
13240TIP3   OH261134   0.185   5.448  15.096 -0.3313  0.0620 -0.1593
13240TIP3    H161135   0.274   5.484  15.096  1.0743 -2.9473  1.2534
13240TIP3    H261136   0.182   5.393  15.018 -0.5328 -0.6787  0.3615
13241TIP3   OH261137   1.654   3.551  11.981  0.2147 -0.2561  0.4740
13241TIP3    H161138   1.568   3.515  12.001  0.6371 -1.6209 -0.0737
13241TIP3    H261139   1.664   3.538  11.887  0.5340  1.0122  0.3157
13242TIP3   OH261140   6.514   2.171   1.127  0.7881 -0.2146  0.8721
13242TIP3    H161141   6.499   2.140   1.216  1.7670 -0.8266  0.8332
13242TIP3    H261142   6.463   2.112   1.072  0.1867  0.1607  1.0180
13243TIP3   OH261143   0.179   5.726  11.399 -0.7368  0.4843 -0.0345
13243TIP3    H161144   0.108   5.676  11.441  0.6655 -1.1126  0.5910
13243TIP3    H261145   0.217   5.778  11.470  0.6560 -1.0490  0.4092
13244TIP3   OH261146   1.910   0.496  14.329 -0.8498 -0.0150 -0.1472
13244TIP3    H161147   1.864   0.430  14.276  1.0666 -0.8332 -0.8765
13244TIP3    H261148   1.963   0.545  14.266  0.9984 -0.5919  0.8991
13245TIP3   OH261149   1.233   4.469  17.155 -0.3334 -0.4400  0.3076
13245TIP3    H161150   1.223   4.396  17.216  0.0270 -1.1767 -0.4822
13245TIP3    H261151   1.267   4.540  17.208 -1.0404 -0.7287  1.1682
13246TIP3   OH261152   1.091   0.711  16.016 -0.3202 -0.2849  0.1599
13246TIP3    H161153   1.054   0.656  15.947 -2.6501  0.3823  0.7969
13246TIP3    H261154   1.145   0.775  15.970 -0.6894 -0.7321 -0.9082
13247TIP3   OH261155   1.960   3.085   3.040 -0.3132 -0.4152 -0.3236
13247TIP3    H161156   1.977   3.164   2.988 -1.1229  0.0698  0.1294
13247TIP3    H261157   1.947   3.016   2.975 -0.3194 -0.0233 -0.7463
13248TIP3   OH261158   6.084   5.189  15.751  0.0620 -0.3758  0.3021
13248TIP3    H161159   6.077   5.239  15.833 -1.7917  0.8102 -0.5299
13248TIP3    H261160   6.064   5.252  15.682 -0.9377 -1.9408 -0.8946
13249TIP3   OH261161   5.517   5.710   1.920  0.4319 -0.4663  0.0037
13249TIP3    H161162   5.536   5.749   1.834  1.4724  0.6981  0.7304
13249TIP3    H261163   5.561   5.625   1.918 -1.2374 -1.3819 -1.3199
13250TIP3   OH261164   0.767   0.585  14.065 -0.6806 -0.3732 -0.3322
13250TIP3    H161165   0.789   0.661  14.119  0.9078 -3.0105  3.1140
13250TIP3    H261166   0.852   0.546  14.043 -1.4298 -2.8045  0.7289
13251TIP3   OH261167   5.319   2.098  11.643  0.0529 -0.1700 -0.0689
13251TIP3    H161168   5.413   2.109  11.657 -0.2042  1.7833  0.4038
13251TIP3    H261169   5.283   2.081  11.730 -0.2514  1.2970  0.1320
13252TIP3   OH261170   5.005   4.370   1.404 -0.2289 -0.0817  0.1514
13252TIP3    H161171   4.939   4.393   1.469 -0.4486  0.9692 -0.4333
13252TIP3    H261172   5.055   4.450   1.391  0.4552 -0.5633 -0.2469
13253TIP3   OH261173   6.026   3.167  15.854  0.3003  0.1596  0.4217
13253TIP3    H161174   5.991   3.158  15.766  1.9481 -1.4784 -0.1385
13253TIP3    H261175   6.096   3.233  15.846 -0.2173  0.7669  0.7548
13254TIP3   OH261176   2.847   0.229   0.694 -0.6132 -0.1347  0.3875
13254TIP3    H161177   2.857   0.147   0.646 -0.6183  0.1731 -0.1573
13254TIP3    H261178   2.754   0.250   0.686 -0.5961 -0.0339  0.4535
13255TIP3   OH261179   4.967   6.692  10.623  0.2062  0.2402 -0.0308
13255TIP3    H161180   4.950   6.746  10.546  3.2001  0.8930 -0.3598
13255TIP3    H261181   4.947   6.750  10.697 -0.1075  0.5225 -0.3304
13256TIP3   OH261182   3.003   2.742   4.958  0.3840  0.2720  0.2837
13256TIP3    H161183   2.965   2.654   4.965  1.6405 -0.4353 -1.2364
13256TIP3    H261184   2.927   2.800   4.954 -0.4978 -0.4711  3.3675
13257TIP3   OH261185   0.654   6.564   1.574  0.9464 -0.3007  0.1221
13257TIP3    H161186   0.698   6.648   1.582 -0.6983  0.8444 -1.7111
13257TIP3    H261187   0.633   6.538   1.664  0.9973  1.5451  0.6991
13258TIP3   OH261188   5.512   6.017   0.659  0.2851  0.7205  0.0030
13258TIP3    H161189   5.465   5.998   0.740 -0.0595 -0.7167 -0.5023
13258TIP3    H261190   5.539   6.109   0.667  2.4826 -0.0240  2.8959
13259TIP3   OH261191   0.957   2.056   2.332 -0.4212 -0.2524  1.0968
13259TIP3    H161192   0.980   2.053   2.424  3.9395  2.9557  0.4455
13259TIP3    H261193   0.940   2.149   2.315  0.6849 -0.4618 -1.6210
13260TIP3   OH261194   2.897   2.533  16.150 -0.4020 -0.3901 -0.6992
13260TIP3    H161195   2.882   2.625  16.127  0.3253 -0.3654 -1.1108
13260TIP3    H261196   2.992   2.523  16.146 -0.2992 -0.6046  1.5021
13261TIP3   OH261197   3.991   2.797   0.380 -0.0805  0.1135  0.4357
13261TIP3    H161198   3.902   2.829   0.371  0.2548  0.8263 -0.5103
13261TIP3    H261199   3.982   2.701   0.381 -0.8799  0.1847  0.8548
13262TIP3   OH261200   2.035   4.739   4.926  0.6619 -0.1339  0.3699
13262TIP3    H161201   2.096   4.812   4.936 -0.1399  0.4401  1.1876
13262TIP3    H261202   2.008   4.718   5.015  0.1396 -0.7881  0.0638
13263TIP3   OH261203   6.133   0.329   3.835 -0.0771  0.5708  0.2467
13263TIP3    H161204   6.150   0.383   3.758  1.4485 -0.2708 -0.0542
13263TIP3    H261205   6.041   0.304   3.828  0.5860 -1.5858 -2.7341
13264TIP3   OH261206   4.448   3.660   4.156  0.2422 -0.4044  0.5855
13264TIP3    H161207   4.506   3.621   4.221 -1.5704 -0.4047  2.3307
13264TIP3    H261208   4.398   3.725   4.206 -1.2769 -0.4525 -0.7929
13265TIP3   OH261209   1.326   1.429  12.530 -0.1826  0.0509  0.0796
13265TIP3    H161210   1.382   1.364  12.490  1.7227  0.5034  1.8405
13265TIP3    H261211   1.304   1.392  12.616 -2.1383  0.1544 -0.3225
13266TIP3   OH261212   1.583   1.111   5.187  0.5621  0.1906 -0.7293
13266TIP3    H161213   1.581   1.200   5.222  0.1652  0.2198 -0.8244
13266TIP3    H261214   1.493   1.094   5.158  0.9857  0.4011 -2.3049
13267TIP3   OH261215   3.448   2.980   4.171 -0.8725  0.4219  0.9234
13267TIP3    H161216   3.420   3.072   4.167 -1.1512  0.3017 -0.1297
13267TIP3    H261217   3.374   2.931   4.137 -1.0509 -0.2906  2.2805
13268TIP3   OH261218   6.664   1.472   5.087  0.0065  0.2091 -0.7337
13268TIP3    H161219   6.571   1.484   5.105  0.1526  1.3501 -0.6938
13268TIP3    H261220   6.666   1.443   4.995 -0.3488  0.9615 -0.9892
13269TIP3   OH261221   5.796   5.739  13.967  0.0466 -0.1050  0.0176
13269TIP3    H161222   5.812   5.799  13.894  1.2641  1.5102  1.5259
13269TIP3    H261223   5.828   5.654  13.936  4.9867  1.4318  0.1652
13270TIP3   OH261224   3.649   3.764  11.855 -0.0044 -0.0253  0.0498
13270TIP3    H161225   3.587   3.811  11.911 -0.1685  1.5847 -1.4047
13270TIP3    H261226   3.696   3.706  11.915 -1.0698  0.6552  1.6204
13271TIP3   OH261227   6.360   2.265   5.682  0.4119 -0.4699 -0.1277
13271TIP3    H161228   6.298   2.265   5.610 -1.1404 -0.3786  1.1531
13271TIP3    H261229   6.404   2.180   5.677 -0.7998 -1.1109 -0.2803
13272TIP3   OH261230   3.213   0.357  11.929 -0.9196 -0.0562  0.1571
13272TIP3    H161231   3.163   0.378  12.008 -0.5190 -1.9697  0.9645
13272TIP3    H261232   3.227   0.263  11.933 -0.5861 -0.1563 -2.0430
13273TIP3   OH261233   3.109   5.758   2.945  0.0452 -0.2537 -0.5204
13273TIP3    H161234   3.173   5.693   2.916 -0.0306  0.2770 -1.9384
13273TIP3    H261235   3.156   5.808   3.012  0.9545 -0.2255 -1.1473
13274TIP3   OH261236   1.305   1.506   0.769  0.0767  0.6405  0.2496
13274TIP3    H161237   1.386   1.544   0.737  1.0482 -2.8984 -2.1799
13274TIP3    H261238   1.333   1.427   0.817 -1.8628 -0.0983  0.2655
13275TIP3   OH261239   6.351   1.351  15.812 -0.3810  0.4783  0.2887
13275TIP3    H161240   6.429   1.406  15.819  0.4503 -0.5759 -0.5008
13275TIP3    H261241   6.351   1.321  15.721 -0.7549 -0.9110  0.7252
13276TIP3   OH261242   1.748   3.692  16.905  0.1230 -0.7300 -0.4036
13276TIP3    H161243   1.781   3.646  16.982 -0.7523  1.3130  1.3056
13276TIP3    H261244   1.701   3.626  16.855 -0.7945 -1.7805  1.7327
13277TIP3   OH261245   3.767   1.991  14.217  0.1209  0.1843  0.1477
13277TIP3    H161246   3.775   1.896  14.227 -0.6384  0.1486  0.4924
13277TIP3    H261247   3.764   2.025  14.307  0.4821  0.5477  0.0288
13278TIP3   OH261248   2.630   3.706   2.512 -0.3067 -0.1889 -0.3215
13278TIP3    H161249   2.544   3.679   2.481  0.0151  0.4262 -1.7922
13278TIP3    H261250   2.674   3.624   2.535 -0.0073 -0.8489 -2.9829
13279TIP3   OH261251   6.601   5.238  16.385  0.2551  0.0968 -0.1296
13279TIP3    H161252   6.537   5.259  16.453  0.2923  1.7896 -0.5715
13279TIP3    H261253   6.622   5.146  16.400 -0.6488  0.0966  1.3789
13280TIP3   OH261254   0.555   1.455  16.227 -0.3688 -0.3283  0.0145
13280TIP3    H161255   0.502   1.534  16.216 -1.4002 -0.8814  0.8055
13280TIP3    H261256   0.552   1.412  16.142  0.0763  0.4091 -0.3800
13281TIP3   OH261257   4.328   1.783   2.429  0.6829  0.1827 -0.2795
13281TIP3    H161258   4.351   1.690   2.429  0.5554  0.1322  0.8826
13281TIP3    H261259   4.233   1.784   2.417  0.5515  0.0999  0.6582
13282TIP3   OH261260   1.689   6.046  14.751 -0.0631 -0.0594 -0.4266
13282TIP3    H161261   1.704   5.952  14.755  1.2288  0.1728  0.5882
13282TIP3    H261262   1.710   6.078  14.839 -3.2118  0.8230  0.1329
13283TIP3   OH261263   5.492   0.620   3.741  0.5133  0.0480  0.3023
13283TIP3    H161264   5.421   0.627   3.677 -0.6570 -0.5218  1.5053
13283TIP3    H261265   5.568   0.594   3.689 -0.2096  0.3734 -0.9670
13284TIP3   OH261266   3.232   0.603  14.701 -0.2974 -0.1623 -0.0825
13284TIP3    H161267   3.266   0.522  14.662  0.5431  0.3065 -0.3423
13284TIP3    H261268   3.293   0.622  14.773 -0.5556  0.1898  0.0446
13285TIP3   OH261269   3.107   6.097   1.701  0.3626 -0.4239 -0.4081
13285TIP3    H161270   3.023   6.094   1.655  0.1308 -2.0547  0.0877
13285TIP3    H261271   3.169   6.128   1.635 -0.4448 -0.1491 -1.0538
13286TIP3   OH261272   1.479   3.276  11.407 -0.0793 -0.6213 -0.3009
13286TIP3    H161273   1.457   3.185  11.388 -0.1616 -0.3274 -1.7807
13286TIP3    H261274   1.395   3.319  11.425  0.0679 -1.0619  1.6050
13287TIP3   OH261275   6.322   3.336   1.190  0.6445 -0.4862 -0.0511
13287TIP3    H161276   6.317   3.284   1.270 -1.7799  0.5428  0.5823
13287TIP3    H261277   6.332   3.272   1.120 -2.0993 -1.8955  0.7043
13288TIP3   OH261278   2.275   3.083   0.389 -0.4779 -0.3186 -0.0729
13288TIP3    H161279   2.345   3.066   0.326 -0.3746 -1.2139  0.2742
13288TIP3    H261280   2.227   3.000   0.394 -1.7050  0.3308 -0.4708
13289TIP3   OH261281   5.478   3.364   2.011  0.1927 -0.3268 -0.5407
13289TIP3    H161282   5.552   3.369   1.950  0.1846 -0.7908 -0.5862
13289TIP3    H261283   5.418   3.301   1.972  0.2458 -0.7214  0.0079
13290TIP3   OH261284   5.544   0.728   1.231 -0.5708  0.0185 -0.2661
13290TIP3    H161285   5.520   0.782   1.306  0.3950  0.4830 -0.2812
13290TIP3    H261286   5.596   0.657   1.268  1.4515  1.2235 -0.6602
13291TIP3   OH261287   6.082   5.070   4.591  0.0378  0.5649 -0.5661
13291TIP3    H161288   6.034   5.124   4.529 -0.8428  0.3939 -0.0425
13291TIP3    H261289   6.171   5.106   4.589 -0.4473  1.8408 -0.4595
13292TIP3   OH261290   1.738   1.301   6.446 -0.2509 -0.1822 -0.5558
13292TIP3    H161291   1.823   1.323   6.410  0.0541 -1.3260 -0.5698
13292TIP3    H261292   1.757   1.264   6.532 -0.8911  1.4555  0.3351
13293TIP3   OH261293   1.451   0.351  16.756  0.1042 -0.5557 -0.2677
13293TIP3    H161294   1.485   0.267  16.723  1.8727 -0.7153  1.7317
13293TIP3    H261295   1.526   0.410  16.750 -0.4256  0.2168  0.5520
13294TIP3   OH261296   6.445   6.193   3.140  0.0697 -0.3201  0.0815
13294TIP3    H161297   6.502   6.201   3.217 -0.2508  0.3177  0.2531
13294TIP3    H261298   6.504   6.164   3.070  0.6407  0.4638  0.2275
13295TIP3   OH261299   5.411   3.482  14.691  0.0629 -0.0041 -0.4921
13295TIP3    H161300   5.339   3.545  14.697  0.5331  0.5244 -0.3627
13295TIP3    H261301   5.445   3.493  14.602  0.6190  0.4430 -0.2243
13296TIP3   OH261302   2.888   1.346  12.314  0.5310 -0.1787 -0.6327
13296TIP3    H161303   2.888   1.303  12.400 -2.0787 -1.0703 -0.9805
13296TIP3    H261304   2.958   1.303  12.266  0.1869 -1.7048  0.1582
13297TIP3   OH261305   3.677   2.173   1.640  0.0340  0.0932 -0.0553
13297TIP3    H161306   3.705   2.200   1.728 -0.6391  0.7877 -0.0448
13297TIP3    H261307   3.757   2.141   1.599  0.0998 -1.5901  1.2901
13298TIP3   OH261308   3.961   1.613  16.384 -0.0034  0.6619 -0.1389
13298TIP3    H161309   4.030   1.680  16.383  1.8200 -1.0982  0.9786
13298TIP3    H261310   3.910   1.630  16.305  1.4545  2.3008 -0.7917
13299TIP3   OH261311   4.278   0.792  13.352 -0.1248 -0.3770 -0.0723
13299TIP3    H161312   4.335   0.840  13.412  0.2032 -0.7250 -0.0968
13299TIP3    H261313   4.190   0.806  13.386  0.0661 -0.6703  0.5715
13300TIP3   OH261314   3.287   3.462   3.474  0.2012 -0.0083 -0.0276
13300TIP3    H161315   3.264   3.520   3.401  0.9063 -0.1502 -0.3702
13300TIP3    H261316   3.382   3.454   3.469  0.1672 -0.7149  0.3846
13301TIP3   OH261317   2.103   5.725  12.415 -0.4726  0.0335  0.1768
13301TIP3    H161318   2.023   5.776  12.422  0.7233  2.0249  0.3239
13301TIP3    H261319   2.127   5.731  12.323  0.3616  0.9063  0.4332
13302TIP3   OH261320   5.839   3.759  16.045 -0.6059  0.2244 -0.0373
13302TIP3    H161321   5.778   3.795  15.980 -1.0220  1.7633  1.1424
13302TIP3    H261322   5.855   3.832  16.105 -1.6599 -1.6202  2.6454
13303TIP3   OH261323   6.335   2.067   0.956  0.1224  0.0527 -0.0538
13303TIP3    H161324   6.245   2.045   0.981 -0.1061  2.9440  2.3538
13303TIP3    H261325   6.325   2.116   0.874 -0.0667 -2.2961 -1.5161
13304TIP3   OH261326   0.852   1.722  11.982  0.2623  0.5309  0.2251
13304TIP3    H161327   0.796   1.799  11.991  0.6785  0.7526  0.9283
13304TIP3    H261328   0.928   1.740  12.036  0.4413 -0.3025  0.2718
13305TIP3   OH261329   2.363   6.061   4.421  0.3199  0.5166  0.1771
13305TIP3    H161330   2.280   6.014   4.430  1.0276 -0.6411  0.9747
13305TIP3    H261331   2.370   6.113   4.502  1.2951 -0.9694  1.0905
13306TIP3   OH261332   3.990   4.411  13.890  0.2212  0.0738  0.2020
13306TIP3    H161333   3.899   4.424  13.917  0.0884  0.8871 -0.5880
13306TIP3    H261334   3.984   4.362  13.808  0.5040 -0.1538  0.3188
13307TIP3   OH261335   2.509   1.420   2.997  0.1729  0.3890  0.2797
13307TIP3    H161336   2.492   1.374   2.914 -1.4884  1.5909 -0.1034
13307TIP3    H261337   2.472   1.363   3.064 -0.1543  0.2778  0.0075
13308TIP3   OH261338   4.379   5.889   0.797 -0.5478  0.4664  0.5324
13308TIP3    H161339   4.426   5.813   0.761  0.1754  0.5795  1.2212
13308TIP3    H261340   4.290   5.879   0.763 -0.0904  0.1483 -0.6536
13309TIP3   OH261341   3.922   2.688   0.059  0.3374  0.4592 -0.4172
13309TIP3    H161342   3.954   2.684   0.149 -0.7542 -1.8455 -0.0779
13309TIP3    H261343   3.847   2.748   0.063  0.6183  0.7918  0.0656
13310TIP3   OH261344   5.317   3.967  16.695 -0.6835  0.0964  0.1810
13310TIP3    H161345   5.280   4.033  16.753  0.0271  0.7487 -0.0992
13310TIP3    H261346   5.411   3.984  16.695 -0.4035 -1.3237  0.6143
13311TIP3   OH261347   1.443   2.207  13.084  0.0126  0.3155  0.0138
13311TIP3    H161348   1.482   2.261  13.015  0.8660  0.4839  0.6162
13311TIP3    H261349   1.466   2.117  13.060  0.7925  0.4116  0.3589
13312TIP3   OH261350   1.882   6.527  12.639 -0.2479 -0.1162 -0.0915
13312TIP3    H161351   1.921   6.510  12.725  0.8342  0.3568 -0.4734
13312TIP3    H261352   1.949   6.500  12.577 -1.0369 -0.4885 -0.8027
13313TIP3   OH261353   2.399   0.367   6.702  0.2994 -0.4459  0.1160
13313TIP3    H161354   2.346   0.393   6.627 -0.3531  0.4500  0.8608
13313TIP3    H261355   2.389   0.438   6.765  2.2128 -0.3652  0.3931
13314TIP3   OH261356   1.057   1.163   6.548 -0.1406  0.4497 -0.2517
13314TIP3    H161357   1.069   1.227   6.478  0.1379  3.0264  1.9971
13314TIP3    H261358   1.145   1.149   6.583 -0.2749 -0.8096 -0.3739
13315TIP3   OH261359   2.847   4.534   0.279  0.5410  0.1710  0.1874
13315TIP3    H161360   2.838   4.440   0.294  0.3040  0.2078  0.2768
13315TIP3    H261361   2.928   4.542   0.228 -1.0968 -0.4023 -2.7420
13316TIP3   OH261362   0.434   0.448   1.888  0.3394 -0.6132 -0.7284
13316TIP3    H161363   0.412   0.426   1.978 -1.1897 -1.5653 -1.2929
13316TIP3    H261364   0.357   0.423   1.837  0.6471  1.0889 -2.1540
13317TIP3   OH261365   1.997   0.882  14.404 -0.2037  0.0827 -0.1246
13317TIP3    H161366   1.995   0.863  14.497 -0.1082 -1.1533 -0.3621
13317TIP3    H261367   2.087   0.862  14.376 -0.3334  0.0832 -0.5599
13318TIP3   OH261368   0.087   2.924  14.919 -0.8403  0.2088  0.1533
13318TIP3    H161369   0.138   2.844  14.930 -0.2591  0.5607  0.0505
13318TIP3    H261370   0.035   2.930  15.000  0.6219  0.7916  1.0924
13319TIP3   OH261371   2.878   3.821  14.523  0.3960 -0.1408  0.2816
13319TIP3    H161372   2.810   3.768  14.564 -0.0944 -0.1694 -0.5400
13319TIP3    H261373   2.907   3.880  14.592  2.6905 -3.0030  1.9771
13320TIP3   OH261374   3.507   1.886   5.038 -0.4197  0.3686 -0.5332
13320TIP3    H161375   3.583   1.921   5.085 -1.1607  1.3660 -0.0452
13320TIP3    H261376   3.433   1.901   5.097 -1.1293  0.1925 -1.3561
13321TIP3   OH261377   3.159   5.129  12.052 -0.7841  0.4754  0.2664
13321TIP3    H161378   3.208   5.048  12.036 -0.1402  1.1656 -1.5845
13321TIP3    H261379   3.100   5.136  11.977 -1.8475  1.0173  1.1327
13322TIP3   OH261380   3.493   3.132  11.899 -0.2961  0.3463  0.0820
13322TIP3    H161381   3.572   3.142  11.846  0.9998  0.0916  1.8754
13322TIP3    H261382   3.424   3.112  11.835  1.3596 -0.9693 -1.3946
13323TIP3   OH261383   6.561   4.153  11.005 -0.1540 -0.1381  0.7757
13323TIP3    H161384   6.577   4.247  10.999  2.1475 -0.5435 -1.3584
13323TIP3    H261385   6.467   4.145  11.014 -0.5007  2.3542  0.1571
13324TIP3   OH261386   1.441   3.812  13.973  0.1685 -0.3446  0.3436
13324TIP3    H161387   1.430   3.899  13.934  0.2168 -0.0282  1.0219
13324TIP3    H261388   1.536   3.797  13.970  0.2431 -0.0313  0.9352
13325TIP3   OH261389   6.586   4.334  15.309  0.6068  0.3082  0.2646
13325TIP3    H161390   6.556   4.370  15.225  0.6116  0.1150  0.1799
13325TIP3    H261391   6.516   4.275  15.336 -0.2901  1.7693  1.3222
13326TIP3   OH261392   0.316   2.101   1.346  0.0214 -0.5467 -0.0002
13326TIP3    H161393   0.324   2.190   1.310 -0.4779 -0.3255  0.4244
13326TIP3    H261394   0.307   2.045   1.269  0.1673 -0.2099 -0.2641
13327TIP3   OH261395   5.405   3.422  16.300 -0.1758 -0.2162 -0.2896
13327TIP3    H161396   5.426   3.329  16.303 -0.7427 -0.3512 -0.4398
13327TIP3    H261397   5.309   3.425  16.292 -0.4935  0.3724  2.5763
13328TIP3   OH261398   0.009   4.378   1.992  0.0086 -0.0888 -0.1724
13328TIP3    H161399  -0.027   4.467   1.998  0.3725 -0.0546  2.9875
13328TIP3    H261400   0.090   4.382   2.041  0.0198 -2.2059  0.0539
13329TIP3   OH261401   5.060   1.856   0.118  0.0468  0.6740  0.4475
13329TIP3    H161402   4.989   1.914   0.090 -0.0549 -0.1707 -1.1894
13329TIP3    H261403   5.038   1.771   0.079  0.8204 -0.1629  1.7750
13330TIP3   OH261404   1.779   0.317   1.643  0.0982 -0.8466 -0.0235
13330TIP3    H161405   1.832   0.394   1.665 -0.0057 -0.2054 -1.7691
13330TIP3    H261406   1.815   0.246   1.696  2.6058 -0.3983 -0.9544
13331TIP3   OH261407   1.944   5.935  17.174 -0.3617 -0.0523 -0.1105
13331TIP3    H161408   1.980   5.853  17.138 -2.1827 -0.4105 -1.2351
13331TIP3    H261409   1.994   6.004  17.130  1.0464 -0.5311  0.6886
13332TIP3   OH261410   3.298   0.828  16.782  0.0599 -0.1478  0.4302
13332TIP3    H161411   3.227   0.794  16.837  1.3391  1.9285  3.6413
13332TIP3    H261412   3.253   0.876  16.712 -1.6434 -3.3409 -0.8945
13333TIP3   OH261413   3.190   5.467  14.507 -0.0801 -0.0628  0.1497
13333TIP3    H161414   3.269   5.461  14.560  0.2668 -0.6751 -0.4189
13333TIP3    H261415   3.180   5.380  14.469  1.0156  0.9258 -2.6485
13334TIP3   OH261416   3.067   1.351   3.986 -0.3635 -0.1852  0.4513
13334TIP3    H161417   3.060   1.419   3.920  0.0674 -1.7617 -1.3178
13334TIP3    H261418   3.069   1.269   3.936 -0.8779 -1.5098  2.4693
13335TIP3   OH261419   5.657   3.116  14.142 -0.5513 -0.3519  0.1554
13335TIP3    H161420   5.566   3.141  14.155  0.2623  1.7424  2.4374
13335TIP3    H261421   5.683   3.073  14.224  0.7045 -0.3216 -0.1941
13336TIP3   OH261422   3.277   0.245   6.118 -0.1117 -0.3640 -0.0888
13336TIP3    H161423   3.368   0.217   6.105  0.4300  0.3428  1.7916
13336TIP3    H261424   3.276   0.281   6.207 -1.2182  3.4791 -1.4418
13337TIP3   OH261425   1.397   2.778  15.149  0.2682  0.0827  0.4025
13337TIP3    H161426   1.356   2.840  15.209 -1.0320 -0.6502  0.3150
13337TIP3    H261427   1.335   2.705  15.144  1.6954 -1.1735  0.4120
13338TIP3   OH261428   3.924   3.288  13.243  0.2580 -0.4478 -0.7184
13338TIP3    H161429   3.897   3.363  13.297  0.9032  0.1397 -1.1935
13338TIP3    H261430   3.980   3.326  13.175  0.8404 -1.3941 -0.7929
13339TIP3   OH261431   1.085   3.116  14.717  0.0732  0.1576 -0.0960
13339TIP3    H161432   1.014   3.153  14.771 -0.2652  0.3946 -0.6888
13339TIP3    H261433   1.089   3.174  14.641  1.2768  0.4645  0.1829
13340TIP3   OH261434   5.580   2.877   6.127  0.5059 -0.5036 -0.1399
13340TIP3    H161435   5.655   2.896   6.070 -0.4523 -1.0591 -1.6773
13340TIP3    H261436   5.522   2.952   6.115  0.6118 -0.2936  0.6717
13341TIP3   OH261437   4.725   0.621   3.654 -0.4214  0.2524  0.0104
13341TIP3    H161438   4.657   0.685   3.633  0.2032  1.0472  0.3182
13341TIP3    H261439   4.712   0.601   3.746 -0.2417  0.4170  0.0738
13342TIP3   OH261440   5.493   1.278  14.815  0.0319  0.1923 -0.1945
13342TIP3    H161441   5.507   1.220  14.890  1.4890  0.0218 -0.5858
13342TIP3    H261442   5.513   1.225  14.738 -1.7463  0.2750 -0.7693
13343TIP3   OH261443   1.261   1.701   5.994  0.0524  0.3041  0.8093
13343TIP3    H161444   1.349   1.681   5.962  0.3740  0.9986  1.2475
13343TIP3    H261445   1.270   1.708   6.089 -0.7974 -1.2065  1.0375
13344TIP3   OH261446   4.579   6.347   0.879 -0.3187  0.1455 -0.4238
13344TIP3    H161447   4.668   6.383   0.882 -0.0115 -0.5962 -0.2687
13344TIP3    H261448   4.527   6.413   0.834  0.0694  1.0926  0.4851
13345TIP3   OH261449   3.071   1.077   1.209  0.5175 -0.4805 -0.0421
13345TIP3    H161450   3.016   1.025   1.267  1.1594 -1.5144 -0.3365
13345TIP3    H261451   3.121   1.013   1.159  1.1493  0.4175 -0.5973
13346TIP3   OH261452   5.898   4.005  12.562  0.3188  0.0402  0.1231
13346TIP3    H161453   5.960   4.034  12.496  1.6164  1.9727  2.0564
13346TIP3    H261454   5.842   3.942  12.517  2.5630 -0.4723 -2.1619
13347TIP3   OH261455   0.808   4.324   1.489 -0.4086 -0.2641  0.1772
13347TIP3    H161456   0.735   4.325   1.427 -0.8851 -1.0866  0.7118
13347TIP3    H261457   0.801   4.239   1.533  0.5126 -0.0988  0.6567
13348TIP3   OH261458   2.575   3.335   2.494  0.1990 -0.1262  0.0213
13348TIP3    H161459   2.607   3.393   2.563 -0.4461  0.0048  0.2167
13348TIP3    H261460   2.598   3.379   2.412 -0.0194  0.2590  0.1668
13349TIP3   OH261461   6.759   1.065   2.898  0.6898 -0.2991  0.1814
13349TIP3    H161462   6.728   1.049   2.809  0.5406  1.5401 -0.1347
13349TIP3    H261463   6.723   1.151   2.922  1.3487 -0.4080  1.7281
13350TIP3   OH261464   6.559   4.794   3.203 -0.2862 -0.2140  0.0955
13350TIP3    H161465   6.497   4.752   3.144 -0.0423  0.6994 -0.8216
13350TIP3    H261466   6.600   4.863   3.151 -0.1063  0.6586  1.3463
13351TIP3   OH261467   6.688   0.478   4.565  0.7767 -0.4415 -0.3556
13351TIP3    H161468   6.668   0.392   4.600 -0.8699  0.2782  0.5939
13351TIP3    H261469   6.751   0.462   4.494  0.8984 -2.3368  0.1457
13352TIP3   OH261470   5.171   6.333   1.791  0.3921  0.1949 -0.0831
13352TIP3    H161471   5.166   6.339   1.695 -2.5147 -1.1182 -0.1356
13352TIP3    H261472   5.263   6.348   1.811  0.7983  2.4837 -2.8942
13353TIP3   OH261473   0.190   3.065  12.099 -0.0115  0.2044 -0.2138
13353TIP3    H161474   0.242   3.113  12.036 -0.1930  0.8285  0.0993
13353TIP3    H261475   0.119   3.026  12.048  1.6398 -2.0802 -0.9392
13354TIP3   OH261476   0.452   2.042  12.808  0.3460 -0.0993 -0.1697
13354TIP3    H161477   0.534   2.051  12.856  0.1132  1.5889 -0.0318
13354TIP3    H261478   0.384   2.061  12.873 -0.0264  0.8544 -0.8101
13355TIP3   OH261479   1.192   0.924   6.040 -0.0042  0.3375  0.3595
13355TIP3    H161480   1.276   0.967   6.027 -1.0719  2.8668  1.2339
13355TIP3    H261481   1.200   0.878   6.124  0.6891 -0.0228  0.1044
13356TIP3   OH261482   6.581   3.106  16.833 -0.0678  0.2871  0.0772
13356TIP3    H161483   6.490   3.128  16.818  0.2582  1.3465 -0.4179
13356TIP3    H261484   6.579   3.041  16.903 -1.1701  0.6753  0.4182
13357TIP3   OH261485   3.863   5.473  11.459  0.6718 -0.6168  0.2772
13357TIP3    H161486   3.898   5.410  11.522 -1.5724 -1.4803  0.7573
13357TIP3    H261487   3.791   5.427  11.416  1.8741  0.0883 -2.7118
13358TIP3   OH261488   2.265   5.029   0.396 -0.4819 -0.6315 -0.3630
13358TIP3    H161489   2.180   5.019   0.355 -0.4304 -2.7671 -0.0514
13358TIP3    H261490   2.259   4.978   0.477  0.9180 -0.3624 -0.0616
13359TIP3   OH261491   6.163   3.432   0.906  0.4215  0.1871  0.2802
13359TIP3    H161492   6.211   3.385   0.975  0.1784  0.3433  0.5593
13359TIP3    H261493   6.202   3.402   0.824 -1.4361 -2.4900  0.2639
13360TIP3   OH261494   1.071   4.141   0.327  0.0489 -0.3237  0.1286
13360TIP3    H161495   1.098   4.052   0.351 -0.5476 -0.5845 -0.1555
13360TIP3    H261496   0.979   4.146   0.353 -0.2411 -0.1705 -0.9146
13361TIP3   OH261497   5.513   0.809  11.111 -0.3857  0.0638 -0.4709
13361TIP3    H161498   5.454   0.806  11.036 -0.4782  0.9726 -0.4465
13361TIP3    H261499   5.468   0.757  11.179 -0.8906  0.2833 -0.6333
13362TIP3   OH261500   2.842   2.408  14.642 -0.2368 -0.7610 -0.5984
13362TIP3    H161501   2.866   2.402  14.734 -0.0711 -0.4511 -0.6195
13362TIP3    H261502   2.882   2.490  14.612 -1.7388  0.0459 -0.4920
13363TIP3   OH261503   5.088   1.099  11.900  0.2646 -0.1958  0.2300
13363TIP3    H161504   5.036   1.081  11.978 -1.0639 -1.8115 -0.9597
13363TIP3    H261505   5.105   1.013  11.862 -0.3731  0.6191 -2.0414
13364TIP3   OH261506   0.263   3.146   3.891  0.6907 -0.3327 -0.2795
13364TIP3    H161507   0.214   3.067   3.914 -2.9329  2.0279  0.9210
13364TIP3    H261508   0.326   3.156   3.963 -1.6049 -0.0594  1.8269
13365TIP3   OH261509   2.448   1.426  11.809  0.0102  0.2959  0.1947
13365TIP3    H161510   2.475   1.498  11.752 -0.8475  0.6536  0.2190
13365TIP3    H261511   2.357   1.446  11.832 -0.6246 -1.3487 -0.6952
13366TIP3   OH261512   2.303   1.034   6.654 -0.3047 -0.6607  0.4111
13366TIP3    H161513   2.259   0.950   6.638 -0.3237 -0.4496 -0.6643
13366TIP3    H261514   2.253   1.098   6.605  2.6813 -0.7832 -3.2456
13367TIP3   OH261515   0.354   0.527   2.887 -0.1920  0.1857  0.7916
13367TIP3    H161516   0.357   0.610   2.839  1.5785 -0.0556  0.3986
13367TIP3    H261517   0.409   0.543   2.964 -2.7363  0.4679  2.6637
13368TIP3   OH261518   5.554   5.666  15.575  0.8063 -0.2250  0.5147
13368TIP3    H161519   5.590   5.582  15.605  2.2438 -0.2997 -1.2620
13368TIP3    H261520   5.630   5.717  15.548 -0.1409  1.2302  0.4942
13369TIP3   OH261521   2.040   4.280  17.044  0.4450 -0.1694 -0.0305
13369TIP3    H161522   2.069   4.371  17.033  1.7515 -0.4519  0.8269
13369TIP3    H261523   2.112   4.238  17.092 -0.5182 -1.4452  0.3349
13370TIP3   OH261524   6.552   2.160   1.507  0.2898  0.0491  0.8808
13370TIP3    H161525   6.633   2.155   1.457  1.1636  0.6641  2.1820
13370TIP3    H261526   6.574   2.123   1.592 -1.6886 -2.8598  0.2807
13371TIP3   OH261527   4.085   2.562   4.090 -0.3241  0.1022 -0.0992
13371TIP3    H161528   4.108   2.469   4.094  1.6991  0.6063  2.6541
13371TIP3    H261529   3.989   2.563   4.092 -0.4183 -1.8946 -0.9688
13372TIP3   OH261530   2.030   3.064  11.149 -0.5395 -0.0386 -0.5254
13372TIP3    H161531   2.114   3.057  11.195 -1.1839  0.8857  0.8916
13372TIP3    H261532   2.015   2.977  11.113  0.8135 -0.3418 -0.4110
13373TIP3   OH261533   5.354   2.425   3.189  0.4087 -0.6610  0.1670
13373TIP3    H161534   5.377   2.427   3.096  0.1769 -1.6978  0.0682
13373TIP3    H261535   5.393   2.504   3.225 -0.5276  0.3975 -1.0393
13374TIP3   OH261536   6.432   4.641   5.665  0.7921  0.0351 -0.4021
13374TIP3    H161537   6.401   4.724   5.700  0.1605  0.5911 -2.1762
13374TIP3    H261538   6.359   4.609   5.611  2.0970 -0.1799 -2.1333
13375TIP3   OH261539   5.383   5.243  14.899 -0.3723 -0.0762  0.4959
13375TIP3    H161540   5.401   5.293  14.819 -0.4642  0.5129  0.8337
13375TIP3    H261541   5.413   5.300  14.970 -3.0263  0.7628  1.0586
13376TIP3   OH261542   6.275   4.695  17.081 -0.0099  0.4724 -0.1836
13376TIP3    H161543   6.205   4.630  17.074  1.2790 -1.0061  0.0557
13376TIP3    H261544   6.265   4.733  17.169  0.3086 -0.7361  0.3914
13377TIP3   OH261545   0.829   1.084  12.119  0.5184 -0.0632  0.3169
13377TIP3    H161546   0.865   1.105  12.033  2.2909  0.5523  1.1643
13377TIP3    H261547   0.785   1.000  12.107  2.8246 -1.2130 -0.6721
13378TIP3   OH261548   2.724   1.211   1.095  0.3849 -0.1433 -0.3945
13378TIP3    H161549   2.726   1.158   1.015  0.4462 -0.1695 -0.3751
13378TIP3    H261550   2.812   1.248   1.102  0.6244 -0.7990  0.1050
13379TIP3   OH261551   0.051   3.951   1.061  0.1437 -0.3286  0.2367
13379TIP3    H161552  -0.037   3.984   1.040 -0.2797 -1.6898 -0.2212
13379TIP3    H261553   0.100   3.962   0.980 -0.8084 -3.3514 -0.8675
13380TIP3   OH261554   3.996   4.196  14.282 -0.7052 -0.3567 -0.1506
13380TIP3    H161555   4.080   4.180  14.324 -1.3673 -1.8333  0.6913
13380TIP3    H261556   4.012   4.180  14.189 -0.3636 -2.1913  0.1761
13381TIP3   OH261557   4.317   3.518  11.148  0.2817 -0.0149  0.5286
13381TIP3    H161558   4.250   3.502  11.215 -1.0079  0.7466 -0.5112
13381TIP3    H261559   4.286   3.470  11.071  1.1382  0.0283  0.1461
13382TIP3   OH261560   2.287   3.286  11.223 -0.2285  0.2012  0.2225
13382TIP3    H161561   2.211   3.337  11.194 -0.1151  0.2945  0.0939
13382TIP3    H261562   2.337   3.270  11.144  0.8168  1.6569  0.5454
13383TIP3   OH261563   0.636   4.588  11.254  0.3822  0.1676  0.5268
13383TIP3    H161564   0.690   4.516  11.287  0.0004 -0.1991  0.3728
13383TIP3    H261565   0.675   4.667  11.290  1.9939  0.0599 -0.8310
13384TIP3   OH261566   2.355   6.129   2.394 -0.2227 -0.0150 -0.6406
13384TIP3    H161567   2.262   6.115   2.410  0.4231 -2.1202  2.1672
13384TIP3    H261568   2.369   6.222   2.413 -1.6605  0.2368 -0.6806
13385TIP3   OH261569   6.076   0.405  11.466 -0.6545 -0.6937  0.0482
13385TIP3    H161570   6.122   0.430  11.386  0.8485 -1.1948  0.7125
13385TIP3    H261571   6.065   0.310  11.459  1.0361 -1.0240  1.1427
13386TIP3   OH261572   6.706   2.167  14.441  0.0977 -0.1876 -0.0944
13386TIP3    H161573   6.747   2.237  14.390 -0.1872 -2.1900 -3.3697
13386TIP3    H261574   6.612   2.178  14.427  0.0105 -0.8186 -0.0469
13387TIP3   OH261575   5.228   5.281  12.452  0.1493  0.2298  0.0079
13387TIP3    H161576   5.157   5.231  12.411 -0.6343  0.8398  0.5836
13387TIP3    H261577   5.290   5.214  12.481  0.5037 -0.2471 -1.7157
13388TIP3   OH261578   2.096   6.379   5.118 -0.0921 -0.4842  0.4748
13388TIP3    H161579   2.127   6.326   5.192  3.1603  1.3438  0.5762
13388TIP3    H261580   2.133   6.336   5.041  0.9171  0.5035  0.3963
13389TIP3   OH261581   0.666   2.773   1.101  0.1580  0.2525 -1.1402
13389TIP3    H161582   0.587   2.826   1.107  0.0185 -0.0944  0.5102
13389TIP3    H261583   0.659   2.730   1.015 -2.0828 -0.7351 -0.5535
13390TIP3   OH261584   5.130   3.732   5.822  0.3033  0.3687  0.2337
13390TIP3    H161585   5.216   3.738   5.779  0.6448 -1.7768  0.5371
13390TIP3    H261586   5.082   3.808   5.788  1.8249  0.8268 -1.0457
13391TIP3   OH261587   4.058   2.036   0.405  0.1970 -0.7977  0.0078
13391TIP3    H161588   4.053   1.964   0.467 -0.2708 -1.8693 -1.2394
13391TIP3    H261589   4.123   2.008   0.340 -1.9656 -1.3835 -2.0241
13392TIP3   OH261590   3.989   6.042   4.407  0.5301  0.4285  0.1268
13392TIP3    H161591   4.040   5.993   4.342  0.0456 -0.9835  0.7887
13392TIP3    H261592   3.901   6.046   4.370  1.0162  2.9024 -1.0350
13393TIP3   OH261593   4.556   1.424  16.444  0.5469 -1.0308  1.0738
13393TIP3    H161594   4.584   1.470  16.523  1.8378  0.0243  0.0557
13393TIP3    H261595   4.467   1.454  16.429 -0.8005 -3.3532  3.6010
13394TIP3   OH261596   0.969   1.276   0.935 -0.1156 -0.6825  0.2314
13394TIP3    H161597   0.937   1.363   0.962 -0.7339 -0.9293  0.3121
13394TIP3    H261598   0.896   1.217   0.953  0.0239 -1.1054 -0.5360
13395TIP3   OH261599   0.560   3.173  16.833 -0.3254  0.2171  0.1219
13395TIP3    H161600   0.529   3.090  16.798 -0.5437  1.0938 -1.9271
13395TIP3    H261601   0.650   3.180  16.803 -0.8819  1.5241 -1.3678
13396TIP3   OH261602   1.984   1.603  11.758  0.3106 -0.4664 -0.7079
13396TIP3    H161603   2.034   1.614  11.677  1.7069  0.4498  0.2412
13396TIP3    H261604   1.974   1.691  11.793  0.3751 -0.9085  0.4912
13397TIP3   OH261605   1.874   4.531   5.451  0.0958 -0.4190  0.4071
13397TIP3    H161606   1.915   4.606   5.409  0.4570  0.2989  1.9803
13397TIP3    H261607   1.929   4.457   5.426 -0.1381 -0.1459 -0.9806
13398TIP3   OH261608   5.664   1.134   1.327  0.0806 -0.0747 -0.0058
13398TIP3    H161609   5.652   1.229   1.324  1.2166  0.1065  0.5672
13398TIP3    H261610   5.589   1.099   1.279 -1.1718  1.0378  1.0512
13399TIP3   OH261611   2.543   0.861   1.548 -0.0887 -0.2614 -0.0238
13399TIP3    H161612   2.636   0.846   1.533  0.0516 -0.1167  0.6781
13399TIP3    H261613   2.523   0.812   1.627 -0.2353  1.0225  0.7561
13400TIP3   OH261614   4.989   6.529  14.143 -0.2040 -0.2505 -0.4470
13400TIP3    H161615   4.992   6.592  14.070  1.4614  0.8184  0.4774
13400TIP3    H261616   4.951   6.578  14.216 -2.4523 -1.4969 -0.6831
13401TIP3   OH261617   1.138   2.790   4.976 -0.4775  0.0371  0.0459
13401TIP3    H161618   1.101   2.875   5.002 -0.1341 -0.7334  3.5371
13401TIP3    H261619   1.229   2.810   4.954 -0.8102  0.7740 -0.7108
13402TIP3   OH261620   2.445   5.131  11.355  0.0705 -0.6533 -0.6331
13402TIP3    H161621   2.420   5.050  11.310  0.4987 -0.7707 -0.6688
13402TIP3    H261622   2.426   5.200  11.292  0.3364 -0.7875 -0.8639
13403TIP3   OH261623   2.276   6.518   4.730  0.3767 -0.1731 -0.4620
13403TIP3    H161624   2.228   6.449   4.775  0.7051  0.0365  0.2172
13403TIP3    H261625   2.207   6.580   4.702  0.2112 -0.0445  0.2085
13404TIP3   OH261626   1.315   6.032  11.082 -0.2897  0.0702 -0.5394
13404TIP3    H161627   1.272   5.967  11.137 -1.6485  1.6955  0.4257
13404TIP3    H261628   1.243   6.083  11.044  0.7229  1.7044 -0.3773
13405TIP3   OH261629   6.660   4.078  13.955 -0.5986  0.0214 -0.3051
13405TIP3    H161630   6.746   4.078  13.913 -1.0927  0.1758 -1.3449
13405TIP3    H261631   6.601   4.042  13.889 -1.1495 -1.2408  0.8124
13406TIP3   OH261632   3.150   4.551  12.028  0.6484 -0.6508  0.4722
13406TIP3    H161633   3.072   4.495  12.022 -0.5592  0.9135  0.8082
13406TIP3    H261634   3.142   4.594  12.113  0.8688  0.9232 -0.2664
13407TIP3   OH261635   2.658   3.189  16.757 -0.7511 -0.0307 -0.1349
13407TIP3    H161636   2.693   3.212  16.671  0.4462  2.5752  0.9356
13407TIP3    H261637   2.575   3.236  16.762 -1.6089 -1.4816 -0.4447
13408TIP3   OH261638   4.890   4.153  10.656  0.4928 -0.5939 -0.3642
13408TIP3    H161639   4.860   4.241  10.674  2.6624  0.0925  0.1955
13408TIP3    H261640   4.885   4.108  10.740 -0.6580 -1.0404 -0.6588
13409TIP3   OH261641   3.957   4.995  13.738  0.3038 -0.1181 -0.2913
13409TIP3    H161642   3.937   5.083  13.706 -1.9615  0.4436  2.3202
13409TIP3    H261643   3.876   4.945  13.722  0.2147 -0.6375  1.6297
13410TIP3   OH261644   3.083   1.231  17.035 -0.0734  0.0611 -0.1364
13410TIP3    H161645   3.116   1.295  17.098  0.2778 -0.3069  0.0599
13410TIP3    H261646   2.989   1.248  17.030 -0.2847 -0.5954  1.2986
13411TIP3   OH261647   1.518   1.662  11.674 -0.6448  0.1154  0.3204
13411TIP3    H161648   1.473   1.745  11.660  1.0892  1.2391  0.9711
13411TIP3    H261649   1.518   1.619  11.588 -0.8206  1.2018 -0.2376
13412TIP3   OH261650   1.223   2.897   6.030  0.1257  0.0626 -0.0477
13412TIP3    H161651   1.182   2.979   6.003 -0.3841 -0.2400 -0.2147
13412TIP3    H261652   1.295   2.884   5.969 -0.2973 -0.0256 -0.5309
13413TIP3   OH261653   3.877   2.310  16.562 -0.4413 -0.1904  0.3474
13413TIP3    H161654   3.844   2.396  16.535  0.3399  0.3720  1.1607
13413TIP3    H261655   3.835   2.249  16.501 -2.1703  0.5945  0.6751
13414TIP3   OH261656   0.020   1.265   0.183 -0.1920 -1.1168  0.9551
13414TIP3    H161657   0.037   1.228   0.096  1.9681  0.1764  0.7385
13414TIP3    H261658   0.104   1.257   0.229 -0.5115  0.6888  1.9516
13415TIP3   OH261659   0.883   0.953  17.011  0.3253  0.0242 -0.3776
13415TIP3    H161660   0.912   1.045  17.009 -1.4796  0.6608  0.6923
13415TIP3    H261661   0.923   0.918  17.091  0.4028  0.0897 -0.3867
13416TIP3   OH261662   2.634   5.382  11.727 -0.0955 -0.2070 -0.0076
13416TIP3    H161663   2.552   5.357  11.682  1.1545 -0.6988 -2.1633
13416TIP3    H261664   2.644   5.475  11.707  0.7775 -0.5640 -1.3838
13417TIP3   OH261665   5.262   3.223   3.784 -0.0041  0.6041  0.6042
13417TIP3    H161666   5.184   3.227   3.839 -0.1510 -0.8112  0.5325
13417TIP3    H261667   5.231   3.243   3.696 -0.3557 -0.2440  0.5256
13418TIP3   OH261668   0.941   0.796  11.025 -0.3358 -0.0728 -0.2066
13418TIP3    H161669   0.919   0.750  11.105 -0.7882  1.4395  0.5692
13418TIP3    H261670   1.035   0.780  11.013 -0.4518 -1.0390  0.1164
13419TIP3   OH261671   1.900   1.785  11.322 -0.2908 -0.5133 -0.7415
13419TIP3    H161672   1.877   1.786  11.229 -0.5018 -1.3561 -0.7031
13419TIP3    H261673   1.978   1.840  11.328 -1.9665  2.1136 -0.9534
13420TIP3   OH261674   6.010   6.569   3.186 -0.7010 -0.8323 -0.1381
13420TIP3    H161675   5.928   6.617   3.201  0.0270  1.3140 -2.4562
13420TIP3    H261676   6.029   6.581   3.093  1.6287 -2.3498  0.0570
13421TIP3   OH261677   4.906   1.253   4.820 -0.0922 -0.6584  0.0904
13421TIP3    H161678   4.951   1.273   4.902  0.5976 -0.1527 -0.4069
13421TIP3    H261679   4.868   1.336   4.793  0.5106 -0.5968 -0.5992
13422TIP3   OH261680   2.608   1.572   4.373 -0.2823  0.1427 -0.6514
13422TIP3    H161681   2.534   1.577   4.311 -0.6915 -0.1732 -0.1954
13422TIP3    H261682   2.684   1.556   4.317 -0.6302 -0.0319 -1.0891
13423TIP3   OH261683   0.921   5.745   3.789  0.0755 -0.8348  0.3460
13423TIP3    H161684   1.016   5.747   3.802  0.3385 -0.7159 -1.3759
13423TIP3    H261685   0.884   5.754   3.877  1.6457  0.9583  0.8901
13424TIP3   OH261686   5.050   2.213   1.555  0.3408 -0.6743  0.1489
13424TIP3    H161687   4.971   2.221   1.608 -0.2134 -1.3811 -0.5436
13424TIP3    H261688   5.028   2.255   1.472  1.1172  0.2030  0.3656
13425TIP3   OH261689   4.118   5.381   3.932  0.1117 -0.1115 -0.5684
13425TIP3    H161690   4.199   5.337   3.959 -0.1134  0.5427  1.2998
13425TIP3    H261691   4.143   5.431   3.855  1.5679  0.2283  0.0857
13426TIP3   OH261692   3.189   6.148   4.631 -0.7157  0.0978  0.4606
13426TIP3    H161693   3.239   6.224   4.603 -0.8934 -0.0457 -0.2844
13426TIP3    H261694   3.165   6.166   4.722 -0.1066  0.5795  0.5269
13427TIP3   OH261695   6.692   1.679  17.235  0.6266  0.3632  0.0213
13427TIP3    H161696   6.607   1.664  17.195 -0.3842 -0.3258  2.2606
13427TIP3    H261697   6.709   1.773  17.223 -1.7424  1.1159  1.7844
13428TIP3   OH261698   4.769   1.164   1.043 -0.6831 -0.2344 -0.5276
13428TIP3    H161699   4.801   1.231   1.103 -1.6290 -0.3585  0.1435
13428TIP3    H261700   4.810   1.186   0.959 -0.1932  0.5887 -0.0934
13429TIP3   OH261701   0.515   2.767   0.005  0.3481 -0.0447  0.3508
13429TIP3    H161702   0.547   2.682  -0.025  0.6403  0.1903 -0.0132
13429TIP3    H261703   0.488   2.812  -0.075 -0.7320 -0.1690  0.6351
13430TIP3   OH261704   3.476   2.035  15.708  0.4175 -0.5351 -0.0788
13430TIP3    H161705   3.402   2.048  15.648  0.8419  0.4418 -0.4005
13430TIP3    H261706   3.436   2.037  15.795 -0.4162 -3.2755 -0.2810
13431TIP3   OH261707   0.723   2.096   2.493  0.2758  0.5253  0.0981
13431TIP3    H161708   0.807   2.069   2.529  0.1138  0.0129  0.0980
13431TIP3    H261709   0.743   2.170   2.437  0.4686  1.8129  1.7713
13432TIP3   OH261710   5.507   6.224   5.133 -0.3822 -0.2568 -0.0605
13432TIP3    H161711   5.591   6.266   5.151  0.2322 -1.2980 -0.4216
13432TIP3    H261712   5.495   6.231   5.039 -1.2913  0.9354  0.1180
13433TIP3   OH261713   1.326   1.682  12.621 -0.0742  0.1782 -0.4787
13433TIP3    H161714   1.347   1.596  12.583 -0.7149  0.0252 -0.5003
13433TIP3    H261715   1.274   1.725  12.554  0.7093  0.8117 -0.6966
13434TIP3   OH261716   6.728   6.249   2.724  0.0137 -0.9924  0.2323
13434TIP3    H161717   6.814   6.215   2.748  0.0265 -1.3296 -0.2955
13434TIP3    H261718   6.669   6.174   2.733  0.2798 -1.5731 -2.3522
13435TIP3   OH261719   3.435   3.115   4.451  0.3499 -0.5934  0.1968
13435TIP3    H161720   3.368   3.099   4.518  0.9818 -0.7007  0.8157
13435TIP3    H261721   3.387   3.155   4.378 -0.9304 -3.4306 -0.6243
13436TIP3   OH261722   5.621   5.692   2.669 -0.5573  0.1617 -0.1672
13436TIP3    H161723   5.606   5.598   2.680 -0.0807  0.1393  0.3714
13436TIP3    H261724   5.703   5.709   2.716  0.3851  0.5104 -1.8656
13437TIP3   OH261725   2.791   0.354   3.294 -0.1738  0.0130  0.1756
13437TIP3    H161726   2.880   0.343   3.261 -0.2780  1.2256 -0.5676
13437TIP3    H261727   2.767   0.443   3.270 -0.2348  1.0978  3.6534
13438TIP3   OH261728   6.671   5.511   3.623  0.4498 -0.3936  0.0984
13438TIP3    H161729   6.749   5.484   3.573  0.6890 -0.3674  0.4553
13438TIP3    H261730   6.702   5.520   3.713  0.3923  1.1090 -0.0029
13439TIP3   OH261731   4.965   3.798   6.057 -0.3119 -0.6649  1.1633
13439TIP3    H161732   4.927   3.711   6.071  0.9314 -1.5679 -0.6678
13439TIP3    H261733   5.027   3.786   5.986  1.2053  1.3731  2.0318
13440TIP3   OH261734   4.843   0.374  15.165 -0.1503  0.0409 -0.2373
13440TIP3    H161735   4.837   0.294  15.218 -1.6441 -0.2551 -0.8038
13440TIP3    H261736   4.752   0.397  15.145  0.2767  1.5617 -0.5812
13441TIP3   OH261737   3.675   2.566  11.489 -0.0403 -0.1574  0.0122
13441TIP3    H161738   3.634   2.577  11.404  0.1157  0.6864  0.0336
13441TIP3    H261739   3.608   2.592  11.552  0.4089  0.9946  0.0562
13442TIP3   OH261740   1.211   0.666   4.989  0.2725  0.2058  0.2805
13442TIP3    H161741   1.139   0.643   5.048 -0.1264 -0.5108 -0.4624
13442TIP3    H261742   1.169   0.708   4.914  0.4579 -1.3328 -0.7342
13443TIP3   OH261743   4.480   1.706  11.867 -0.0578  0.3524 -0.2307
13443TIP3    H161744   4.435   1.671  11.945  1.8216 -0.4159  0.5693
13443TIP3    H261745   4.453   1.648  11.796 -0.4611  0.0089  0.1900
13444TIP3   OH261746   1.658   6.013   2.423  0.3931  0.0539 -0.2396
13444TIP3    H161747   1.743   6.018   2.380  0.6102  0.3683  0.2187
13444TIP3    H261748   1.638   6.103   2.449  0.0943 -0.0740 -0.0151
13445TIP3   OH261749   0.630   0.864   6.070 -0.3701 -0.3412  0.4863
13445TIP3    H161750   0.555   0.805   6.063  0.1009 -0.7707 -2.3312
13445TIP3    H261751   0.701   0.818   6.024 -0.0740  2.4719 -2.1999
13446TIP3   OH261752   4.399   5.774  13.792  0.0287  0.7964 -0.2878
13446TIP3    H161753   4.340   5.737  13.858 -0.9456  0.1590 -1.4833
13446TIP3    H261754   4.461   5.827  13.843 -0.8190  0.5018  1.1116
13447TIP3   OH261755   0.217   0.734  15.826 -0.0855 -0.5408 -0.4609
13447TIP3    H161756   0.134   0.727  15.874  0.1668  0.1879  0.1005
13447TIP3    H261757   0.250   0.645  15.822 -0.9443 -0.8533 -0.7742
13448TIP3   OH261758   2.157   0.840   2.104 -0.0586 -0.4061  0.3573
13448TIP3    H161759   2.145   0.882   2.019 -0.9914 -1.1368  0.1229
13448TIP3    H261760   2.251   0.820   2.107 -0.2190 -1.4861 -1.0325
13449TIP3   OH261761   5.040   4.388   4.615 -0.5696 -0.3921  0.0602
13449TIP3    H161762   4.996   4.465   4.579 -2.2239 -1.6097 -0.6014
13449TIP3    H261763   5.122   4.423   4.650 -1.8078  1.9060  0.9285
13450TIP3   OH261764   3.800   2.166   5.794  0.0985  0.6920  0.1075
13450TIP3    H161765   3.836   2.206   5.873 -0.3069  0.9950  0.1435
13450TIP3    H261766   3.823   2.073   5.801 -0.0840  0.6863  0.6668
13451TIP3   OH261767   2.994   3.839  13.296 -0.1268 -0.1874 -0.3229
13451TIP3    H161768   2.997   3.789  13.377 -0.5801 -2.3566 -1.5487
13451TIP3    H261769   3.086   3.859  13.276  0.0594 -0.4467  0.2612
13452TIP3   OH261770   6.285   6.375   2.263  0.6702 -0.0979 -0.1138
13452TIP3    H161771   6.232   6.368   2.184  0.6373 -0.2586 -0.0783
13452TIP3    H261772   6.273   6.292   2.308 -0.9652  0.7439  1.1062
13453TIP3   OH261773   5.028   0.941  13.034 -0.2099  0.0772 -0.4464
13453TIP3    H161774   5.027   0.847  13.017 -0.5500  0.2497 -1.4281
13453TIP3    H261775   4.953   0.957  13.091 -1.3652  0.0393 -1.9191
13454TIP3   OH261776   3.076   1.230   4.622  0.1112  0.0799 -0.0463
13454TIP3    H161777   2.998   1.275   4.593 -0.8141 -0.3516  1.6503
13454TIP3    H261778   3.148   1.287   4.597 -0.8770  1.4139  0.0712
13455TIP3   OH261779   4.158   0.144  16.688 -0.4234 -0.2700 -0.0977
13455TIP3    H161780   4.182   0.210  16.623 -0.7044 -0.8250 -0.7740
13455TIP3    H261781   4.103   0.082  16.641 -0.3384 -0.8802  0.5816
13456TIP3   OH261782   5.341   3.842  16.215 -0.0114 -0.1319  0.2136
13456TIP3    H161783   5.249   3.858  16.192 -0.1991  0.8039  1.4374
13456TIP3    H261784   5.338   3.825  16.310  1.1765  1.0011  0.4754
13457TIP3   OH261785   1.553   1.995  14.751  0.5340 -0.0635 -0.2079
13457TIP3    H161786   1.616   1.924  14.765 -0.1923 -0.6500  0.2162
13457TIP3    H261787   1.468   1.955  14.772  0.1043  0.9131 -0.0433
13458TIP3   OH261788   4.281   4.773  13.999  0.1067  0.0397 -0.2629
13458TIP3    H161789   4.273   4.852  13.946 -1.6830  0.5181  0.6249
13458TIP3    H261790   4.290   4.805  14.089 -1.3013 -0.7257  0.1888
13459TIP3   OH261791   3.768   0.877   5.724  0.3187 -0.9873 -0.4248
13459TIP3    H161792   3.834   0.872   5.793 -0.8186 -2.8958  0.6258
13459TIP3    H261793   3.749   0.971   5.716  1.2311 -0.6302  1.1434
13460TIP3   OH261794   2.290   1.588  12.363 -0.4972 -0.8055  0.0208
13460TIP3    H161795   2.276   1.496  12.344  0.5989 -1.2358  1.1623
13460TIP3    H261796   2.335   1.622  12.285  0.1137 -1.5089  0.0567
13461TIP3   OH261797   5.670   6.656  13.914  0.4619  0.0002  0.0475
13461TIP3    H161798   5.678   6.584  13.976  1.8715 -1.7662 -2.0567
13461TIP3    H261799   5.761   6.681  13.894  0.0598  0.3516 -1.4663
13462TIP3   OH261800   0.278   0.000  14.993 -0.2955  0.9166  0.0465
13462TIP3    H161801   0.365   0.039  15.005 -1.0252  2.9502 -0.7971
13462TIP3    H261802   0.286  -0.053  14.914  0.7994 -1.0044  1.3742
13463TIP3   OH261803   3.520   6.651  14.435  0.0533  0.0171  0.2305
13463TIP3    H161804   3.535   6.556  14.441  0.3902 -0.0396 -1.2224
13463TIP3    H261805   3.433   6.663  14.472  0.7175 -0.5933  2.1520
13464TIP3   OH261806   2.864   1.984  11.397  0.3341  0.7166  1.1030
13464TIP3    H161807   2.796   2.051  11.385 -0.6418  0.0592  2.7627
13464TIP3    H261808   2.836   1.912  11.341 -0.3518  0.4473  1.7828
13465TIP3   OH261809   5.770   2.922   1.979  0.1251  0.3832 -0.0512
13465TIP3    H161810   5.860   2.941   2.006 -0.1707 -0.4350  1.7008
13465TIP3    H261811   5.775   2.837   1.935  0.0115 -0.6143  1.7433
13466TIP3   OH261812   5.907   5.962  12.581  0.2998  0.1441 -0.2752
13466TIP3    H161813   5.814   5.985  12.588  0.0891 -0.3759 -1.2168
13466TIP3    H261814   5.939   5.967  12.671 -1.3232 -2.5091  0.5485
13467TIP3   OH261815   4.141   1.868  16.162  0.5858 -0.2084 -0.0956
13467TIP3    H161816   4.088   1.946  16.176  0.8374  0.0245 -0.4043
13467TIP3    H261817   4.209   1.872  16.230  0.4880 -0.2592  0.0067
13468TIP3   OH261818   6.714   2.760  15.827 -1.1560 -0.1997  0.4283
13468TIP3    H161819   6.730   2.836  15.883 -3.4299 -0.5183  1.6849
13468TIP3    H261820   6.765   2.690  15.867  1.6288  0.7332 -1.2249
13469TIP3   OH261821   0.481   3.709   2.856  0.4576 -0.2613 -0.2514
13469TIP3    H161822   0.531   3.741   2.931  0.0189 -2.6416  1.1543
13469TIP3    H261823   0.399   3.677   2.893 -0.5257  0.1111 -2.0146
13470TIP3   OH261824   2.411   1.490  13.697 -0.0904 -0.3784  0.3836
13470TIP3    H161825   2.335   1.509  13.752 -0.2598  1.4802 -0.3952
13470TIP3    H261826   2.390   1.406  13.656 -2.0460  0.3297 -0.2347
13471TIP3   OH261827   2.212   5.906  12.202 -0.0639  0.9123 -0.1117
13471TIP3    H161828   2.240   5.995  12.180  2.3581  0.3088  0.2239
13471TIP3    H261829   2.116   5.911  12.206 -0.4364  2.4435 -4.7263
13472TIP3   OH261830   3.909   1.916   5.783  0.0416  0.0823 -0.3426
13472TIP3    H161831   3.939   1.837   5.829 -2.2439  1.0637  3.2267
13472TIP3    H261832   3.989   1.967   5.769  1.0649 -0.9717  1.2836
13473TIP3   OH261833   5.450   0.636   0.158  0.1019 -0.0545 -0.4446
13473TIP3    H161834   5.504   0.685   0.096  1.0764  0.8879  1.0781
13473TIP3    H261835   5.509   0.568   0.193  0.0217  0.3328  0.4812
13474TIP3   OH261836   4.722   2.407  15.590 -0.4339  0.1041 -0.2983
13474TIP3    H161837   4.659   2.456  15.642  0.1917  1.0239 -0.4003
13474TIP3    H261838   4.806   2.422  15.633 -0.4781 -2.6483  0.9861
13475TIP3   OH261839   2.746   3.888   4.676  0.0384  0.1208 -0.1239
13475TIP3    H161840   2.803   3.844   4.612 -0.4786 -0.7706  0.0101
13475TIP3    H261841   2.675   3.826   4.691 -0.7319  1.0263  0.0614
13476TIP3   OH261842   5.408   3.750  11.414 -0.4919 -0.4376 -0.1874
13476TIP3    H161843   5.324   3.736  11.371  0.2743 -0.4516 -1.7265
13476TIP3    H261844   5.456   3.808  11.355  0.0046  0.8705  1.4296
13477TIP3   OH261845   4.806   1.493  12.880 -0.5722 -0.1236 -0.2629
13477TIP3    H161846   4.801   1.582  12.916 -2.0461 -0.2967 -0.0012
13477TIP3    H261847   4.751   1.495  12.802 -1.2378 -1.0088  0.1711
13478TIP3   OH261848   0.082   1.643  16.474  0.3425 -0.7550  0.4678
13478TIP3    H161849  -0.012   1.654  16.489  0.1165 -1.9510  0.0020
13478TIP3    H261850   0.088   1.573  16.409  1.4569  1.1663 -1.6324
13479TIP3   OH261851   2.664   4.443   5.108 -1.1904 -0.1907 -0.4694
13479TIP3    H161852   2.668   4.363   5.056 -0.6377 -0.3418 -0.1984
13479TIP3    H261853   2.685   4.415   5.197 -2.7826 -0.0584 -0.0081
13480TIP3   OH261854   2.507   4.533   0.531  0.1332  0.0079  0.0656
13480TIP3    H161855   2.433   4.533   0.470  0.3255 -1.5529 -0.2113
13480TIP3    H261856   2.477   4.479   0.604  0.7606 -0.0745  0.2638
13481TIP3   OH261857   1.305   4.045   5.024  0.2729 -0.1087  0.0185
13481TIP3    H161858   1.225   3.998   5.049 -0.0592 -0.9259 -2.3365
13481TIP3    H261859   1.279   4.137   5.020  0.0375 -0.1038  1.3717
13482TIP3   OH261860   3.693   5.872   4.564  0.0324 -0.1175 -0.3428
13482TIP3    H161861   3.682   5.781   4.592  1.5995  0.2178  1.5776
13482TIP3    H261862   3.701   5.867   4.469  1.4561 -2.1500 -0.1751
13483TIP3   OH261863   4.536   3.166  13.017 -0.5081  0.7034  0.3688
13483TIP3    H161864   4.579   3.107  12.955  0.6776 -0.6752  2.3965
13483TIP3    H261865   4.451   3.124  13.035 -1.4115  1.7457 -1.1518
13484TIP3   OH261866   5.321   1.194  13.788 -0.3043  0.2666  0.1674
13484TIP3    H161867   5.293   1.104  13.773 -1.6644  0.8246 -0.9171
13484TIP3    H261868   5.277   1.221  13.868  0.4058 -0.1424  0.7006
13485TIP3   OH261869   5.093   2.290   0.656 -0.0740 -0.4350 -0.1195
13485TIP3    H161870   5.051   2.216   0.612 -1.0385 -0.5331  0.9193
13485TIP3    H261871   5.071   2.366   0.603 -0.1157 -0.7227 -0.5172
13486TIP3   OH261872   2.086   2.893   0.806 -0.2558  0.4472  0.4299
13486TIP3    H161873   2.064   2.849   0.889 -0.6431 -1.5000 -0.6482
13486TIP3    H261874   2.002   2.906   0.762  0.1521 -1.3793 -0.9883
13487TIP3   OH261875   1.658   4.069  12.380  0.1524  0.2941 -0.4513
13487TIP3    H161876   1.587   4.123  12.414 -0.9082 -0.5849 -1.1967
13487TIP3    H261877   1.693   4.024  12.457  0.0351  0.8641 -0.0533
13488TIP3   OH261878   1.921   0.184  13.264  0.5185  0.7624 -0.0373
13488TIP3    H161879   2.006   0.183  13.221 -0.5643  1.7919 -2.3985
13488TIP3    H261880   1.886   0.096  13.252 -0.4088  1.4178 -2.8312
13489TIP3   OH261881   2.662   6.076  12.248 -0.1353  0.1157 -0.1850
13489TIP3    H161882   2.684   6.133  12.323 -1.2118  0.4428 -0.1090
13489TIP3    H261883   2.617   6.134  12.187  2.8521  0.5010 -2.2706
13490TIP3   OH261884   4.771   6.516  16.569 -0.1544 -0.1504 -0.3591
13490TIP3    H161885   4.750   6.529  16.662  0.4112 -0.9500 -0.1132
13490TIP3    H261886   4.698   6.464  16.536 -1.3085  1.6558 -0.8346
13491TIP3   OH261887   1.518   1.976   4.975 -0.0838  0.3245 -0.8434
13491TIP3    H161888   1.490   2.067   4.971 -2.0431 -0.1969 -0.2706
13491TIP3    H261889   1.441   1.928   5.006  1.5507 -1.2190  1.2007
13492TIP3   OH261890   0.685   0.223  14.739 -0.1693  0.0023  0.2000
13492TIP3    H161891   0.711   0.161  14.807 -0.3640  0.1031  0.3646
13492TIP3    H261892   0.648   0.297  14.786 -1.9396 -0.6583 -0.0622
13493TIP3   OH261893   4.355   3.843  13.460 -0.8162  0.0466 -0.2279
13493TIP3    H161894   4.439   3.799  13.472 -1.4742 -1.2582 -0.2407
13493TIP3    H261895   4.308   3.828  13.542 -2.2302 -1.9708 -1.3177
13494TIP3   OH261896   3.653   0.022  12.241  0.1771  0.0920 -0.2128
13494TIP3    H161897   3.580   0.016  12.301 -0.5420  0.1961 -1.0571
13494TIP3    H261898   3.649   0.111  12.206  2.3947  1.1012  1.7790
13495TIP3   OH261899   3.533   5.639   5.963 -0.1660  0.8127 -0.0961
13495TIP3    H161900   3.498   5.673   6.045 -0.4113 -0.7632  0.4786
13495TIP3    H261901   3.461   5.590   5.924  0.8439 -1.0046  0.2461
13496TIP3   OH261902   4.647   0.620  16.152 -0.6719  0.2278 -0.1770
13496TIP3    H161903   4.735   0.650  16.177 -0.3531 -0.0144 -0.9726
13496TIP3    H261904   4.592   0.698  16.159 -0.7716  0.0306  1.9578
13497TIP3   OH261905   2.800   1.384   5.304  0.4044  0.4294 -0.0918
13497TIP3    H161906   2.749   1.457   5.270  0.1021 -0.3108 -1.2519
13497TIP3    H261907   2.846   1.349   5.228  2.4074  0.8681  0.8472
13498TIP3   OH261908   4.119   3.572   2.742 -0.2335  0.4919 -0.0844
13498TIP3    H161909   4.196   3.569   2.798 -0.4042  0.6359  0.1645
13498TIP3    H261910   4.152   3.558   2.653  0.3320  2.3421 -0.2069
13499TIP3   OH261911   0.156   6.017   0.257 -0.0783  0.4574  0.1016
13499TIP3    H161912   0.234   6.036   0.308 -1.4154  3.8369  1.1914
13499TIP3    H261913   0.115   5.942   0.301  1.7632 -0.4542  0.3457
13500TIP3   OH261914   6.110   3.078   4.924  0.0038 -0.2206 -0.3334
13500TIP3    H161915   6.106   3.085   5.019  0.3310  1.1886 -0.4078
13500TIP3    H261916   6.019   3.089   4.895 -0.0760 -0.5154 -0.1981
13501TIP3   OH261917   0.560   2.988   5.420 -0.9542  0.7600 -0.1900
13501TIP3    H161918   0.548   2.912   5.362  0.4590  0.4199 -0.0894
13501TIP3    H261919   0.507   2.968   5.497 -0.0807 -0.4839  0.1334
13502TIP3   OH261920   6.722   1.126   3.483  0.0930  0.1856 -0.1841
13502TIP3    H161921   6.686   1.215   3.479 -0.9608 -0.2119 -0.0268
13502TIP3    H261922   6.653   1.071   3.447  0.0795 -0.7419  1.1673
13503TIP3   OH261923   2.133   6.534  12.030  0.6808 -0.7860 -0.9173
13503TIP3    H161924   2.138   6.473  12.104 -0.2619  0.6192  0.3605
13503TIP3    H261925   2.173   6.614  12.063 -1.1347  0.3623 -1.3778
13504TIP3   OH261926   5.884   0.324   1.801 -0.3010  0.0329  0.0336
13504TIP3    H161927   5.937   0.392   1.760 -0.0954  0.4478  0.9614
13504TIP3    H261928   5.947   0.258   1.830 -0.3611  0.1314  0.3968
13505TIP3   OH261929   0.073   5.349   5.691  0.0116 -0.5890 -0.0163
13505TIP3    H161930   0.008   5.370   5.758 -0.7505 -3.8484  0.4344
13505TIP3    H261931   0.154   5.333   5.740  0.5148  0.8512 -0.3247
13506TIP3   OH261932   1.875   6.308  15.735  0.1724 -0.3442  0.3767
13506TIP3    H161933   1.956   6.342  15.772 -0.2575  0.0452  0.9982
13506TIP3    H261934   1.868   6.349  15.649  0.5615 -0.2743  0.3773
13507TIP3   OH261935   1.133   1.547  13.327 -0.5076 -0.0238 -0.5804
13507TIP3    H161936   1.118   1.553  13.421  1.3520 -0.6848 -0.1946
13507TIP3    H261937   1.119   1.635  13.294 -1.6441  0.1140  0.2198
13508TIP3   OH261938   1.745   0.834   5.234  0.7677 -0.0830 -0.2932
13508TIP3    H161939   1.666   0.878   5.267  1.6349 -0.6877  2.9175
13508TIP3    H261940   1.817   0.888   5.265  1.6888 -1.1085 -0.6095
13509TIP3   OH261941   1.736   4.733  16.570 -0.1261  0.1499  0.4210
13509TIP3    H161942   1.688   4.750  16.489  1.5676 -0.4207 -0.7561
13509TIP3    H261943   1.703   4.798  16.632 -0.2868  1.7245 -1.2255
13510TIP3   OH261944   5.733   1.412   5.308  0.4546  0.1498 -0.0104
13510TIP3    H161945   5.758   1.356   5.235 -0.0736  0.0285 -0.1025
13510TIP3    H261946   5.736   1.355   5.385 -1.5786 -0.4294 -0.3139
13511TIP3   OH261947   3.765   4.292   0.386  0.1299 -0.4640  0.1414
13511TIP3    H161948   3.734   4.374   0.349  1.4741 -0.2140 -0.4962
13511TIP3    H261949   3.785   4.312   0.477 -1.8101 -0.7120  0.6544
13512TIP3   OH261950   1.799   6.129  13.832 -0.0018 -0.1452  0.4725
13512TIP3    H161951   1.711   6.108  13.862 -0.5337  1.6092  0.2317
13512TIP3    H261952   1.788   6.207  13.779  1.4171 -1.1270 -1.3801
13513TIP3   OH261953   2.230   3.734  15.715  0.4740  0.2241 -0.2594
13513TIP3    H161954   2.267   3.685  15.789  0.9513  0.9261 -0.0230
13513TIP3    H261955   2.299   3.796  15.691 -0.7909  2.0757  0.6620
13514TIP3   OH261956   2.793   1.643   1.636  0.1895 -0.2032 -0.2819
13514TIP3    H161957   2.748   1.560   1.651  1.4887 -0.7763  0.6069
13514TIP3    H261958   2.731   1.709   1.667 -0.9813 -0.7838 -1.2603
13515TIP3   OH261959   5.891   0.143  14.909  0.4473 -0.3172  0.2104
13515TIP3    H161960   5.956   0.075  14.927  1.0699  0.2092  0.0182
13515TIP3    H261961   5.922   0.184  14.828 -0.7745 -0.8143 -0.5249
13516TIP3   OH261962   0.199   5.060  14.187  0.3272 -0.0292  0.0726
13516TIP3    H161963   0.176   4.968  14.196  0.8459 -0.1715 -0.0223
13516TIP3    H261964   0.129   5.097  14.132 -1.6040  0.3528  2.6166
13517TIP3   OH261965   0.964   3.179  14.937  0.3019  0.6030  0.4619
13517TIP3    H161966   0.915   3.247  14.982  0.8413  0.4627  1.2919
13517TIP3    H261967   0.905   3.103  14.937  0.3896  0.5240  1.1886
13518TIP3   OH261968   3.133   0.587   3.412  0.3835  0.3866 -0.1667
13518TIP3    H161969   3.194   0.588   3.339  0.4428  0.3604 -0.1181
13518TIP3    H261970   3.063   0.528   3.384  0.7741 -0.2198  0.0908
13519TIP3   OH261971   4.790   5.199   1.280  0.1921 -0.3332  0.0180
13519TIP3    H161972   4.789   5.272   1.342 -0.9289 -0.3568  0.0380
13519TIP3    H261973   4.795   5.240   1.194  0.1040 -0.2522  0.0516
13520TIP3   OH261974   6.327   3.834   4.747  0.0550  0.0481  0.1546
13520TIP3    H161975   6.284   3.907   4.792 -1.7813 -1.0745  0.3023
13520TIP3    H261976   6.308   3.847   4.655  1.1684  0.6449 -0.0086
13521TIP3   OH261977   1.399   3.418  13.366 -0.1561 -0.1839  0.1712
13521TIP3    H161978   1.378   3.339  13.415  1.6290  0.2567  1.7850
13521TIP3    H261979   1.495   3.419  13.362 -0.1837  1.2409 -0.9491
13522TIP3   OH261980   5.633   0.352   2.512 -0.0584  0.1780 -0.1618
13522TIP3    H161981   5.594   0.270   2.480  0.1583  0.7682 -2.0374
13522TIP3    H261982   5.722   0.352   2.475 -0.1108  1.3331 -0.3136
13523TIP3   OH261983   6.730   0.332   3.652  0.1677  0.1807  0.2814
13523TIP3    H161984   6.789   0.402   3.623  0.7020 -0.3691  0.0084
13523TIP3    H261985   6.682   0.305   3.574 -0.4772  0.6478  0.5105
13524TIP3   OH261986   4.582   4.375   4.592 -0.3363  0.0896  0.1603
13524TIP3    H161987   4.635   4.361   4.514  0.2272 -0.9155  0.7045
13524TIP3    H261988   4.552   4.288   4.617 -0.2832  0.3627  1.2314
13525TIP3   OH261989   5.934   1.611  11.727 -0.0692  0.0291  0.0346
13525TIP3    H161990   5.893   1.534  11.765  1.7603 -0.5640  0.9286
13525TIP3    H261991   5.978   1.653  11.801  1.1376  0.4723 -0.9044
13526TIP3   OH261992   5.186   6.442  10.976  0.0705 -0.4504  0.1080
13526TIP3    H161993   5.242   6.368  10.951 -1.2619 -1.1129 -1.0895
13526TIP3    H261994   5.119   6.445  10.908 -0.2889  1.4761  0.4978
13527TIP3   OH261995   4.048   5.088  16.639 -0.7614  0.5642 -0.7340
13527TIP3    H161996   4.108   5.015  16.652  0.5107  2.0523  2.9671
13527TIP3    H261997   4.104   5.163  16.618 -1.3484  1.6917  1.4504
13528TIP3   OH261998   6.561   1.488   6.568  0.4997 -0.0611  0.0565
13528TIP3    H161999   6.637   1.472   6.624 -0.0995 -0.5617  0.7391
13528TIP3    H262000   6.547   1.405   6.522 -1.0750 -0.7946  1.7274
13529TIP3   OH262001   4.060   3.297   0.095 -0.3241 -0.0547  0.4086
13529TIP3    H162002   4.147   3.268   0.067 -0.8921 -2.1512  0.5919
13529TIP3    H262003   4.000   3.250   0.037 -1.3928 -1.0186  2.2087
13530TIP3   OH262004   4.407   0.762  11.298 -0.3288 -0.2967 -0.0441
13530TIP3    H162005   4.387   0.738  11.207 -0.9749  0.3981 -0.0928
13530TIP3    H262006   4.420   0.857  11.295  1.6224 -0.5291  0.2468
13531TIP3   OH262007   6.546   5.177   2.282  0.3538 -0.1045  0.0839
13531TIP3    H162008   6.602   5.248   2.253  0.3176  0.3279  1.0277
13531TIP3    H262009   6.511   5.206   2.366 -1.7505 -0.1129 -0.7222
13532TIP3   OH262010   2.222   0.963   2.351  0.4986 -0.8235  0.1323
13532TIP3    H162011   2.264   0.926   2.428 -2.2042 -0.2909  2.0458
13532TIP3    H262012   2.143   0.910   2.339 -0.1651  0.3541 -1.0076
13533TIP3   OH262013   5.799   0.372   3.383 -0.3250  0.1740  0.2941
13533TIP3    H162014   5.893   0.355   3.372 -0.1204  1.7789 -0.9557
13533TIP3    H262015   5.789   0.465   3.361 -2.1416  0.1652  0.8956
13534TIP3   OH262016   1.800   4.969  17.030 -0.0035 -0.6318  0.2130
13534TIP3    H162017   1.727   5.030  17.032 -1.5747 -2.4008  2.6432
13534TIP3    H262018   1.847   4.990  16.949 -1.7123  2.2285 -0.1693
13535TIP3   OH262019   0.939   4.635  12.670 -0.6170 -0.5432 -0.5245
13535TIP3    H162020   1.029   4.624  12.699 -0.3887  2.9877  0.6419
13535TIP3    H262021   0.886   4.601  12.742 -0.0958  0.9005  0.6094
13536TIP3   OH262022   4.505   4.401  14.979  0.0435 -0.1423  0.6524
13536TIP3    H162023   4.450   4.359  15.046 -1.6454 -0.4358 -0.8480
13536TIP3    H262024   4.547   4.474  15.025 -1.0380 -0.3412  2.0305
13537TIP3   OH262025   5.564   2.257   2.432 -0.1100  0.2780 -0.0767
13537TIP3    H162026   5.574   2.279   2.340  0.4842  0.6615  0.0711
13537TIP3    H262027   5.628   2.188   2.447 -1.1538 -0.7460 -0.2630
13538TIP3   OH262028   4.959   3.435  13.294  0.8315 -0.1352  0.4380
13538TIP3    H162029   4.905   3.429  13.215  0.1614 -0.8545  0.9262
13538TIP3    H262030   5.032   3.492  13.270  0.8835 -0.7119 -0.8315
13539TIP3   OH262031   2.764   6.222  15.310 -0.2306  0.7274 -0.4134
13539TIP3    H162032   2.700   6.168  15.357 -0.5268  0.5173 -1.0447
13539TIP3    H262033   2.713   6.293  15.273 -0.2252  0.1462 -1.5518
13540TIP3   OH262034   6.708   5.465  12.419  0.1676 -0.0848 -0.7408
13540TIP3    H162035   6.675   5.378  12.441  0.3428 -0.1289 -0.6512
13540TIP3    H262036   6.648   5.525  12.463  1.5525 -0.1746  1.4127
13541TIP3   OH262037   2.257   1.330   4.724 -0.2796 -0.0512  0.7377
13541TIP3    H162038   2.237   1.420   4.751 -3.0339 -0.5128  0.4486
13541TIP3    H262039   2.227   1.324   4.634  1.0143 -0.9585  0.3361
13542TIP3   OH262040   2.659   5.828   3.108  0.0977 -0.9847 -0.4143
13542TIP3    H162041   2.706   5.759   3.062 -1.4493 -1.6731 -1.0086
13542TIP3    H262042   2.607   5.871   3.040  0.8270  0.6175 -0.0111
13543TIP3   OH262043   4.071   6.311   6.201  0.3828 -0.9559 -0.0486
13543TIP3    H162044   4.040   6.292   6.113  1.7203 -2.9996 -0.1581
13543TIP3    H262045   4.052   6.404   6.214 -1.7663 -1.0993 -1.6536
13544TIP3   OH262046   1.027   1.266  12.471 -0.7453 -0.2375 -0.1468
13544TIP3    H162047   0.954   1.292  12.528 -0.9038  1.1066 -0.9107
13544TIP3    H262048   1.056   1.182  12.506 -0.2951  0.8906  2.4240
13545TIP3   OH262049   0.975   4.633   6.455 -0.1379 -0.1123  0.3004
13545TIP3    H162050   0.915   4.563   6.482 -1.0122  0.2067 -0.7666
13545TIP3    H262051   0.919   4.709   6.440  0.5294  0.2040 -0.6787
13546TIP3   OH262052   6.510   2.786  10.892  0.1670 -0.2659 -0.1170
13546TIP3    H162053   6.442   2.849  10.872  1.5982  1.0658 -0.9936
13546TIP3    H262054   6.469   2.701  10.877 -1.7731  0.3999  1.0055
13547TIP3   OH262055   6.399   3.752  14.310 -0.2529 -0.4947 -0.1943
13547TIP3    H162056   6.305   3.745  14.293 -0.7176  2.5282  0.5318
13547TIP3    H262057   6.431   3.814  14.244  0.3315  1.7226  2.0303
13548TIP3   OH262058   3.479   3.174  13.036  0.1944  0.2460  0.0119
13548TIP3    H162059   3.418   3.238  13.072 -0.0146  0.3847 -0.5823
13548TIP3    H262060   3.565   3.213  13.048  0.4397 -0.9336  2.9911
13549TIP3   OH262061   0.565   2.791   5.245 -0.0037  0.6648 -0.0016
13549TIP3    H162062   0.611   2.710   5.222 -1.3163 -0.5532  1.4688
13549TIP3    H262063   0.543   2.830   5.161  0.4804 -0.6131 -0.7551
13550TIP3   OH262064   5.332   5.036  12.401  0.3890 -0.4892 -0.5123
13550TIP3    H162065   5.272   4.966  12.375 -0.2411  0.8244 -2.8433
13550TIP3    H262066   5.415   5.012  12.361  0.1298  0.1477 -1.4546
13551TIP3   OH262067   6.599   2.815   3.746 -0.0607 -0.5895 -0.3840
13551TIP3    H162068   6.575   2.902   3.715 -2.5747  0.0430  2.7939
13551TIP3    H262069   6.694   2.819   3.756  0.0468  1.3164 -1.5965
13552TIP3   OH262070   2.326   2.927   1.921  0.2333 -0.1373 -0.2147
13552TIP3    H162071   2.417   2.898   1.912  0.4335  0.3443  0.1749
13552TIP3    H262072   2.310   2.980   1.843 -0.3900 -1.8955 -1.3344
13553TIP3   OH262073   5.859   1.706   0.268  0.0466 -0.0487 -0.6518
13553TIP3    H162074   5.918   1.712   0.193  0.8249  0.2316 -0.0314
13553TIP3    H262075   5.878   1.784   0.320 -0.6232 -0.1371 -0.2632
13554TIP3   OH262076   2.195   2.444   2.007  0.2506 -0.4598 -0.2734
13554TIP3    H162077   2.276   2.453   2.057  0.2361 -1.3845 -0.0663
13554TIP3    H262078   2.191   2.351   1.985  0.7965  0.0669 -2.9272
13555TIP3   OH262079   5.747   6.660   5.884  0.2707 -0.5491  0.0358
13555TIP3    H162080   5.712   6.571   5.879  1.2568 -0.9317 -0.3089
13555TIP3    H262081   5.679   6.710   5.929 -1.0684 -1.0684 -1.3221
13556TIP3   OH262082   1.301   3.870   2.144  0.2806 -0.2445 -0.2163
13556TIP3    H162083   1.252   3.794   2.113  0.2988 -0.6047  0.6103
13556TIP3    H262084   1.321   3.919   2.065 -2.8615  0.8135 -0.4821
13557TIP3   OH262085   6.035   1.510   3.960 -0.0845 -0.3389  0.1749
13557TIP3    H162086   6.111   1.566   3.945 -1.3390  1.2543 -0.5052
13557TIP3    H262087   5.978   1.526   3.885 -1.3593 -1.0610  0.9546
13558TIP3   OH262088   6.486   0.395   6.430  0.1713  0.4793 -0.2500
13558TIP3    H162089   6.393   0.409   6.415 -0.1146 -0.2606  0.7335
13558TIP3    H262090   6.508   0.452   6.503  0.2558 -0.0890  0.1747
13559TIP3   OH262091   1.648   5.649  16.399  0.7110 -0.0161  0.0108
13559TIP3    H162092   1.576   5.587  16.383 -0.4631  1.5642 -1.2314
13559TIP3    H262093   1.638   5.674  16.491 -1.3229  1.2714 -0.4867
13560TIP3   OH262094   1.307   0.614  12.670  0.0826 -0.0293  0.4053
13560TIP3    H162095   1.262   0.622  12.754 -0.6351  0.8390 -0.0511
13560TIP3    H262096   1.362   0.537  12.680 -1.0293 -0.7456  1.1936
13561TIP3   OH262097   5.709   2.235  12.097 -0.3853 -0.2206  0.3319
13561TIP3    H162098   5.654   2.167  12.136 -0.2926 -0.7983 -0.5057
13561TIP3    H262099   5.665   2.256  12.014  0.2846 -0.1908 -0.0189
13562TIP3   OH262100   1.910   5.426  14.636  0.3436 -0.2905 -0.4730
13562TIP3    H162101   1.821   5.413  14.669 -0.6634  2.5623 -1.7115
13562TIP3    H262102   1.922   5.357  14.571 -1.0436 -0.6001 -0.4250
13563TIP3   OH262103   4.803   6.329   5.305 -0.1385  0.2235 -0.2999
13563TIP3    H162104   4.885   6.376   5.286 -0.4326  0.9103  0.0811
13563TIP3    H262105   4.795   6.332   5.400  0.9610 -2.5726 -0.0263
13564TIP3   OH262106   5.510   0.501  13.664 -0.0712  0.2943  0.3615
13564TIP3    H162107   5.426   0.506  13.619 -0.0702  1.3217  0.4635
13564TIP3    H262108   5.526   0.407  13.674  0.0099  0.0141 -1.9358
13565TIP3   OH262109   4.851   3.554  14.899  0.4646 -0.3956 -0.0569
13565TIP3    H162110   4.838   3.485  14.833 -0.8932 -2.0737  1.8472
13565TIP3    H262111   4.917   3.518  14.957  0.8001  0.5682  0.1667
13566TIP3   OH262112   6.422   4.993  15.236 -0.1729  0.4547 -0.3714
13566TIP3    H162113   6.513   5.017  15.217  0.9728 -1.4572  2.1008
13566TIP3    H262114   6.417   4.996  15.332 -3.4016  2.5761 -0.4456
13567TIP3   OH262115   6.378   4.814  12.021 -0.1178 -0.4624 -0.0909
13567TIP3    H162116   6.393   4.804  12.115  1.6985 -2.7880 -0.5237
13567TIP3    H262117   6.284   4.826  12.013 -0.1098  1.7328  2.1074
13568TIP3   OH262118   4.697   4.583   3.180  0.3760  0.0910  0.4885
13568TIP3    H162119   4.673   4.516   3.117  1.4526  1.5510 -1.5935
13568TIP3    H262120   4.657   4.663   3.147  1.5327  1.0207  1.2559
13569TIP3   OH262121   6.593   2.944   6.319  0.1907 -0.0817 -0.4024
13569TIP3    H162122   6.628   3.030   6.293 -0.5511 -0.0643 -1.4008
13569TIP3    H262123   6.670   2.896   6.350  0.5104  1.1925  0.9154
13570TIP3   OH262124   6.099   6.682  12.840 -0.0943  0.0354 -0.0000
13570TIP3    H162125   6.135   6.661  12.926  0.5993  0.7333 -0.1105
13570TIP3    H262126   6.078   6.597  12.801 -0.1183 -0.2972  0.7358
13571TIP3   OH262127   0.915   5.888   5.181 -0.1964 -0.0131 -0.7940
13571TIP3    H162128   0.839   5.922   5.134  0.1308  0.7992 -0.7487
13571TIP3    H262129   0.908   5.792   5.173 -0.8960  0.0782 -1.2938
13572TIP3   OH262130   3.623   6.375  16.072 -0.1679 -0.0929  0.1015
13572TIP3    H162131   3.703   6.341  16.033 -1.1885 -0.9263 -1.3862
13572TIP3    H262132   3.652   6.443  16.132  1.9248 -2.9268  2.5653
13573TIP3   OH262133   1.161   3.927  16.402  0.6721 -0.4586 -0.2140
13573TIP3    H162134   1.148   4.002  16.460  2.1665  1.1585 -1.8636
13573TIP3    H262135   1.078   3.920  16.354  0.0080 -0.8087  0.9347
13574TIP3   OH262136   1.547   5.059   3.095  0.0090  0.3675  0.4796
13574TIP3    H162137   1.608   5.133   3.094 -1.2317  1.4199 -0.5074
13574TIP3    H262138   1.590   4.992   3.043  0.0655  1.3472 -0.7748
13575TIP3   OH262139   0.162   6.002   1.357  0.1027  0.6189  0.3491
13575TIP3    H162140   0.178   5.914   1.323 -2.2308  0.1570  0.3080
13575TIP3    H262141   0.206   6.060   1.295  0.8186 -0.4467 -0.1813
13576TIP3   OH262142   0.014   5.105  14.647 -0.0937  0.4798 -0.0700
13576TIP3    H162143   0.013   5.039  14.717 -1.3445  1.0220  0.4615
13576TIP3    H262144  -0.069   5.152  14.658 -0.1983  0.7407 -1.7789
13577TIP3   OH262145   1.957   3.913   6.257 -0.0176 -0.0125 -0.0975
13577TIP3    H162146   1.981   3.845   6.319  0.5744 -0.6254 -0.9782
13577TIP3    H262147   1.988   3.994   6.297  1.4802 -0.5352 -0.1457
13578TIP3   OH262148   6.769   2.221  16.224  0.8512  0.4801 -0.4063
13578TIP3    H162149   6.732   2.306  16.199 -0.0023  0.1730 -0.2327
13578TIP3    H262150   6.693   2.164  16.233  1.4797 -0.5241 -1.2998
13579TIP3   OH262151   1.445   6.486  13.976  0.7338 -0.2202  0.5094
13579TIP3    H162152   1.414   6.397  13.957  0.7138 -0.3092  0.9608
13579TIP3    H262153   1.409   6.539  13.904 -1.9179 -0.0035  1.8664
13580TIP3   OH262154   3.613   1.109  12.253  0.3053 -0.4519 -0.4164
13580TIP3    H162155   3.684   1.087  12.313  0.4383 -2.5929 -1.2525
13580TIP3    H262156   3.586   1.198  12.277  1.1782 -0.7736  1.9482
13581TIP3   OH262157   5.756   3.229   1.110 -0.1924  0.8322 -0.3716
13581TIP3    H162158   5.700   3.153   1.092 -0.8130  1.0612  0.4978
13581TIP3    H262159   5.795   3.251   1.026 -1.3604  0.6144 -0.9931
13582TIP3   OH262160   5.947   5.221   0.513 -0.0849  0.2858  0.3355
13582TIP3    H162161   5.876   5.281   0.490  0.3447  0.6872  0.0311
13582TIP3    H262162   5.991   5.263   0.587 -1.3609 -0.9239  1.8476
13583TIP3   OH262163   1.264   6.704  16.687  0.3845  0.0891  0.5540
13583TIP3    H162164   1.203   6.768  16.650 -0.7355 -1.1536  0.2146
13583TIP3    H262165   1.216   6.665  16.761  1.6519  0.7430  1.7748
13584TIP3   OH262166   3.597   5.082   5.050 -0.3250  0.0565  0.2818
13584TIP3    H162167   3.633   5.169   5.033 -0.7438  0.0558 -0.6676
13584TIP3    H262168   3.652   5.046   5.120  0.5867  0.6278 -0.1273
13585TIP3   OH262169   5.152   3.071   2.119 -0.3017  0.3594 -0.7005
13585TIP3    H162170   5.111   3.156   2.135  0.3094  0.5299  0.0114
13585TIP3    H262171   5.214   3.087   2.048  0.0759  0.6040 -0.3224
13586TIP3   OH262172   1.659   3.018   2.576 -0.0127 -0.2577 -0.4982
13586TIP3    H162173   1.746   2.985   2.600  0.2254 -0.4883 -1.6281
13586TIP3    H262174   1.600   2.977   2.640  0.4858 -1.5243 -0.8132
13587TIP3   OH262175   6.466   0.973   0.443 -0.7027 -0.0435 -0.1393
13587TIP3    H162176   6.378   0.966   0.407 -0.7107 -0.1487 -0.0997
13587TIP3    H262177   6.517   0.909   0.394 -0.4374  0.6682 -0.7950
13588TIP3   OH262178   5.137   1.753  16.500  0.0496 -0.1053  0.7057
13588TIP3    H162179   5.095   1.824  16.548  0.9981  1.6036 -0.8759
13588TIP3    H262180   5.067   1.690  16.485 -1.4031  1.5685  0.1536
13589TIP3   OH262181   1.616   3.468   3.483  0.0394  0.4763  0.2524
13589TIP3    H162182   1.580   3.554   3.504 -0.8090  0.0501  0.6250
13589TIP3    H262183   1.693   3.486   3.430 -0.5243  1.4460 -0.2608
13590TIP3   OH262184   6.212   3.936  15.389  0.1522 -0.4820  0.2316
13590TIP3    H162185   6.282   3.970  15.333 -0.6921 -1.5666 -1.5828
13590TIP3    H262186   6.253   3.926  15.475  1.4870  1.3158 -0.1234
13591TIP3   OH262187   5.173   1.094  16.030 -0.8567 -0.2124  0.5211
13591TIP3    H162188   5.090   1.059  16.063 -0.0095 -0.9056  1.9836
13591TIP3    H262189   5.219   1.019  15.994 -0.2700 -0.0795  0.9887
13592TIP3   OH262190   3.660   2.615  15.811  0.7297  0.0451 -0.4043
13592TIP3    H162191   3.706   2.655  15.885  0.7371  0.2002 -0.4921
13592TIP3    H262192   3.662   2.521  15.830 -0.4786  0.1802  0.4844
13593TIP3   OH262193   2.035   3.347  16.375  0.1752  0.3854  0.0842
13593TIP3    H162194   1.944   3.345  16.406  0.0489 -1.2140 -0.2870
13593TIP3    H262195   2.087   3.360  16.454 -0.3335  0.2543  0.4470
13594TIP3   OH262196   5.993   3.008   0.100  0.2119  0.0282  0.0536
13594TIP3    H162197   5.910   2.977   0.137  0.1673 -0.5487 -0.5038
13594TIP3    H262198   6.033   2.929   0.062 -0.4293  0.7980 -2.4239
13595TIP3   OH262199   3.615   5.393  16.395  0.5324  0.5457 -0.4837
13595TIP3    H162200   3.684   5.359  16.338 -0.3056 -0.2692 -1.0409
13595TIP3    H262201   3.577   5.466  16.346  1.7018  1.7217  0.3007
13596TIP3   OH262202   3.448   3.061  16.551  0.1681 -0.2471  0.1122
13596TIP3    H162203   3.451   3.127  16.620 -0.1594 -0.6915  0.5623
13596TIP3    H262204   3.493   3.101  16.477  0.3276  0.3213  0.5128
13597TIP3   OH262205   0.417   2.853   4.073 -0.2566  0.4355 -0.1878
13597TIP3    H162206   0.421   2.927   4.013 -0.7291 -0.6029 -1.5750
13597TIP3    H262207   0.362   2.883   4.146  1.7416  2.3050  0.6464
13598TIP3   OH262208   5.726   4.626   6.515  0.5821  0.1393 -0.4013
13598TIP3    H162209   5.756   4.693   6.453  0.1937  1.1970  0.5244
13598TIP3    H262210   5.634   4.614   6.493  1.0776 -1.5037 -1.7973
13599TIP3   OH262211   6.466   5.584   3.819 -0.4619 -0.4283 -0.0183
13599TIP3    H162212   6.374   5.593   3.841 -0.5053  0.5272 -0.5136
13599TIP3    H262213   6.467   5.576   3.723  0.0738  2.2669 -0.3346
13600TIP3   OH262214   6.301   3.757  12.390 -0.3136 -0.0775 -0.0270
13600TIP3    H162215   6.324   3.824  12.454 -0.5267 -0.8884  0.9199
13600TIP3    H262216   6.233   3.704  12.433  1.3770 -2.2522  0.1843
13601TIP3   OH262217   1.226   4.807  16.110  1.0170 -0.3054 -0.0214
13601TIP3    H162218   1.277   4.862  16.169  2.0224  0.8809 -1.8933
13601TIP3    H262219   1.270   4.816  16.025  0.0880 -2.5327 -0.8166
13602TIP3   OH262220   2.873   5.025   0.730 -0.1212  0.4160  0.0059
13602TIP3    H162221   2.864   5.112   0.767 -0.8699  0.6350 -0.6729
13602TIP3    H262222   2.930   5.037   0.654 -0.0638  0.2749  0.0263
13603TIP3   OH262223   1.049   4.791   0.156  0.5962 -0.4139  0.3640
13603TIP3    H162224   0.963   4.764   0.188  0.6772  0.0110  0.9494
13603TIP3    H262225   1.111   4.742   0.210  0.7387 -1.5537 -0.7701
13604TIP3   OH262226   6.375   0.130  12.141 -0.9717 -0.1468  0.1294
13604TIP3    H162227   6.461   0.150  12.104 -1.3450 -1.8088 -1.8081
13604TIP3    H262228   6.373   0.034  12.146 -2.5396 -0.1193  0.5721
13605TIP3   OH262229   0.132   3.106   5.072 -0.1808 -0.9448 -0.4327
13605TIP3    H162230   0.123   3.195   5.106  0.7385 -1.2810  0.7764
13605TIP3    H262231   0.050   3.089   5.024  0.1298  0.9647 -1.7370
13606TIP3   OH262232   1.921   2.442  16.197  0.5671  0.2195  0.0749
13606TIP3    H162233   1.981   2.383  16.152  1.2248  0.7569  0.2315
13606TIP3    H262234   1.842   2.442  16.142 -0.4190 -2.6701  1.3337
13607TIP3   OH262235   5.724   0.302  13.968 -0.0023 -0.2696 -0.5750
13607TIP3    H162236   5.798   0.268  14.020 -0.9393 -3.8698 -1.3104
13607TIP3    H262237   5.763   0.323  13.883  0.7373  1.2165  0.1054
13608TIP3   OH262238   5.326   1.087   4.307 -0.4236  0.4215 -0.8218
13608TIP3    H162239   5.357   1.012   4.359 -0.3459 -0.5748 -2.2286
13608TIP3    H262240   5.404   1.140   4.294 -0.1810  0.0488 -0.9200
13609TIP3   OH262241   2.741   5.876   0.866  0.0264 -0.2518 -0.4139
13609TIP3    H162242   2.828   5.892   0.901 -0.4445  0.5689  0.4251
13609TIP3    H262243   2.726   5.949   0.804 -0.8878  0.8851  1.0684
13610TIP3   OH262244   1.495   4.370   5.151  0.4606 -0.0359 -0.7226
13610TIP3    H162245   1.495   4.465   5.165  0.5190 -0.0517 -0.6129
13610TIP3    H262246   1.468   4.359   5.060  2.0881  0.1691 -1.2693
13611TIP3   OH262247   4.784   4.224  13.915  0.1969  0.7014  0.2172
13611TIP3    H162248   4.760   4.262  13.830  1.3177  0.4618 -0.2173
13611TIP3    H262249   4.860   4.170  13.896 -0.9887 -1.3118  0.9259
13612TIP3   OH262250   3.796   0.843  14.821 -0.6186 -0.0212 -0.4557
13612TIP3    H162251   3.872   0.901  14.828  0.0024 -1.0696  2.8051
13612TIP3    H262252   3.830   0.765  14.778 -0.4360  0.3725 -1.0457
13613TIP3   OH262253   2.089   4.947  16.379  0.2261 -0.2696 -0.7593
13613TIP3    H162254   2.060   4.882  16.443 -1.7546  0.1968 -1.1342
13613TIP3    H262255   2.118   5.021  16.432  1.3897 -0.9785 -0.3644
13614TIP3   OH262256   0.933   2.597  12.111 -0.2284  0.2928  0.0758
13614TIP3    H162257   0.890   2.671  12.068 -0.8713  0.4562  0.9622
13614TIP3    H262258   0.865   2.561  12.169  0.2141 -0.7195 -0.0211
13615TIP3   OH262259   4.220   1.309  12.216 -0.5144  0.0135 -0.1893
13615TIP3    H162260   4.275   1.270  12.283 -0.7038 -0.2641 -0.1936
13615TIP3    H262261   4.174   1.380  12.261 -0.8483 -0.3495  0.0449
13616TIP3   OH262262   6.593   3.087   5.671 -0.1176 -0.8221 -0.2031
13616TIP3    H162263   6.558   3.149   5.607 -0.6479 -2.2396 -1.3402
13616TIP3    H262264   6.688   3.089   5.657 -0.1479 -0.4073 -0.3609
13617TIP3   OH262265   0.725   5.122  15.473  0.4703  0.2869 -0.2647
13617TIP3    H162266   0.651   5.101  15.531  1.8492 -1.0537  1.0970
13617TIP3    H262267   0.696   5.200  15.425 -1.7132 -0.0409  0.4098
13618TIP3   OH262268   6.307   0.048  13.718  0.9663  0.0424 -0.0378
13618TIP3    H162269   6.291   0.063  13.625 -1.6120 -1.4746  0.0724
13618TIP3    H262270   6.334   0.134  13.751  0.7201  0.9173 -1.9571
13619TIP3   OH262271   4.113   0.130  16.145 -0.3678 -0.1964 -0.4791
13619TIP3    H162272   4.109   0.220  16.177  1.2320  0.0090 -0.7470
13619TIP3    H262273   4.037   0.121  16.089 -1.1267  0.6505  0.3725
13620TIP3   OH262274   2.991   0.338   0.063  0.5188 -0.6850 -0.5424
13620TIP3    H162275   2.918   0.287   0.029 -0.1855 -0.6070  0.7926
13620TIP3    H262276   3.061   0.274   0.077 -1.1615 -1.9070  3.5395
13621TIP3   OH262277   5.817   4.779   2.169 -0.6222  0.0523  0.0578
13621TIP3    H162278   5.792   4.761   2.259 -2.1770 -1.3244 -0.5906
13621TIP3    H262279   5.910   4.755   2.164 -0.3750  0.6733  1.3992
13622TIP3   OH262280   2.664   2.605   1.642 -0.6239  0.3701 -0.0121
13622TIP3    H162281   2.582   2.598   1.690  0.8428 -0.4050  2.5450
13622TIP3    H262282   2.672   2.522   1.595 -1.7005  0.8271 -1.0680
13623TIP3   OH262283   6.164   1.574   0.672 -0.1934 -0.3717 -0.9758
13623TIP3    H162284   6.212   1.525   0.605  1.1446  1.7021 -1.6323
13623TIP3    H262285   6.137   1.655   0.628 -2.1869 -0.3675  0.1051
13624TIP3   OH262286   2.528   5.358   2.050  0.2328  0.2189  0.3017
13624TIP3    H162287   2.492   5.374   2.136  0.1350 -1.1822  0.5568
13624TIP3    H262288   2.480   5.416   1.991 -0.7461  0.1049  0.9790
13625TIP3   OH262289   1.209   5.708   6.419 -0.0273  0.0423 -0.3772
13625TIP3    H162290   1.164   5.716   6.503  2.2634  0.2335  0.9383
13625TIP3    H262291   1.237   5.616   6.417 -1.8589 -0.5233 -1.9661
13626TIP3   OH262292   1.985   2.116   3.880  0.4821  0.8269  0.4156
13626TIP3    H162293   2.010   2.031   3.844 -1.1182  0.0505  1.0264
13626TIP3    H262294   1.967   2.099   3.972 -0.6488  1.6403  0.3685
13627TIP3   OH262295   0.482   4.234   1.796 -0.4706  0.2018  0.5219
13627TIP3    H162296   0.527   4.317   1.811  0.3329  0.1706 -1.4361
13627TIP3    H262297   0.481   4.224   1.701 -0.0097 -2.3227  0.7111
13628TIP3   OH262298   2.327   3.952  17.070  0.6295 -0.1752  0.1779
13628TIP3    H162299   2.360   3.899  17.142 -1.6965 -0.8835  0.8071
13628TIP3    H262300   2.299   4.034  17.111  0.4734 -0.0721 -0.1275
13629TIP3   OH262301   4.053   5.568  13.272  0.0399  0.2997  0.7638
13629TIP3    H162302   4.087   5.479  13.267 -0.5019  0.1326 -0.2497
13629TIP3    H262303   4.102   5.617  13.206 -1.4207  0.1257 -0.4949
13630TIP3   OH262304   2.839   5.729   2.304  0.1285  0.0946 -0.2460
13630TIP3    H162305   2.747   5.708   2.321 -0.8158  3.2709 -0.7204
13630TIP3    H262306   2.843   5.739   2.209  1.0532 -0.3199 -0.2568
13631TIP3   OH262307   4.590   4.572   2.880  0.2590 -0.3262 -0.1360
13631TIP3    H162308   4.593   4.576   2.784 -3.0309 -0.2582 -0.3359
13631TIP3    H262309   4.616   4.660   2.908  0.5009 -0.1193 -0.9825
13632TIP3   OH262310   4.354   5.425   4.838 -0.1666  0.2018  0.1401
13632TIP3    H162311   4.417   5.386   4.776 -0.9605 -0.1220 -0.4775
13632TIP3    H262312   4.271   5.424   4.791 -0.3558  2.0510  0.3576
13633TIP3   OH262313   6.341   3.874  15.636  0.2343  0.1835  0.2172
13633TIP3    H162314   6.341   3.951  15.694 -1.2046 -0.1854  0.7577
13633TIP3    H262315   6.425   3.831  15.654  0.9235  1.4363  0.1409
13634TIP3   OH262316   3.453   3.965   4.089  0.5390  0.0811  0.3324
13634TIP3    H162317   3.480   3.997   4.175  1.4659 -2.1600  0.9317
13634TIP3    H262318   3.383   4.025   4.062  0.1863  0.7921  2.6489
13635TIP3   OH262319   2.626   4.668   5.683  0.1064 -0.3285 -0.3386
13635TIP3    H162320   2.618   4.576   5.707  0.9098 -0.2645  0.2219
13635TIP3    H262321   2.636   4.714   5.766 -2.0922  0.4986 -0.4542
13636TIP3   OH262322   2.034   5.146  15.876  0.0709 -0.5270  0.4161
13636TIP3    H162323   2.068   5.129  15.964  1.5717  0.9397  0.1665
13636TIP3    H262324   2.060   5.068  15.826 -0.8119 -1.3816  1.2450
13637TIP3   OH262325   1.579   6.668   1.186 -0.0882 -0.5470  0.1204
13637TIP3    H162326   1.550   6.754   1.156 -0.3158 -0.0919  1.5446
13637TIP3    H262327   1.669   6.659   1.153  0.3001  0.6856  0.7906
13638TIP3   OH262328   5.263   5.476  14.478  0.3831  0.0688 -0.1802
13638TIP3    H162329   5.339   5.439  14.523  1.9394  2.9397 -0.1954
13638TIP3    H262330   5.254   5.424  14.399 -0.0158 -2.6425  1.5446
13639TIP3   OH262331   0.253   1.024  14.770 -0.1041  0.5502  0.4151
13639TIP3    H162332   0.199   1.086  14.721 -1.4989 -0.1651  0.9907
13639TIP3    H262333   0.337   1.024  14.725 -1.1938  0.1886 -1.7482
13640TIP3   OH262334   5.555   2.492   2.580  0.5284  0.2712  0.4432
13640TIP3    H162335   5.501   2.480   2.657 -0.7120 -0.3646 -0.5080
13640TIP3    H262336   5.564   2.405   2.542  0.6833  0.6511 -0.4175
13641TIP3   OH262337   0.289   2.634   2.518 -0.3945  0.6523 -0.2881
13641TIP3    H162338   0.351   2.702   2.543  2.6507 -0.7121 -3.3681
13641TIP3    H262339   0.315   2.557   2.570 -1.1180  0.6906  0.1484
13642TIP3   OH262340   1.737   5.282   3.091  0.2491  0.5233 -0.3153
13642TIP3    H162341   1.770   5.325   3.170  1.0447  0.1251 -0.4125
13642TIP3    H262342   1.693   5.351   3.042 -0.0970  0.8130  0.3933
13643TIP3   OH262343   0.964   6.395  15.176  0.0020 -0.9744 -0.2043
13643TIP3    H162344   0.902   6.463  15.149  1.7923  1.3873  1.1801
13643TIP3    H262345   0.932   6.364  15.260  0.7278  0.4526  0.6517
13644TIP3   OH262346   3.901   3.263   1.300  0.6965  0.1697  0.1756
13644TIP3    H162347   3.822   3.282   1.351  0.1589  1.0538 -0.9292
13644TIP3    H262348   3.891   3.316   1.221  2.0636 -0.2652 -0.3125
13645TIP3   OH262349   2.690   4.846   3.396 -0.3310 -0.0759  0.7428
13645TIP3    H162350   2.602   4.809   3.387  0.4343 -1.5170 -2.1783
13645TIP3    H262351   2.710   4.838   3.489 -3.1299 -0.0090  1.4441
13646TIP3   OH262352   0.338   0.712   2.662 -0.0877 -0.1473 -0.2071
13646TIP3    H162353   0.262   0.770   2.653 -0.6764 -0.8669  0.0815
13646TIP3    H262354   0.413   0.772   2.661 -0.7247  0.7487  1.1435
13647TIP3   OH262355   0.911   4.996  12.521 -0.1632 -0.2614 -0.4475
13647TIP3    H162356   0.949   5.069  12.570 -1.1295 -0.0202 -0.0279
13647TIP3    H262357   0.983   4.935  12.510  0.1081 -0.3180  1.2848
13648TIP3   OH262358   5.187   1.418   5.317 -0.5552 -0.5052 -0.6408
13648TIP3    H162359   5.260   1.449   5.264 -1.4912  0.9303 -1.1429
13648TIP3    H262360   5.161   1.335   5.277  0.6329 -0.9398 -0.5743
13649TIP3   OH262361   1.522   2.838   3.738  0.2037  0.7453 -0.2802
13649TIP3    H162362   1.457   2.832   3.808 -0.9709 -1.7641 -1.4634
13649TIP3    H262363   1.514   2.928   3.706 -0.6362  1.3379  1.4806
13650TIP3   OH262364   5.164   4.596  14.578  0.3326  0.5254 -0.3108
13650TIP3    H162365   5.214   4.678  14.581 -0.9361  1.3881 -1.5672
13650TIP3    H262366   5.114   4.602  14.496  0.1285 -1.4687 -0.3674
13651TIP3   OH262367   0.084   0.992   1.235  0.2464  0.0808 -0.2209
13651TIP3    H162368   0.127   1.077   1.244 -1.0562  0.7780 -0.2906
13651TIP3    H262369   0.045   0.995   1.148 -2.0473  0.5247  0.7465
13652TIP3   OH262370   6.751   3.537   3.041  0.1828  0.0268 -0.4286
13652TIP3    H162371   6.729   3.474   2.973  3.8588 -1.4392 -0.4833
13652TIP3    H262372   6.835   3.506   3.077 -0.2157  2.2331  2.9161
13653TIP3   OH262373   5.625   2.600  16.382 -0.8837  0.5101  0.4031
13653TIP3    H162374   5.573   2.607  16.302 -2.4221  0.0844  1.3044
13653TIP3    H262375   5.590   2.523  16.426  0.5659  0.1962  1.0561
13654TIP3   OH262376   4.763   4.992  12.447  0.2536  0.3263  0.1347
13654TIP3    H162377   4.747   4.953  12.533  1.8241 -0.9074 -0.0878
13654TIP3    H262378   4.682   4.978  12.399  0.0964 -0.9559  0.7189
13655TIP3   OH262379   4.871   5.909  11.350  0.0717 -0.1839  0.9154
13655TIP3    H162380   4.814   5.986  11.346 -0.2351 -0.4321  0.3442
13655TIP3    H262381   4.819   5.843  11.394 -0.4954 -0.7345 -0.5136
13656TIP3   OH262382   4.967   5.543  11.416  0.0567  0.5022 -0.1906
13656TIP3    H162383   4.960   5.506  11.328  0.0587 -0.4957  0.2126
13656TIP3    H262384   5.034   5.611  11.409 -0.3631  0.8396 -1.0859
13657TIP3   OH262385   2.237   4.750   0.212 -0.1516 -0.1262 -0.0732
13657TIP3    H162386   2.235   4.660   0.247 -0.3088 -0.2720 -0.4468
13657TIP3    H262387   2.248   4.738   0.117  0.4327  0.2648 -0.0559
13658TIP3   OH262388   6.297   0.705  13.547 -0.0630 -0.1064  0.6196
13658TIP3    H162389   6.286   0.628  13.603 -0.7142 -1.4618 -1.2643
13658TIP3    H262390   6.346   0.767  13.601 -1.1500 -1.0768  2.8724
13659TIP3   OH262391   4.272   4.814   1.419 -0.5610  0.4195 -0.2558
13659TIP3    H162392   4.357   4.826   1.377 -1.1699  2.1079 -1.0933
13659TIP3    H262393   4.286   4.838   1.510 -0.2162  1.0502 -0.4727
13660TIP3   OH262394   1.331   4.816  15.836  0.1378 -0.3702  0.0586
13660TIP3    H162395   1.364   4.727  15.848 -1.5315 -1.3848 -2.1333
13660TIP3    H262396   1.384   4.851  15.764 -1.0993 -0.7122 -1.0618
13661TIP3   OH262397   2.259   4.379  14.174 -0.4377 -0.3833  0.5042
13661TIP3    H162398   2.185   4.406  14.120  0.7218  0.6207 -0.6173
13661TIP3    H262399   2.218   4.337  14.250 -2.2228  1.7872  0.8416
13662TIP3   OH262400   6.177   0.457  11.190  0.1282 -0.0389 -0.0489
13662TIP3    H162401   6.248   0.393  11.180  0.7919  0.9186 -2.1313
13662TIP3    H262402   6.158   0.485  11.101 -2.4848  0.2030  0.5241
13663TIP3   OH262403   5.757   3.573  14.952  0.2368 -0.0426  0.2651
13663TIP3    H162404   5.825   3.508  14.968 -0.3218 -1.1111 -1.3831
13663TIP3    H262405   5.734   3.561  14.860 -2.0295  0.4066  0.7129
13664TIP3   OH262406   4.481   4.267  14.362 -0.1188 -0.3919 -0.8859
13664TIP3    H162407   4.517   4.287  14.449 -1.0356 -0.6137 -0.4453
13664TIP3    H262408   4.536   4.196  14.330  1.2851  0.7770 -1.2090
13665TIP3   OH262409   3.940   2.079   0.735  0.2294  0.0336 -0.3444
13665TIP3    H162410   3.891   1.998   0.752  0.4177 -0.0890 -0.3772
13665TIP3    H262411   4.023   2.067   0.783 -0.2423  0.7390  0.6889
13666TIP3   OH262412   4.767   3.059   4.750  0.1511 -0.2220  0.1632
13666TIP3    H162413   4.740   3.143   4.712  1.5192  0.0561 -0.2573
13666TIP3    H262414   4.764   3.074   4.844 -0.6361 -0.0463  0.1174
13667TIP3   OH262415   0.364   4.858  13.863  1.0244  0.0375 -0.2187
13667TIP3    H162416   0.453   4.845  13.894  1.1542 -0.8403 -0.9312
13667TIP3    H262417   0.355   4.952  13.853  1.7014  0.1658  0.3442
13668TIP3   OH262418   0.193   6.050  13.594  0.4269  0.0379  0.2302
13668TIP3    H162419   0.261   6.061  13.661 -0.1547  1.7615  0.5821
13668TIP3    H262420   0.181   5.955  13.587  2.8860 -0.3200  0.1192
13669TIP3   OH262421   2.670   2.522  12.113  0.7079 -0.3344  0.3582
13669TIP3    H162422   2.702   2.608  12.084  1.5838 -0.1382  1.8247
13669TIP3    H262423   2.588   2.542  12.159  0.3087 -0.4296 -0.3000
13670TIP3   OH262424   2.461   2.598  15.695  0.0050  0.0292  0.5927
13670TIP3    H162425   2.503   2.595  15.781 -1.6543  0.5422  1.4506
13670TIP3    H262426   2.419   2.513  15.685 -0.2891  0.1793  0.5441
13671TIP3   OH262427   2.353   4.327  10.701 -0.4091 -0.0149 -0.0862
13671TIP3    H162428   2.307   4.262  10.648 -1.2514  0.0544  0.5432
13671TIP3    H262429   2.429   4.279  10.735 -0.9707 -0.6550  0.2967
13672TIP3   OH262430   5.828   5.887   0.339  0.6628 -0.5339 -0.1903
13672TIP3    H162431   5.902   5.944   0.320  1.8020 -1.7363  0.5040
13672TIP3    H262432   5.782   5.879   0.255  1.7705 -0.4023 -0.8309
13673TIP3   OH262433   6.759   5.091   6.042 -0.7128 -0.1481 -0.6814
13673TIP3    H162434   6.812   5.115   6.118 -1.5067 -1.4170  0.3269
13673TIP3    H262435   6.678   5.141   6.053 -0.9302 -0.5268 -0.5408
13674TIP3   OH262436   2.514   4.433   5.792 -0.1546 -0.5012  0.3934
13674TIP3    H162437   2.441   4.414   5.733 -0.4352 -1.2625  0.9724
13674TIP3    H262438   2.509   4.365   5.859  0.5063  0.0127  0.9767
13675TIP3   OH262439   2.342   3.949   3.916 -0.3688  0.5062  0.3559
13675TIP3    H162440   2.437   3.934   3.920 -0.1922  1.1441 -0.8621
13675TIP3    H262441   2.333   4.025   3.858 -1.5773  1.0473  1.2277
13676TIP3   OH262442   2.563   4.461   2.052  0.1146 -0.1060  0.2094
13676TIP3    H162443   2.486   4.485   2.000  0.0324 -0.8062 -0.0021
13676TIP3    H262444   2.560   4.365   2.057  2.1817 -0.3830 -1.7368
13677TIP3   OH262445   4.373   3.835   1.466 -0.6787 -0.1514  0.0360
13677TIP3    H162446   4.405   3.894   1.399  0.1242 -1.5274 -0.8326
13677TIP3    H262447   4.408   3.870   1.548 -0.0771  0.4589 -0.4745
13678TIP3   OH262448   0.676   3.761  11.332 -0.5219 -0.5154 -0.1561
13678TIP3    H162449   0.697   3.726  11.245  0.0711 -1.3167  0.2892
13678TIP3    H262450   0.761   3.786  11.368 -0.5791 -1.5292  0.7363
13679TIP3   OH262451   6.509   2.626   3.297 -0.0957 -0.0292 -0.3025
13679TIP3    H162452   6.442   2.619   3.365  0.4950 -0.0823  0.2826
13679TIP3    H262453   6.462   2.611   3.215 -0.5393 -1.6888  0.2139
13680TIP3   OH262454   3.892   3.410  11.783  0.7337  0.5485  0.3328
13680TIP3    H162455   3.864   3.335  11.835 -0.8412  0.8668 -0.0146
13680TIP3    H262456   3.940   3.373  11.710 -2.8462 -0.4707 -1.7067
13681TIP3   OH262457   3.082   3.980  16.466 -0.0148  0.0522  0.1422
13681TIP3    H162458   3.131   4.051  16.508 -0.2322  1.4578 -1.8467
13681TIP3    H262459   2.992   3.992  16.495  0.3534 -1.1942  2.0335
13682TIP3   OH262460   0.279   6.433  14.552 -0.8900  0.3881  0.3788
13682TIP3    H162461   0.362   6.479  14.540 -0.8035  0.7714  2.1442
13682TIP3    H262462   0.248   6.416  14.463 -0.4588  3.0226 -0.3675
13683TIP3   OH262463   2.351   4.917  15.647 -0.1546  0.4709  0.1345
13683TIP3    H162464   2.423   4.965  15.607 -0.5436 -0.6207 -2.0522
13683TIP3    H262465   2.273   4.970  15.629 -0.3072  0.0693 -0.4153
13684TIP3   OH262466   6.649   5.649  12.134  0.4567  0.2026  0.1822
13684TIP3    H162467   6.703   5.728  12.131 -0.0211  0.5329  0.1460
13684TIP3    H262468   6.563   5.678  12.102  0.0911 -0.1803  0.8093
13685TIP3   OH262469   4.783   4.045   1.666 -0.7450  0.2741  0.0230
13685TIP3    H162470   4.750   4.016   1.581 -0.8512  0.4536  0.0016
13685TIP3    H262471   4.843   3.976   1.694 -2.1833 -0.7351  0.7099
13686TIP3   OH262472   4.928   0.855   5.103  0.7095  0.0694  0.4257
13686TIP3    H162473   4.937   0.763   5.126  0.0624 -0.2878 -0.7118
13686TIP3    H262474   5.018   0.890   5.109  1.4997 -1.3212 -1.8792
13687TIP3   OH262475   2.187   5.193  15.294  0.1410  0.0139 -0.3977
13687TIP3    H162476   2.273   5.223  15.326 -0.7273  2.1350  0.1071
13687TIP3    H262477   2.157   5.263  15.236 -1.2238 -0.7465 -0.6550
13688TIP3   OH262478   0.124   2.905  14.041 -0.5430  0.4390  0.0477
13688TIP3    H162479   0.144   2.854  14.120  0.2487  1.1303  0.3146
13688TIP3    H262480   0.209   2.940  14.013 -1.0805  1.7211 -0.0350
13689TIP3   OH262481   0.269   6.528  16.350  0.7027 -0.0605 -0.1448
13689TIP3    H162482   0.230   6.447  16.316  1.7902 -1.4214  1.6341
13689TIP3    H262483   0.244   6.595  16.286 -1.5860 -1.4638 -0.8713
13690TIP3   OH262484   1.649   1.523   5.799  0.1156 -0.6402  0.7501
13690TIP3    H162485   1.712   1.467   5.845  1.2217  1.1966  1.6131
13690TIP3    H262486   1.591   1.554   5.868 -0.3752 -0.5839  0.3140
13691TIP3   OH262487   1.925   1.098   4.028 -0.5422 -0.4858 -0.6423
13691TIP3    H162488   1.965   1.045   3.959  0.8317 -0.6117  0.1978
13691TIP3    H262489   1.997   1.152   4.061 -2.0182  2.5213 -1.9452
13692TIP3   OH262490   5.922   6.301   0.488 -1.2162 -0.0128  0.0152
13692TIP3    H162491   5.874   6.277   0.409 -1.7386 -1.0361  0.6208
13692TIP3    H262492   5.948   6.217   0.527  2.7293  0.3930 -1.2418
13693TIP3   OH262493   3.078   5.632   4.427 -0.2448 -0.5587  0.3100
13693TIP3    H162494   3.043   5.721   4.427 -1.1399 -0.8980  1.0946
13693TIP3    H262495   3.150   5.635   4.490  0.4166 -0.1486 -0.4417
13694TIP3   OH262496   1.742   0.921  13.380  0.2755 -0.6423  0.3997
13694TIP3    H162497   1.776   0.896  13.466  0.8203  0.4805  0.5283
13694TIP3    H262498   1.690   1.000  13.397 -2.0896 -2.0641  0.1415
13695TIP3   OH262499   1.252   1.331  14.898  0.0071  0.1003 -0.1773
13695TIP3    H162500   1.191   1.296  14.833 -1.3208  0.3006  0.9056
13695TIP3    H262501   1.279   1.416  14.863 -0.4183  0.0489 -0.6375
13696TIP3   OH262502   6.353   1.129   1.458 -0.0776 -0.8725 -0.0302
13696TIP3    H162503   6.331   1.116   1.365 -0.4943  1.0287 -0.2305
13696TIP3    H262504   6.406   1.052   1.480 -0.1567 -1.4890 -1.7737
13697TIP3   OH262505   1.544   1.731  13.624  0.4558  0.4221 -0.0448
13697TIP3    H162506   1.479   1.778  13.677 -1.0974 -2.3215  0.6482
13697TIP3    H262507   1.501   1.650  13.598  3.2797 -1.1168 -0.3625
13698TIP3   OH262508   3.402   3.685   1.825  0.5510 -0.4573  0.5732
13698TIP3    H162509   3.466   3.755   1.818 -0.6852  0.7321  0.8063
13698TIP3    H262510   3.332   3.722   1.878 -0.7604 -1.4104 -0.4364
13699TIP3   OH262511   4.639   5.101   2.848  0.1363 -0.4235  0.1389
13699TIP3    H162512   4.715   5.159   2.857  0.9010 -1.0366 -1.8342
13699TIP3    H262513   4.583   5.144   2.784 -0.2359 -0.9432  0.1128
13700TIP3   OH262514   4.474   2.329  15.775 -0.0401  0.2043 -0.2312
13700TIP3    H162515   4.417   2.257  15.748 -1.7632  1.3381  0.1736
13700TIP3    H262516   4.421   2.379  15.838  1.5346  1.1572  0.4043
13701TIP3   OH262517   4.616   6.346  12.235 -0.0188 -0.1280 -0.4628
13701TIP3    H162518   4.708   6.361  12.213  0.5477  0.9628  2.2132
13701TIP3    H262519   4.572   6.428  12.211 -0.0752 -0.2122 -0.6505
13702TIP3   OH262520   1.688   5.555   5.145  0.2292 -0.5195 -0.3533
13702TIP3    H162521   1.714   5.517   5.061  0.3384 -0.6896 -0.2439
13702TIP3    H262522   1.756   5.620   5.165 -0.2672  0.1585 -0.8240
13703TIP3   OH262523   4.512   6.280  16.273 -0.1483  0.3150 -0.1304
13703TIP3    H162524   4.578   6.278  16.203  0.1494 -1.6504  0.1483
13703TIP3    H262525   4.432   6.249  16.230 -0.2682  0.2705  0.1279
13704TIP3   OH262526   0.491   2.801   1.801  0.0023  0.0658 -1.0917
13704TIP3    H162527   0.579   2.837   1.806 -0.1974  0.4893 -0.5996
13704TIP3    H262528   0.453   2.816   1.888 -1.2459  1.6575 -1.8656
13705TIP3   OH262529   5.175   5.374  11.246 -0.4511 -0.2471 -0.5421
13705TIP3    H162530   5.108   5.305  11.252  0.0908 -0.7224  0.2397
13705TIP3    H262531   5.206   5.385  11.336  0.1713  0.3130 -0.8202
13706TIP3   OH262532   5.021   0.817  16.810  0.4733 -0.4054 -0.0126
13706TIP3    H162533   5.039   0.723  16.803  2.8392 -0.1416  1.2756
13706TIP3    H262534   5.106   0.859  16.796  0.2267  1.3096  2.7038
13707TIP3   OH262535   0.619   1.892   4.792  0.2482  0.4792  0.2008
13707TIP3    H162536   0.692   1.832   4.805 -0.6907 -1.0183 -1.1033
13707TIP3    H262537   0.626   1.920   4.701 -2.3549 -2.0242 -0.9390
13708TIP3   OH262538   0.195   4.311  11.223 -0.6125  0.0630  0.2974
13708TIP3    H162539   0.203   4.304  11.128 -0.3569 -0.0924  0.3295
13708TIP3    H262540   0.126   4.249  11.246  0.1289 -0.7516  0.3408
13709TIP3   OH262541   2.974   1.735  15.923  0.3159 -0.1008 -0.4091
13709TIP3    H162542   2.937   1.675  15.988  1.0198  0.9873  1.0382
13709TIP3    H262543   2.913   1.809  15.921  0.1838 -0.2166 -1.1774
13710TIP3   OH262544   3.882   0.420  13.366 -0.1003 -0.1248  0.4172
13710TIP3    H162545   3.867   0.337  13.319 -1.5959 -0.2478  1.0501
13710TIP3    H262546   3.886   0.395  13.458  1.9325  0.2279  0.4509
13711TIP3   OH262547   0.483   2.624   2.154 -0.7434 -0.2490 -0.1842
13711TIP3    H162548   0.424   2.628   2.079  1.4017 -1.3543 -2.0463
13711TIP3    H262549   0.463   2.541   2.196 -0.5385 -0.6135 -0.7966
13712TIP3   OH262550   5.378   6.474  11.242 -0.3514 -0.1730 -0.5515
13712TIP3    H162551   5.383   6.563  11.278 -1.1693 -1.0265  1.8507
13712TIP3    H262552   5.390   6.486  11.147 -1.6982  2.6344 -0.4814
13713TIP3   OH262553   0.578   2.962   2.701 -0.3084 -0.2244  0.9736
13713TIP3    H162554   0.600   3.004   2.785  2.9490  1.4126 -0.5318
13713TIP3    H262555   0.644   2.894   2.690 -0.8334 -0.5714 -0.1902
13714TIP3   OH262556   5.881   3.728   4.276 -0.5736 -0.6630 -0.5680
13714TIP3    H162557   5.945   3.774   4.221 -0.3413 -1.7388 -1.2421
13714TIP3    H262558   5.821   3.796   4.305  0.9671  0.4230  0.2287
13715TIP3   OH262559   0.460   1.441  11.438 -0.2181 -0.0276  0.2763
13715TIP3    H162560   0.480   1.439  11.344  2.8150  2.5660  0.6930
13715TIP3    H262561   0.387   1.501  11.446 -0.9012 -0.7412 -0.4379
13716TIP3   OH262562   6.303   4.300   1.670 -0.4625  0.2761  0.2611
13716TIP3    H162563   6.246   4.340   1.737  0.8218  0.6138  1.1824
13716TIP3    H262564   6.317   4.371   1.606 -1.0827  0.1771 -0.0017
13717TIP3   OH262565   5.030   4.281  11.822 -0.1231 -0.4692  0.4807
13717TIP3    H162566   5.041   4.348  11.890 -0.3358 -1.1402  1.1874
13717TIP3    H262567   5.114   4.234  11.820 -0.0077 -0.2540  0.0540
13718TIP3   OH262568   1.322   4.965  13.456 -0.5490  0.4955 -0.0158
13718TIP3    H162569   1.411   4.988  13.484 -0.4089  1.1587 -0.9831
13718TIP3    H262570   1.313   5.004  13.370 -1.3792 -0.5582 -0.4243
13719TIP3   OH262571   2.631   6.194   4.682  0.6470 -0.9804 -0.0666
13719TIP3    H162572   2.590   6.247   4.751  3.8217  0.5590  0.8294
13719TIP3    H262573   2.682   6.128   4.729 -0.1344 -2.3669 -1.1067
13720TIP3   OH262574   3.633   1.994  10.755  0.0329  0.4093 -0.1462
13720TIP3    H162575   3.580   1.983  10.834 -0.4532  2.4165 -0.1307
13720TIP3    H262576   3.614   1.917  10.702 -1.8840  0.4138  0.4567
13721TIP3   OH262577   1.843   2.234  14.776 -0.3438 -0.3238  0.1186
13721TIP3    H162578   1.857   2.316  14.823  1.0857 -0.7176  0.4376
13721TIP3    H262579   1.761   2.247  14.728  0.0881  1.4518 -0.2007
13722TIP3   OH262580   6.601   1.005   4.804  0.4628  0.3282  0.4254
13722TIP3    H162581   6.518   1.053   4.805  0.3813  0.2148 -0.2748
13722TIP3    H262582   6.662   1.064   4.760  0.8469  0.5568  1.2633
13723TIP3   OH262583   5.358   4.976   0.884  0.2650 -0.0804 -0.6170
13723TIP3    H162584   5.319   4.946   0.966 -0.2067 -0.5458 -0.9990
13723TIP3    H262585   5.400   5.059   0.906  0.3287 -0.3073  0.1379
13724TIP3   OH262586   1.778   2.468  14.434  0.1874  0.0215 -0.2585
13724TIP3    H162587   1.749   2.419  14.357 -0.1242  0.1899 -0.2488
13724TIP3    H262588   1.755   2.411  14.508 -1.1527  0.6411 -0.1774
13725TIP3   OH262589   2.227   2.370   3.352  0.3701 -0.1347 -0.1736
13725TIP3    H162590   2.288   2.324   3.410  0.8679 -2.0706 -2.1029
13725TIP3    H262591   2.270   2.454   3.333  2.6219 -1.5011 -1.6013
13726TIP3   OH262592   1.548   1.022   5.589  0.0081  0.3141 -0.5125
13726TIP3    H162593   1.636   1.050   5.615  0.3565 -1.3031  0.2150
13726TIP3    H262594   1.489   1.068   5.649  0.3228  1.5967 -1.1664
13727TIP3   OH262595   5.023   4.256  13.727  0.1193  0.3555  0.2335
13727TIP3    H162596   4.969   4.329  13.698  0.2635  1.0483  1.6562
13727TIP3    H262597   5.087   4.294  13.786 -0.6654 -1.0876  2.1114
13728TIP3   OH262598   1.387   6.675   2.182 -0.0562 -0.2923  0.5401
13728TIP3    H162599   1.397   6.724   2.101  0.6883 -0.2755  0.6301
13728TIP3    H262600   1.385   6.742   2.251  0.1256 -0.3412  0.5954
13729TIP3   OH262601   0.179   4.459  11.499 -0.5910  0.1506  0.3967
13729TIP3    H162602   0.213   4.514  11.569 -0.1175  0.4711 -0.0730
13729TIP3    H262603   0.216   4.496  11.419 -0.5137 -0.6622  0.0423
13730TIP3   OH262604   1.847   5.434  16.117 -0.4359  0.8836  0.2489
13730TIP3    H162605   1.905   5.458  16.190  0.7463 -0.6832 -0.1266
13730TIP3    H262606   1.760   5.428  16.156  0.3656 -1.3529  1.9126
13731TIP3   OH262607   3.286   2.299  15.520  0.1958  0.3248  0.0694
13731TIP3    H162608   3.354   2.364  15.502 -2.1380  2.4960 -1.6758
13731TIP3    H262609   3.226   2.306  15.446 -0.5278 -3.4945  0.1236
13732TIP3   OH262610   2.585   5.007   3.631  0.6004 -0.2613 -0.8633
13732TIP3    H162611   2.551   5.095   3.616 -1.2687 -0.3175  2.3316
13732TIP3    H262612   2.646   5.017   3.704 -0.4320 -1.7160  0.2544
13733TIP3   OH262613   5.336   6.632  12.778 -0.0911 -0.0517 -0.3107
13733TIP3    H162614   5.304   6.710  12.731  0.3027  0.7296  0.6917
13733TIP3    H262615   5.418   6.610  12.734  1.3398  1.8991  1.2057
13734TIP3   OH262616   0.193   1.670   4.570 -0.1376 -0.0316 -0.2109
13734TIP3    H162617   0.147   1.685   4.653  0.3323  0.9231 -0.1109
13734TIP3    H262618   0.123   1.669   4.504 -0.8851 -3.6892  0.4307
13735TIP3   OH262619   3.584   0.613  11.500 -0.0462 -0.1534 -0.3638
13735TIP3    H162620   3.511   0.579  11.550  2.1670  0.1114  3.3950
13735TIP3    H262621   3.638   0.536  11.480 -0.1736 -0.0637 -1.0921
13736TIP3   OH262622   0.502   0.589  14.002 -0.6086 -0.4277 -0.0311
13736TIP3    H162623   0.479   0.678  13.977 -1.6302 -0.9474 -1.0197
13736TIP3    H262624   0.593   0.595  14.030 -0.5807  0.8765 -0.3454
13737TIP3   OH262625   6.552   0.060   0.550 -0.2103 -0.3736 -0.6311
13737TIP3    H162626   6.527   0.045   0.641 -0.2570  0.9433 -0.4091
13737TIP3    H262627   6.509  -0.011   0.501 -0.9264 -0.5646  0.2546
13738TIP3   OH262628   4.058   0.119   4.301 -0.2095 -0.0369 -0.5070
13738TIP3    H162629   4.006   0.049   4.341 -0.7131  0.5030 -0.1971
13738TIP3    H262630   4.003   0.197   4.309  0.3286  0.3884 -0.8825
13739TIP3   OH262631   2.879   2.750  12.516 -0.4731 -0.2121 -0.0584
13739TIP3    H162632   2.954   2.710  12.560 -1.2052 -0.3385  1.1499
13739TIP3    H262633   2.904   2.841  12.505 -0.8645  0.2299  2.1818
13740TIP3   OH262634   1.074   5.523   2.176 -0.4700  0.4932 -0.8007
13740TIP3    H162635   1.016   5.508   2.100 -0.3726 -0.8013 -0.6352
13740TIP3    H262636   1.014   5.546   2.247 -0.7708 -0.6466 -0.6794
13741TIP3   OH262637   2.620   0.508  15.615 -0.0673 -0.1097  0.0616
13741TIP3    H162638   2.677   0.553  15.553 -0.5464 -0.0492 -0.3411
13741TIP3    H262639   2.531   0.520  15.580 -0.3238 -0.2582  0.6403
13742TIP3   OH262640   3.048   1.793   3.419  0.2641 -0.2243 -0.1963
13742TIP3    H162641   3.119   1.749   3.466  1.6996  1.5654 -0.5848
13742TIP3    H262642   2.992   1.828   3.489  2.6757  2.8973  0.3978
13743TIP3   OH262643   3.116   2.698  12.689  0.1216  0.0364  0.4962
13743TIP3    H162644   3.179   2.635  12.723 -0.3810 -0.8947 -0.2300
13743TIP3    H262645   3.156   2.783  12.702  2.3589 -0.5904 -1.5753
13744TIP3   OH262646   4.599   0.297   4.347  0.2826  0.0865  0.0979
13744TIP3    H162647   4.685   0.292   4.304  0.0417 -0.5676 -0.3156
13744TIP3    H262648   4.547   0.228   4.305 -0.2874  0.1416  0.7025
13745TIP3   OH262649   2.819   1.125   0.317  0.0715 -0.0455  0.0275
13745TIP3    H162650   2.852   1.056   0.374 -1.2340 -1.2349 -0.6004
13745TIP3    H262651   2.897   1.157   0.270  0.9752  0.2103  1.6503
13746TIP3   OH262652   5.887   1.391  13.825 -0.3085  0.0864 -0.4500
13746TIP3    H162653   5.808   1.417  13.778 -0.4155  1.5724  0.4505
13746TIP3    H262654   5.941   1.347  13.760 -0.4630  2.0160 -1.9750
13747TIP3   OH262655   3.543   1.274  15.761  0.2409 -0.4775 -0.1206
13747TIP3    H162656   3.593   1.193  15.756 -2.7876 -2.3913 -2.5777
13747TIP3    H262657   3.559   1.318  15.678  1.7252  1.5181  1.1132
13748TIP3   OH262658   1.661   6.625   4.088 -0.0837  0.0144  0.0510
13748TIP3    H162659   1.693   6.546   4.131  0.3444  0.8058  1.2262
13748TIP3    H262660   1.685   6.696   4.146  1.2178  1.2367 -1.8552
13749TIP3   OH262661   3.676   0.585  15.682  0.8312 -0.3987  0.9031
13749TIP3    H162662   3.761   0.551  15.655  0.8694  1.0845 -1.0850
13749TIP3    H262663   3.619   0.509  15.685  1.8063 -1.1666  0.4592
13750TIP3   OH262664   0.690   2.900  12.690  0.1695 -0.0203 -0.0125
13750TIP3    H162665   0.676   2.822  12.744  1.3382 -0.7979 -0.7751
13750TIP3    H262666   0.648   2.879  12.606  0.2651  0.2775 -0.1378
13751TIP3   OH262667   6.336   3.394  15.178  0.2330 -0.1265 -0.1093
13751TIP3    H162668   6.251   3.385  15.222 -1.0137  1.6632 -1.9659
13751TIP3    H262669   6.368   3.480  15.205 -0.7615  1.2036 -2.8296
13752TIP3   OH262670   5.006   6.227  14.589  0.0406 -0.0929  0.1959
13752TIP3    H162671   5.069   6.270  14.531  3.1056 -0.9520  2.6564
13752TIP3    H262672   5.012   6.134  14.565  0.5179 -0.3136  1.1598
13753TIP3   OH262673   6.301   6.601  13.899  1.2927 -0.6753 -0.0176
13753TIP3    H162674   6.306   6.659  13.823  0.8042 -0.6034  0.0021
13753TIP3    H262675   6.380   6.548  13.895  0.8452 -1.2896 -1.0734
13754TIP3   OH262676   2.892   0.497   1.604 -0.4640 -0.4061 -0.7459
13754TIP3    H162677   2.938   0.435   1.661 -1.0900  0.6699  1.0078
13754TIP3    H262678   2.949   0.574   1.600 -0.9061 -0.0713 -0.6964
13755TIP3   OH262679   5.565   0.373   3.574  0.2182 -0.1888 -0.8133
13755TIP3    H162680   5.620   0.372   3.496 -0.4451  0.3747 -1.2989
13755TIP3    H262681   5.477   0.395   3.541 -0.2679 -0.8913 -0.0369
13756TIP3   OH262682   6.242   0.248  14.909 -0.1947  0.0582  0.5721
13756TIP3    H162683   6.281   0.167  14.877 -0.5278  0.3227 -0.5468
13756TIP3    H262684   6.240   0.238  15.004  1.1720 -0.6020  0.5537
13757TIP3   OH262685   3.734   4.918  11.431 -0.1324 -0.1058  0.0204
13757TIP3    H162686   3.652   4.963  11.452 -0.8278 -1.1845 -0.3470
13757TIP3    H262687   3.762   4.957  11.348 -0.5059 -0.0590 -0.0854
13758TIP3   OH262688   6.563   5.153  12.066 -0.1867  0.1573 -0.3711
13758TIP3    H162689   6.600   5.220  12.123  1.7748  0.9489 -2.4119
13758TIP3    H262690   6.623   5.079  12.074 -1.3506 -0.7298  0.5144
13759TIP3   OH262691   4.904   4.072   0.298 -0.1941 -0.3431 -0.1192
13759TIP3    H162692   4.839   4.138   0.324 -1.6448 -1.6314 -0.3230
13759TIP3    H262693   4.955   4.056   0.377 -0.1238  0.6755  0.0569
13760TIP3   OH262694   1.063   5.080   2.180 -0.0763 -0.2586  0.0304
13760TIP3    H162695   1.065   5.002   2.236  1.5803 -0.1907  0.0991
13760TIP3    H262696   1.147   5.123   2.195 -0.3779  0.7815 -1.0930
13761TIP3   OH262697   1.052   1.575  15.196 -0.8943  0.1030 -0.1436
13761TIP3    H162698   1.000   1.651  15.170 -0.7049  0.1489 -0.3919
13761TIP3    H262699   1.000   1.499  15.170 -0.6941  0.1480 -0.6963
13762TIP3   OH262700   3.897   4.977  12.801 -0.1264 -0.1187 -0.0215
13762TIP3    H162701   3.979   4.928  12.796 -0.0696  0.0508 -0.7765
13762TIP3    H262702   3.919   5.065  12.771 -0.8112 -0.3694 -1.3279
13763TIP3   OH262703   6.612   3.030   5.963  0.0757  0.6762  0.1135
13763TIP3    H162704   6.621   2.946   5.917  0.0549  0.6083  0.2336
13763TIP3    H262705   6.584   3.091   5.895 -2.7733 -0.0096  0.5400
13764TIP3   OH262706   2.450   2.928  13.829  0.3262  0.0657 -0.2282
13764TIP3    H162707   2.504   2.852  13.848 -0.1577 -0.6734 -1.6124
13764TIP3    H262708   2.503   3.003  13.854  1.3974 -0.6844 -0.1993
13765TIP3   OH262709   2.133   5.754  13.888  0.1439  0.4047 -0.2977
13765TIP3    H162710   2.175   5.686  13.940  0.4649 -0.2819 -1.4229
13765TIP3    H262711   2.044   5.760  13.923  0.1783 -0.4433 -0.0502
13766TIP3   OH262712   5.290   0.859  14.375 -0.2476 -0.1703 -0.0232
13766TIP3    H162713   5.266   0.790  14.314 -0.7233  0.5922 -0.7211
13766TIP3    H262714   5.208   0.882  14.419 -0.5680  1.4410 -1.3699
13767TIP3   OH262715   0.159   1.077   0.879  0.1928  0.3850 -0.1371
13767TIP3    H162716   0.080   1.037   0.914  1.8032 -3.0664 -0.0157
13767TIP3    H262717   0.227   1.058   0.944  1.6666  0.8082 -1.4820
13768TIP3   OH262718   2.617   0.891   6.371 -0.2169  0.0143  0.1244
13768TIP3    H162719   2.658   0.894   6.458 -1.1608 -0.4733  0.6014
13768TIP3    H262720   2.690   0.904   6.310  1.0320 -2.6942  0.8554
13769TIP3   OH262721   1.719   2.777  11.990  0.4577 -0.1509 -0.7368
13769TIP3    H162722   1.660   2.701  11.994 -0.6694  0.6551 -1.6076
13769TIP3    H262723   1.804   2.742  12.019 -0.2258 -1.5401 -0.2935
13770TIP3   OH262724   6.173   4.804   5.404  0.4338  0.4251 -0.5935
13770TIP3    H162725   6.212   4.803   5.317 -0.2404  1.3107 -0.9161
13770TIP3    H262726   6.192   4.891   5.438 -1.9475  1.1999 -1.1015
13771TIP3   OH262727   5.203   2.597   0.048  0.0333  0.3533  0.2075
13771TIP3    H162728   5.297   2.613   0.056  0.1261  1.1460 -2.0006
13771TIP3    H262729   5.184   2.534   0.118  2.1234  0.4211  0.9059
13772TIP3   OH262730   2.501   0.952  14.347  0.0486  0.3215 -0.0428
13772TIP3    H162731   2.429   0.986  14.400  0.4779 -0.0612  0.7997
13772TIP3    H262732   2.580   0.988  14.387  0.3409  0.5869 -0.8456
13773TIP3   OH262733   5.228   4.278   4.202  0.2423 -0.1741  0.1505
13773TIP3    H162734   5.216   4.220   4.127 -0.6298  0.0021  0.1370
13773TIP3    H262735   5.218   4.221   4.279  0.4124 -0.2238  0.1362
13774TIP3   OH262736   3.256   0.001   2.216 -0.0242 -0.4237  0.1115
13774TIP3    H162737   3.329   0.063   2.222 -1.2674  1.1133 -0.0347
13774TIP3    H262738   3.273  -0.063   2.285  1.1185  0.2771  0.5056
13775TIP3   OH262739   0.109   5.822   0.438 -0.0696 -0.4948 -0.3639
13775TIP3    H162740   0.057   5.753   0.478  1.0095 -0.7924  0.5953
13775TIP3    H262741   0.105   5.895   0.501 -1.7986  0.6439 -1.6936
13776TIP3   OH262742   2.357   3.026  15.676 -0.1349  0.1243  0.1752
13776TIP3    H162743   2.310   2.948  15.646 -0.9136  0.3147  0.8655
13776TIP3    H262744   2.448   3.008  15.655 -0.2124 -1.2539  0.8785
13777TIP3   OH262745   3.153   1.509   3.386 -0.9178  0.5693 -0.2070
13777TIP3    H162746   3.224   1.517   3.450 -1.0898  0.7869 -0.0400
13777TIP3    H262747   3.157   1.591   3.336 -1.7800  1.0987  0.5638
13778TIP3   OH262748   4.610   2.010  16.311 -0.3269  0.0431  0.3726
13778TIP3    H162749   4.686   2.002  16.253 -0.7165 -1.7035  0.0611
13778TIP3    H262750   4.645   2.050  16.391  0.9841 -0.9696  0.3361
13779TIP3   OH262751   1.239   2.754  14.774  0.0528 -0.2409  0.0032
13779TIP3    H162752   1.229   2.805  14.854 -1.9434 -2.8261  1.5415
13779TIP3    H262753   1.323   2.708  14.784  1.4102  1.8482 -0.9833
13780TIP3   OH262754   5.970   0.172  14.623  1.1511 -0.6616 -0.6658
13780TIP3    H162755   5.912   0.247  14.608 -0.3515 -1.5626  0.2857
13780TIP3    H262756   6.054   0.210  14.646  0.5195  0.7370 -0.5854
13781TIP3   OH262757   0.346   3.136  13.177 -0.1940 -0.2773 -0.9030
13781TIP3    H162758   0.298   3.207  13.221  0.5077  0.6495 -1.5840
13781TIP3    H262759   0.417   3.181  13.130  1.6603 -1.6135  0.4475
13782TIP3   OH262760   0.612   4.531  10.866  0.4459  0.5075  0.2035
13782TIP3    H162761   0.551   4.495  10.930 -0.8060 -0.9324 -1.6842
13782TIP3    H262762   0.698   4.523  10.907 -0.4075  0.6932  2.1179
13783TIP3   OH262763   4.646   2.438   3.420 -0.1407 -0.9971 -0.0238
13783TIP3    H162764   4.588   2.392   3.479 -1.1226  1.7214  1.3233
13783TIP3    H262765   4.599   2.441   3.337 -0.3257 -1.8575  0.0503
13784TIP3   OH262766   5.958   5.753   0.074 -0.3820 -0.2667 -0.2740
13784TIP3    H162767   6.011   5.823   0.036 -1.9438  1.0556 -0.1172
13784TIP3    H262768   5.991   5.743   0.163 -1.6120  1.9583  0.5100
13785TIP3   OH262769   6.665   1.256  13.570  0.1543  0.1755 -0.2025
13785TIP3    H162770   6.574   1.286  13.561  0.0856  0.5720  1.5070
13785TIP3    H262771   6.709   1.290  13.493 -1.3816 -1.0440 -1.7130
13786TIP3   OH262772   2.186   1.522   0.053  0.2828 -0.2029  0.2392
13786TIP3    H162773   2.188   1.598  -0.006  2.1331 -1.4672 -1.4759
13786TIP3    H262774   2.097   1.521   0.088 -0.7731  0.9413 -2.1591
13787TIP3   OH262775   2.985   1.876   0.349 -0.1395 -0.2055  0.4720
13787TIP3    H162776   2.916   1.814   0.375  0.4237 -0.8805  0.3943
13787TIP3    H262777   3.019   1.911   0.431 -0.4158 -0.0485  0.5193
13788TIP3   OH262778   6.589   6.722  11.576  0.1030 -0.0937 -0.4361
13788TIP3    H162779   6.598   6.795  11.637 -0.8436 -0.5690  0.2999
13788TIP3    H262780   6.521   6.750  11.515  0.1015 -0.1549 -0.4633
13789TIP3   OH262781   5.636   2.107  14.845  0.0063 -0.2480 -0.4019
13789TIP3    H162782   5.590   2.136  14.924 -0.9312  0.3027 -1.1247
13789TIP3    H262783   5.728   2.122  14.863 -0.2144  0.0475  0.5154
13790TIP3   OH262784   3.016   3.994   1.177 -0.0394  0.5727  0.1379
13790TIP3    H162785   3.005   4.079   1.219  1.9700  1.3012 -0.6541
13790TIP3    H262786   2.996   4.010   1.084  0.9646  0.3780 -0.1270
13791TIP3   OH262787   3.344   0.209  12.174  0.3457  0.7071 -0.1340
13791TIP3    H162788   3.257   0.248  12.175 -1.9543 -3.7119  1.8791
13791TIP3    H262789   3.349   0.162  12.091  0.0477 -0.3530  0.4278
13792TIP3   OH262790   0.128   6.544  15.104  0.0188  0.0129  0.6203
13792TIP3    H162791   0.080   6.547  15.021 -0.5168  0.3123  0.9300
13792TIP3    H262792   0.198   6.608  15.095  0.4224 -0.4954  0.1254
13793TIP3   OH262793   1.353   1.771  13.094 -0.6468 -0.4024  0.0317
13793TIP3    H162794   1.353   1.710  13.021  2.4880  0.3728 -0.7655
13793TIP3    H262795   1.401   1.725  13.164 -0.7745  0.0775  0.4435
13794TIP3   OH262796   1.151   3.890   0.321 -0.2409 -0.3840  0.0446
13794TIP3    H162797   1.102   3.883   0.240  0.3535 -0.6291 -0.2974
13794TIP3    H262798   1.183   3.802   0.339  0.0133 -0.2447  0.3007
13795TIP3   OH262799   4.965   2.784  12.819 -0.3607 -0.1925  0.3324
13795TIP3    H162800   4.887   2.736  12.848 -0.0227 -1.7167 -1.0972
13795TIP3    H262801   4.996   2.829  12.898 -2.6592  0.4877  0.9472
13796TIP3   OH262802   6.416   5.276  11.550 -0.3221  0.6775 -0.0004
13796TIP3    H162803   6.413   5.271  11.646  0.5260 -1.4322 -0.0292
13796TIP3    H262804   6.510   5.279  11.530 -0.4757  3.6525 -0.7460
13797TIP3   OH262805   6.534   5.411   3.012  0.2180  0.3607  0.5576
13797TIP3    H162806   6.606   5.470   3.035 -0.9436  1.8987  0.3414
13797TIP3    H262807   6.456   5.466   3.014 -1.1290 -1.4792  1.7896
13798TIP3   OH262808   1.369   2.575  13.123 -0.3749 -0.4811 -0.1724
13798TIP3    H162809   1.321   2.648  13.084 -0.4327 -0.2286  0.3663
13798TIP3    H262810   1.461   2.597  13.110 -0.3837 -0.0046  0.5482
13799TIP3   OH262811   3.411   4.972   1.777 -0.3547  0.1454 -0.1977
13799TIP3    H162812   3.498   5.008   1.763 -0.1328 -0.6901 -1.0804
13799TIP3    H262813   3.374   5.024   1.848  0.8335  0.5538  0.1374
13800TIP3   OH262814   0.309   1.554  12.702 -0.2901 -0.4814 -0.6708
13800TIP3    H162815   0.285   1.647  12.695  2.0797  0.1236 -1.8176
13800TIP3    H262816   0.299   1.520  12.613 -0.7982 -1.2655 -0.3272
13801TIP3   OH262817   5.618   4.136  14.100  0.0059 -0.0213 -0.3191
13801TIP3    H162818   5.602   4.189  14.177 -1.8241 -1.1753  0.1539
13801TIP3    H262819   5.608   4.045  14.130 -2.1618 -0.4722 -2.1189
13802TIP3   OH262820   4.768   5.877   4.553  0.0618  0.3830 -0.5435
13802TIP3    H162821   4.712   5.884   4.630  0.2190  0.6513 -0.4523
13802TIP3    H262822   4.730   5.939   4.490  0.6266  1.0386 -0.2489
13803TIP3   OH262823   2.076   2.680  12.423 -0.3683 -0.3003 -0.4511
13803TIP3    H162824   2.110   2.619  12.488 -0.9535  0.5720  0.7052
13803TIP3    H262825   2.108   2.766  12.450 -1.9729  0.3002 -0.3435
13804TIP3   OH262826   1.699   1.224   2.641 -0.5127  0.2472 -0.0600
13804TIP3    H162827   1.621   1.262   2.682 -0.3650  0.0135  0.4483
13804TIP3    H262828   1.668   1.189   2.558 -1.0900 -0.4438  0.4420
13805TIP3   OH262829   5.935   1.373  16.514 -0.1962 -0.0747  0.5262
13805TIP3    H162830   5.978   1.309  16.457 -1.3958 -0.3119 -0.1488
13805TIP3    H262831   6.004   1.402  16.574  0.4563 -1.7560  0.6393
13806TIP3   OH262832   5.307   3.229  14.655  0.3694 -0.3679  0.3149
13806TIP3    H162833   5.317   3.138  14.627  1.0902 -0.7231  1.6256
13806TIP3    H262834   5.387   3.272  14.625  2.1866 -1.2388  3.4554
13807TIP3   OH262835   6.323   0.939  14.567 -0.2030 -0.2447  0.4680
13807TIP3    H162836   6.332   0.879  14.640 -1.5593 -1.3863 -0.2533
13807TIP3    H262837   6.375   0.899  14.497  0.0005  0.1339  0.4016
13808TIP3   OH262838   4.718   3.927  15.067  0.6027 -0.3883  0.2059
13808TIP3    H162839   4.806   3.892  15.075  0.8065  0.3900  1.7290
13808TIP3    H262840   4.730   4.019  15.043  0.1705 -0.4715 -0.3688
13809TIP3   OH262841   1.475   4.689   2.338  0.2193 -0.4534 -0.1071
13809TIP3    H162842   1.487   4.745   2.261  0.6973 -0.9852 -0.4389
13809TIP3    H262843   1.501   4.743   2.412  0.4011 -0.1456 -0.3938
13810TIP3   OH262844   5.302   2.501  11.691 -0.6269  0.2256  0.1712
13810TIP3    H162845   5.251   2.472  11.767 -0.7077  2.2720  0.9595
13810TIP3    H262846   5.256   2.463  11.616 -0.5536 -1.8322  1.1044
13811TIP3   OH262847   1.634   6.151   4.711 -0.0892 -0.2816  0.6193
13811TIP3    H162848   1.670   6.199   4.787  0.8646 -0.0021  0.0090
13811TIP3    H262849   1.710   6.107   4.673 -0.2238  0.9331 -1.1621
13812TIP3   OH262850   2.806   4.908   1.265 -0.0117 -0.0224  0.4907
13812TIP3    H162851   2.833   4.991   1.306 -1.4599  0.4419  0.5649
13812TIP3    H262852   2.713   4.920   1.246  0.0095 -1.2341 -0.5199
13813TIP3   OH262853   3.079   1.587   2.188 -0.4753  0.0817 -0.6463
13813TIP3    H162854   3.165   1.590   2.146 -1.5343 -0.1351 -3.0029
13813TIP3    H262855   3.017   1.602   2.117 -2.4284 -0.3876  0.8609
13814TIP3   OH262856   5.548   5.090   1.988  0.1507  0.0339  0.0287
13814TIP3    H162857   5.508   5.068   2.072  0.3399 -0.4420 -0.0032
13814TIP3    H262858   5.493   5.047   1.923  0.7241 -0.6537 -0.0148
13815TIP3   OH262859   1.136   2.874  14.554  0.0896  0.2589  0.1484
13815TIP3    H162860   1.129   2.956  14.603 -0.1472  0.4582 -0.2152
13815TIP3    H262861   1.162   2.809  14.619 -1.1758  0.3194  0.7400
13816TIP3   OH262862   0.974   1.225  17.090  0.1003  0.1525 -0.6327
13816TIP3    H162863   0.905   1.231  17.156  0.8553  1.4716  0.0773
13816TIP3    H262864   1.050   1.265  17.132  1.2652 -1.0960 -1.4577
13817TIP3   OH262865   5.103   4.307   0.964 -0.4699  0.2018 -0.1651
13817TIP3    H162866   5.016   4.291   0.927  0.0690 -0.4558 -1.1967
13817TIP3    H262867   5.086   4.363   1.040 -1.8195 -0.1820 -0.1447
13818TIP3   OH262868   5.797   3.917   1.445 -0.0888  0.1201  0.2770
13818TIP3    H162869   5.750   3.834   1.436  0.8769 -0.3150 -1.1900
13818TIP3    H262870   5.729   3.984   1.442 -0.7096 -0.5303 -0.6497
13819TIP3   OH262871   4.807   1.162  14.618  0.0860 -0.0021  0.3399
13819TIP3    H162872   4.892   1.195  14.587  0.1488  1.8325  2.2586
13819TIP3    H262873   4.745   1.231  14.597 -0.4234 -0.1054  1.4559
13820TIP3   OH262874   3.840   1.612  15.522  0.5204 -0.4468 -0.4901
13820TIP3    H162875   3.925   1.616  15.566 -0.4910  1.0931  1.4817
13820TIP3    H262876   3.776   1.627  15.592 -1.2981  0.1135 -2.1921
13821TIP3   OH262877   1.163   0.350  11.810 -0.1463 -0.3149  0.4743
13821TIP3    H162878   1.205   0.400  11.880  1.4485  1.4537 -1.6199
13821TIP3    H262879   1.235   0.302  11.769 -0.6685  0.2688 -1.2058
13822TIP3   OH262880   5.922   5.653   3.373 -0.0483  0.3904  0.0883
13822TIP3    H162881   5.905   5.560   3.356 -2.7259  0.6026  1.1500
13822TIP3    H262882   5.868   5.699   3.308 -0.8847  1.1687  1.2946
13823TIP3   OH262883   0.573   2.082  15.421  0.1492 -0.7250  0.1491
13823TIP3    H162884   0.546   2.087  15.513  0.2866 -0.9376  0.2000
13823TIP3    H262885   0.661   2.119  15.420  0.2884 -1.0583  0.1604
13824TIP3   OH262886   1.740   6.650   1.865  0.2481 -0.1983 -0.5517
13824TIP3    H162887   1.672   6.678   1.804  0.6924  4.1697  0.6191
13824TIP3    H262888   1.716   6.692   1.948  2.1166 -2.1015  1.0508
13825TIP3   OH262889   1.404   6.406  13.569 -0.1033 -0.1063  0.0404
13825TIP3    H162890   1.316   6.372  13.587 -0.3244  0.7339  0.5821
13825TIP3    H262891   1.410   6.486  13.621  0.6993  0.2590 -0.5912
13826TIP3   OH262892   0.629   5.295  15.922  0.7316 -0.0481 -0.2339
13826TIP3    H162893   0.687   5.257  15.856  0.3227 -3.3163  1.1035
13826TIP3    H262894   0.541   5.274  15.891  0.4081  0.9607 -0.0404
13827TIP3   OH262895   2.282   6.331  14.544 -0.1976 -0.8969  0.3067
13827TIP3    H162896   2.239   6.281  14.613  1.0375 -2.6343 -0.1312
13827TIP3    H262897   2.348   6.383  14.591  0.1429 -1.5164  0.5261
13828TIP3   OH262898   0.482   0.051  13.433  0.4372  0.5914 -0.2098
13828TIP3    H162899   0.465   0.066  13.340 -1.6427 -1.3971 -0.2391
13828TIP3    H262900   0.500  -0.043  13.439 -0.3826  0.5030  1.4664
13829TIP3   OH262901   6.085   0.771   5.277  0.2912  0.0526 -0.4872
13829TIP3    H162902   6.057   0.821   5.200  0.4225  0.0979 -0.5045
13829TIP3    H262903   6.149   0.708   5.243  2.7382  2.0977  0.0456
13830TIP3   OH262904   4.107   1.865  12.990 -0.0674  0.5882 -0.1820
13830TIP3    H162905   4.057   1.937  12.950 -0.2365  0.9227  0.6135
13830TIP3    H262906   4.061   1.786  12.962  0.1948  0.7728 -1.1779
13831TIP3   OH262907   2.972   5.004   4.670  0.0586  0.3015  0.7145
13831TIP3    H162908   3.065   5.016   4.650 -0.2280  0.2605 -0.6926
13831TIP3    H262909   2.966   4.912   4.698  0.4825  0.4009  1.1648
13832TIP3   OH262910   4.178   3.349  13.817 -0.7654 -0.2096 -0.1029
13832TIP3    H162911   4.130   3.270  13.842 -0.4065 -0.5172 -0.3596
13832TIP3    H262912   4.197   3.336  13.724 -0.6391  0.1489 -0.1280
13833TIP3   OH262913   3.461   4.815  14.242  0.2447  0.0377  0.1883
13833TIP3    H162914   3.545   4.806  14.287  1.5523 -0.2311 -2.0957
13833TIP3    H262915   3.483   4.806  14.149 -2.1901  0.9481 -0.5702
13834TIP3   OH262916   5.819   0.792   4.828  0.5651 -0.0028  0.3063
13834TIP3    H162917   5.846   0.769   4.917 -0.1773 -1.0195  0.2924
13834TIP3    H262918   5.805   0.887   4.831 -1.3230 -0.2633  1.8361
13835TIP3   OH262919   1.740   2.909   4.007  0.0526 -0.1641  0.5819
13835TIP3    H162920   1.784   2.916   3.922 -0.9364  0.6337  0.1181
13835TIP3    H262921   1.810   2.884   4.068  0.4296 -2.9162 -0.7917
13836TIP3   OH262922   4.743   6.717   3.810  0.2691  0.1839  0.0563
13836TIP3    H162923   4.822   6.770   3.808  0.4979 -0.1828 -0.8123
13836TIP3    H262924   4.674   6.779   3.835  0.4338  1.0318 -1.4961
13837TIP3   OH262925   1.838   4.014  16.755  0.2549 -0.2331  0.4147
13837TIP3    H162926   1.910   4.074  16.735  1.1433 -1.4100 -0.0711
13837TIP3    H262927   1.785   4.012  16.676 -1.0716  1.5658  1.1739
13838TIP3   OH262928   2.616   0.503  14.443 -0.2514  0.6968 -0.0535
13838TIP3    H162929   2.629   0.592  14.410 -0.5456  1.7716  2.4647
13838TIP3    H262930   2.682   0.493  14.511 -0.7283 -0.7289  0.2363
13839TIP3   OH262931   0.756   1.543  12.372  0.8896  0.3122  0.0368
13839TIP3    H162932   0.732   1.460  12.413  0.4271 -0.1378 -1.0840
13839TIP3    H262933   0.836   1.570  12.417  1.5332 -1.1718 -0.1403
13840TIP3   OH262934   5.210   0.225   4.736  0.3739 -0.4693  0.1960
13840TIP3    H162935   5.130   0.232   4.788  0.9143  1.1682  0.8784
13840TIP3    H262936   5.195   0.283   4.661  1.3989  0.9791  1.0491
13841TIP3   OH262937   1.924   6.703   3.269  0.5265 -0.3191 -0.3277
13841TIP3    H162938   1.975   6.622   3.271  0.4904 -0.4255 -2.0458
13841TIP3    H262939   1.909   6.719   3.176 -1.9686  0.0841  0.0660
13842TIP3   OH262940   0.723   1.896  16.049  0.2211 -0.0353  0.3785
13842TIP3    H162941   0.776   1.949  15.989  0.3710 -0.6342 -0.0237
13842TIP3    H262942   0.786   1.851  16.104  0.0815  0.5365  1.0211
13843TIP3   OH262943   1.445   0.084  11.832 -0.3000  0.1434 -0.2550
13843TIP3    H162944   1.539   0.091  11.850 -0.3147 -0.5432  0.1425
13843TIP3    H262945   1.413   0.020  11.896 -0.7852 -0.6606 -1.2634
13844TIP3   OH262946   6.613   2.791  13.753 -0.1590 -0.1316 -0.4035
13844TIP3    H162947   6.613   2.823  13.663 -0.4049  1.0257 -0.0189
13844TIP3    H262948   6.558   2.855  13.800 -0.4146 -0.9793  0.4693
13845TIP3   OH262949   6.353   2.043  11.582 -0.1653 -0.0044  0.0041
13845TIP3    H162950   6.405   2.122  11.587 -0.5788  0.3621 -1.1975
13845TIP3    H262951   6.398   1.981  11.640  1.1113  0.5659 -0.3412
13846TIP3   OH262952   4.609   1.205   4.892  0.2262 -0.0842  0.1122
13846TIP3    H162953   4.554   1.262   4.838  1.3932 -0.1897 -1.2586
13846TIP3    H262954   4.676   1.263   4.929 -0.1283 -0.1401  0.8550
13847TIP3   OH262955   3.013   6.108   3.359 -0.7088 -0.5586  0.2300
13847TIP3    H162956   2.942   6.102   3.423 -0.3909 -1.1410  0.5422
13847TIP3    H262957   3.025   6.018   3.329  0.9720 -0.7602  1.3757
13848TIP3   OH262958   4.341   6.263   6.266 -0.1606  0.4826 -0.1363
13848TIP3    H162959   4.249   6.289   6.272 -0.2093  0.2758  0.0064
13848TIP3    H262960   4.389   6.338   6.300 -0.3085  0.3215  0.4373
13849TIP3   OH262961   3.743   4.503  15.406 -0.0094 -0.1252 -0.1875
13849TIP3    H162962   3.743   4.597  15.386  1.0650  0.5275  2.4353
13849TIP3    H262963   3.667   4.469  15.360 -1.4300  2.3706  0.0885
13850TIP3   OH262964   6.766   5.638   1.582 -0.5261 -0.0195 -0.2518
13850TIP3    H162965   6.843   5.680   1.620 -2.0020  0.5508  2.2835
13850TIP3    H262966   6.802   5.568   1.527  1.9763  3.1158 -3.0880
13851TIP3   OH262967   0.079   6.145  12.521  0.1605 -0.5336  0.2779
13851TIP3    H162968   0.164   6.104  12.506  0.6088  0.8220 -1.1222
13851TIP3    H262969   0.022   6.107  12.454 -0.4334 -1.6166  1.3629
13852TIP3   OH262970   0.605   4.408   2.470  0.2819  0.3062  0.5125
13852TIP3    H162971   0.591   4.418   2.564  0.2870 -0.9190  0.6534
13852TIP3    H262972   0.533   4.457   2.430 -2.3331 -2.6772  1.1822
13853TIP3   OH262973   2.064   1.577   4.572  0.5734 -0.0573  0.3657
13853TIP3    H162974   1.997   1.645   4.571  1.8983  1.4042  2.6508
13853TIP3    H262975   2.084   1.563   4.479 -0.3855  2.0228 -0.2342
13854TIP3   OH262976   4.676   3.727   5.702  0.1276 -0.1775  0.0803
13854TIP3    H162977   4.676   3.776   5.620  0.0712 -0.2789  0.0195
13854TIP3    H262978   4.649   3.791   5.768 -1.1371 -0.4056 -0.1774
13855TIP3   OH262979   2.424   6.520   5.840  0.5375 -0.2123  0.4676
13855TIP3    H162980   2.357   6.484   5.899  0.4197 -3.0293 -1.1863
13855TIP3    H262981   2.464   6.443   5.800 -0.2522  1.3914 -4.0459
13856TIP3   OH262982   4.593   6.706  10.535 -0.1590  0.2768  0.5229
13856TIP3    H162983   4.521   6.735  10.591 -1.3723  0.8142 -1.2334
13856TIP3    H262984   4.566   6.730  10.446  1.7559 -0.4064 -0.3028
13857TIP3   OH262985   5.420   1.711  13.809 -0.0364  0.3384 -0.0835
13857TIP3    H162986   5.400   1.618  13.807 -1.8132  0.7001 -1.1176
13857TIP3    H262987   5.335   1.755  13.804  0.7384  2.0249  0.6031
13858TIP3   OH262988   1.045   6.197  12.363 -0.0961 -0.1312 -0.3396
13858TIP3    H162989   1.140   6.183  12.359  0.0688  0.5816  0.8344
13858TIP3    H262990   1.028   6.262  12.295  0.2087 -0.4772 -0.7525
13859TIP3   OH262991   5.256   0.372  11.021  0.5549  0.3347 -0.4918
13859TIP3    H162992   5.287   0.449  10.974 -0.3186 -0.2553 -2.1213
13859TIP3    H262993   5.320   0.304  10.999  1.5650  0.6641  1.2902
13860TIP3   OH262994   2.712   6.394   2.078 -0.6120 -0.5365 -0.3237
13860TIP3    H162995   2.795   6.402   2.125 -0.5318 -0.2864 -0.5076
13860TIP3    H262996   2.727   6.323   2.015 -0.9755 -1.4335  0.5626
13861TIP3   OH262997   2.617   3.390   5.136 -0.5343 -0.1773  0.4636
13861TIP3    H162998   2.560   3.335   5.191  0.5454 -0.9636  0.8292
13861TIP3    H262999   2.704   3.380   5.174 -0.0460  0.5667 -0.4233
13862TIP3   OH263000   2.112   5.275   5.310  0.2659 -0.4221  0.0095
13862TIP3    H163001   2.112   5.298   5.217 -1.5732  1.2144  0.3479
13862TIP3    H263002   2.112   5.358   5.356  1.9120 -1.2028  1.5529
13863TIP3   OH263003   5.042   1.431   4.202 -0.1322  0.0928 -0.2500
13863TIP3    H163004   5.060   1.393   4.116  0.7852  0.5224 -0.2720
13863TIP3    H263005   5.064   1.524   4.191 -0.1752  0.1831  0.4030
13864TIP3   OH263006   4.431   2.624   3.162 -0.3581 -0.6617  0.5534
13864TIP3    H163007   4.348   2.654   3.199 -0.7553  0.6286 -1.2886
13864TIP3    H263008   4.408   2.553   3.103 -0.2674  0.2129 -0.5567
13865TIP3   OH263009   4.084   1.238   3.954 -0.1816  0.3316 -0.3774
13865TIP3    H163010   4.009   1.186   3.926  0.4297 -0.7089 -0.1499
13865TIP3    H263011   4.152   1.173   3.972  0.4384  1.1900  0.4346
13866TIP3   OH263012   3.567   4.503  13.828  0.2736 -0.8108  0.5038
13866TIP3    H163013   3.575   4.415  13.790  1.3428 -1.4064  2.0067
13866TIP3    H263014   3.552   4.560  13.753 -0.6243 -2.2846 -0.4992
13867TIP3   OH263015   6.369   1.264   2.514  0.2429  0.1373 -0.1829
13867TIP3    H163016   6.414   1.327   2.458  1.6137 -0.6267  0.0248
13867TIP3    H263017   6.347   1.313   2.593  1.3221  0.3500 -0.0070
13868TIP3   OH263018   1.759   0.930  14.675  0.1375 -0.3709 -0.8939
13868TIP3    H163019   1.719   0.900  14.593  1.3268  0.8753 -1.9951
13868TIP3    H263020   1.852   0.906  14.667  0.4701  0.6841 -0.3842
13869TIP3   OH263021   3.085   2.357   2.729  0.2824 -0.2144  0.4819
13869TIP3    H163022   3.159   2.324   2.678  1.0323  0.0226  1.4038
13869TIP3    H263023   3.010   2.307   2.697  0.7084 -0.0118 -0.9233
13870TIP3   OH263024   4.530   3.094   0.168 -0.4876  0.1339  0.7915
13870TIP3    H163025   4.488   3.143   0.239 -0.3773 -0.0849  1.0094
13870TIP3    H263026   4.569   3.018   0.212 -0.9000 -0.2998  0.4137
13871TIP3   OH263027   3.635   1.852   1.707  0.6624 -0.4330  0.0025
13871TIP3    H163028   3.601   1.764   1.691  2.2845 -1.1470  0.2562
13871TIP3    H263029   3.709   1.861   1.647  1.0101  0.4559  0.5264
13872TIP3   OH263030   3.770   5.085   0.984  0.7063 -0.4519 -0.5695
13872TIP3    H163031   3.728   5.121   1.062  1.2079  1.1455 -0.9794
13872TIP3    H263032   3.703   5.092   0.916  1.1738  0.9404 -0.9335
13873TIP3   OH263033   6.702   2.701   4.092  0.2367 -0.3166  0.0332
13873TIP3    H163034   6.608   2.697   4.071  0.6794 -0.2788 -2.1593
13873TIP3    H263035   6.739   2.758   4.025  1.9850 -1.1262  0.2625
13874TIP3   OH263036   3.028   4.406  15.205  0.2626  0.5709  0.4181
13874TIP3    H163037   3.084   4.330  15.217  1.8731  1.4078 -1.2330
13874TIP3    H263038   3.074   4.476  15.252  0.3915  1.1582 -0.5570
13875TIP3   OH263039   5.038   1.333   2.654 -0.2437 -0.2730 -0.0350
13875TIP3    H163040   4.943   1.318   2.644 -0.4863  0.9614  0.2638
13875TIP3    H263041   5.074   1.246   2.674 -1.1530 -0.9725 -1.2592
13876TIP3   OH263042   2.217   1.672   6.297  0.3458 -0.1684 -0.4442
13876TIP3    H163043   2.180   1.707   6.378 -1.4997 -1.7904 -0.5027
13876TIP3    H263044   2.309   1.655   6.317  0.0816  0.0873  1.0874
13877TIP3   OH263045   0.962   1.926   0.812  0.2334 -0.3337 -0.0837
13877TIP3    H163046   0.999   1.864   0.748 -0.4199 -0.6535 -0.1704
13877TIP3    H263047   0.867   1.917   0.800  0.1281  0.4166  0.1703
13878TIP3   OH263048   0.207   6.734   1.181  0.3132  0.0487  0.2892
13878TIP3    H163049   0.146   6.662   1.160  1.3030 -0.8057  0.2788
13878TIP3    H263050   0.191   6.752   1.273  0.4188 -0.5438  0.4279
13879TIP3   OH263051   3.326   5.406   0.419  0.3242  0.5217  0.0576
13879TIP3    H163052   3.337   5.322   0.375 -3.2870  0.6075 -1.3036
13879TIP3    H263053   3.409   5.452   0.403  2.1329 -2.3988  0.2537
13880TIP3   OH263054   5.257   3.288   0.124 -0.6017 -0.3236 -0.4017
13880TIP3    H163055   5.261   3.377   0.159 -1.2932  0.1937 -1.5852
13880TIP3    H263056   5.330   3.243   0.166  0.1733  0.9854 -0.2786
13881TIP3   OH263057   5.259   2.616   0.698  0.4652  0.0237  0.2724
13881TIP3    H163058   5.230   2.703   0.725  1.8607  0.9522 -1.0678
13881TIP3    H263059   5.279   2.571   0.781 -1.6828  0.4071  1.0633
13882TIP3   OH263060   5.369   1.626  13.289 -0.0888  0.5456  0.2232
13882TIP3    H163061   5.337   1.589  13.371  3.1127  1.4947  2.0992
13882TIP3    H263062   5.330   1.714  13.285  0.1616  0.7089  1.0731
13883TIP3   OH263063   4.451   2.318   1.875  0.2271  0.2579 -0.3696
13883TIP3    H163064   4.484   2.228   1.872  0.0584  0.1018  1.5377
13883TIP3    H263065   4.488   2.355   1.955 -1.0100  1.3608 -0.2799
13884TIP3   OH263066   3.690   3.367  13.546  0.1001 -0.2616  0.2564
13884TIP3    H163067   3.762   3.421  13.512  0.3413  0.2670  1.5675
13884TIP3    H263068   3.612   3.400  13.501 -0.1425  2.7906  2.6140
13885TIP3   OH263069   1.721   5.301  13.151  0.7143 -0.0179 -0.1366
13885TIP3    H163070   1.749   5.227  13.205  1.0490 -0.3085 -0.6995
13885TIP3    H263071   1.710   5.374  13.213 -1.4878 -0.9931  0.7521
13886TIP3   OH263072   0.942   3.070   0.600 -0.1120 -0.5317  0.1988
13886TIP3    H163073   0.881   3.083   0.673  1.1950 -0.4689  1.3256
13886TIP3    H263074   0.886   3.046   0.526 -1.4688 -0.7783  1.2584
13887TIP3   OH263075   6.504   5.944  10.417  0.4383  0.1310  0.8153
13887TIP3    H163076   6.507   5.902  10.331  1.3627  0.8428  0.4731
13887TIP3    H263077   6.487   6.036  10.398 -0.0576  0.1731  1.4469
13888TIP3   OH263078   2.748   5.999  11.905 -0.1190  0.2889 -0.1475
13888TIP3    H163079   2.791   6.047  11.834  0.1884  1.3960  0.7536
13888TIP3    H263080   2.809   5.928  11.925 -0.6676 -0.6541 -1.6252
13889TIP3   OH263081   3.373   6.559  10.770 -0.3178  0.9325 -0.0526
13889TIP3    H163082   3.384   6.464  10.757  0.5510  0.8382  1.2536
13889TIP3    H263083   3.441   6.598  10.715 -1.6511  0.9005 -1.8068
13890TIP3   OH263084   4.902   4.637  16.531 -0.2322 -0.2228 -0.0533
13890TIP3    H163085   4.842   4.579  16.579 -1.1599  1.7872  1.4067
13890TIP3    H263086   4.984   4.632  16.580  0.6415 -2.4127 -1.6195
13891TIP3   OH263087   1.205   4.801  12.158 -0.0837  0.0191  0.6599
13891TIP3    H163088   1.267   4.781  12.228  1.1674  0.5740 -0.2418
13891TIP3    H263089   1.245   4.762  12.079 -0.3525  1.2670 -0.1195
13892TIP3   OH263090   0.454   0.663  12.612  0.1461  0.0519 -0.3730
13892TIP3    H163091   0.455   0.568  12.623  0.2630  0.0087 -0.7398
13892TIP3    H263092   0.529   0.682  12.555 -0.7220  0.1968 -1.5179
13893TIP3   OH263093   1.180   3.152   3.093 -0.2897  0.0890 -0.0490
13893TIP3    H163094   1.113   3.151   3.025 -1.1010 -0.9480  0.7325
13893TIP3    H263095   1.134   3.125   3.173  0.8039  0.5237  0.7536
13894TIP3   OH263096   0.047   3.051  12.313 -0.1000  0.2295  0.5975
13894TIP3    H163097   0.025   2.961  12.290  1.1245 -0.1487  0.8680
13894TIP3    H263098   0.110   3.078  12.246 -1.0622  1.1698  0.0473
13895TIP3   OH263099   3.743   4.254  17.149 -0.0531 -0.4425 -0.9158
13895TIP3    H163100   3.800   4.273  17.223 -0.5252 -0.9118 -0.4146
13895TIP3    H263101   3.676   4.195  17.185 -0.8628  0.1107 -1.4749
13896TIP3   OH263102   2.579   4.561  11.806  0.7952  0.6812  0.2170
13896TIP3    H163103   2.506   4.537  11.748  1.0569  0.0236  0.1452
13896TIP3    H263104   2.554   4.646  11.841 -0.3768  0.1500  0.7645
13897TIP3   OH263105   5.785   1.477  12.213  0.6922  0.7197 -0.3943
13897TIP3    H163106   5.776   1.384  12.231 -1.6621  0.8497 -0.6171
13897TIP3    H263107   5.778   1.519  12.299  1.5159  0.7212 -0.3213
13898TIP3   OH263108   0.214   3.728  14.881  0.3519  0.6436  0.0726
13898TIP3    H163109   0.226   3.711  14.788 -1.4936  0.4695 -0.1701
13898TIP3    H263110   0.223   3.643  14.923  0.3817  0.5914 -0.0401
13899TIP3   OH263111   4.278   5.215   7.144 -0.2701  0.9084  0.2104
13899TIP3    H163112   4.368   5.246   7.157 -0.2263  0.8329  0.0874
13899TIP3    H263113   4.270   5.204   7.049 -0.3954  0.8740  0.2251
13900TIP3   OH263114   0.784   5.939   1.376 -0.0167  0.4367  0.1502
13900TIP3    H163115   0.800   5.888   1.455  0.9793 -0.0710 -0.3623
13900TIP3    H263116   0.867   5.983   1.358 -0.1287  0.2955 -0.7855
13901TIP3   OH263117   2.273   1.419  14.864 -0.1488 -0.2572  0.2186
13901TIP3    H163118   2.313   1.381  14.942 -1.1934 -0.9348  0.4545
13901TIP3    H263119   2.287   1.353  14.796 -1.5110 -0.8922  0.5023
13902TIP3   OH263120   2.953   4.995   3.335 -0.1167 -0.3332 -0.3211
13902TIP3    H163121   2.881   5.044   3.295  0.0744 -0.4923 -0.8759
13902TIP3    H263122   2.914   4.911   3.358 -0.1354 -0.3857 -0.5383
13903TIP3   OH263123   4.720   1.509  16.200 -0.1972 -0.1726  0.0177
13903TIP3    H163124   4.674   1.511  16.284 -0.8326  0.3294 -0.3307
13903TIP3    H263125   4.804   1.551  16.217 -0.7000  0.7966  0.1954
13904TIP3   OH263126   1.225   0.970   3.074 -0.8422  0.2380 -0.1316
13904TIP3    H163127   1.237   0.887   3.121  1.0248  1.0519  0.9443
13904TIP3    H263128   1.170   1.022   3.132 -0.5421  0.3656  0.0454
13905TIP3   OH263129   0.341   0.602   0.697  0.6353  0.7254 -0.0091
13905TIP3    H163130   0.377   0.657   0.766 -0.1235  0.1437  0.8626
13905TIP3    H263131   0.350   0.655   0.617  4.2976  0.2856 -0.0930
13906TIP3   OH263132   4.027   1.446   0.417  0.2052 -0.1687 -0.2024
13906TIP3    H163133   3.939   1.484   0.418  0.8517  1.4006  0.4447
13906TIP3    H263134   4.044   1.421   0.508  0.5502 -0.1456 -0.2577
13907TIP3   OH263135   2.465   2.493   2.784  0.4208 -0.5514 -0.1516
13907TIP3    H163136   2.507   2.457   2.862  0.4080 -0.2625 -0.0069
13907TIP3    H263137   2.484   2.430   2.715  1.4827 -0.2070 -0.1940
13908TIP3   OH263138   2.856   2.469   0.663 -0.1659  0.1538  0.2213
13908TIP3    H163139   2.949   2.478   0.642  0.0122 -0.0851  0.8913
13908TIP3    H263140   2.841   2.374   0.667  0.0852  0.1614  2.3118
13909TIP3   OH263141   0.173   0.249   5.242  0.0329 -0.2193  0.3139
13909TIP3    H163142   0.161   0.262   5.148 -0.0971 -0.0252  0.3569
13909TIP3    H263143   0.239   0.179   5.249  0.8570  0.5124  0.0761
13910TIP3   OH263144   6.776   1.036   4.229  0.0844  0.3485  0.2359
13910TIP3    H163145   6.687   1.003   4.241  0.5490 -1.6792 -1.3848
13910TIP3    H263146   6.777   1.068   4.139  1.5832 -1.9035 -0.6297
13911TIP3   OH263147   2.885   6.647   2.725  0.2034  0.2389  0.2857
13911TIP3    H163148   2.846   6.653   2.637 -0.3207 -0.2528  0.4780
13911TIP3    H263149   2.979   6.659   2.710  0.0273  1.0540 -0.2347
13912TIP3   OH263150   2.294   1.558   0.844  0.0779 -0.5016 -0.3237
13912TIP3    H163151   2.319   1.644   0.811  0.1893 -1.0644 -1.7688
13912TIP3    H263152   2.350   1.497   0.796 -2.6487 -1.6648 -2.2666
13913TIP3   OH263153   2.525   4.138   4.444 -0.0216 -0.6110 -0.2143
13913TIP3    H163154   2.522   4.222   4.399  1.3424 -1.1897 -1.4662
13913TIP3    H263155   2.475   4.079   4.388  2.1785 -1.4765 -1.3652
13914TIP3   OH263156   3.608   0.828   0.950  0.2128  0.5149 -0.2767
13914TIP3    H163157   3.636   0.911   0.986  0.5494  0.3805 -0.2255
13914TIP3    H263158   3.592   0.846   0.857 -0.7053  0.8711 -0.0579
13915TIP3   OH263159   5.736   1.113  11.818 -0.3637 -0.0784  0.8696
13915TIP3    H163160   5.662   1.105  11.878  0.1022 -0.4894  1.4063
13915TIP3    H263161   5.726   1.039  11.758 -1.5543  1.0722 -0.4037
13916TIP3   OH263162   4.627   2.468   0.446  0.5329  0.0682  0.1339
13916TIP3    H163163   4.688   2.485   0.374  0.1782  0.5649 -0.0555
13916TIP3    H263164   4.554   2.421   0.406  0.0840  0.8188  0.0540
13917TIP3   OH263165   0.986   2.113  16.760  0.0257  0.2179 -0.1647
13917TIP3    H163166   0.997   2.055  16.835  0.9180 -0.2590 -0.6445
13917TIP3    H263167   0.998   2.201  16.796  1.1128 -0.0396  0.1534
13918TIP3   OH263168   1.010   5.564  13.159  0.0969  0.3287  0.0904
13918TIP3    H163169   1.095   5.566  13.203 -0.1346 -0.5348  0.5983
13918TIP3    H263170   1.018   5.494  13.094 -1.2020 -1.9934  2.2718
13919TIP3   OH263171   2.123   0.834   2.895  0.5758  0.5140 -0.0047
13919TIP3    H163172   2.214   0.854   2.918  0.0894  0.8031  1.7969
13919TIP3    H263173   2.075   0.914   2.918 -0.1720  0.3147 -0.8114
13920TIP3   OH263174   2.381   1.366   0.172 -0.4521 -0.1288 -0.1490
13920TIP3    H163175   2.327   1.435   0.135  1.0396 -0.6815 -3.8204
13920TIP3    H263176   2.329   1.286   0.160 -0.4412 -0.1756  0.1029
13921TIP3   OH263177   2.370   2.635  12.143 -0.5123 -0.0627 -0.4420
13921TIP3    H163178   2.362   2.562  12.205 -1.0599  1.1692  0.9968
13921TIP3    H263179   2.339   2.711  12.191 -1.5410  0.8636 -2.4506
13922TIP3   OH263180   6.601   3.162  12.207  0.3301  0.3289  0.2507
13922TIP3    H163181   6.539   3.112  12.260  0.7873  1.8862  2.3641
13922TIP3    H263182   6.686   3.144  12.246  1.3774 -1.8214 -2.6408
13923TIP3   OH263183   1.260   2.822   1.425 -0.3025 -0.1145  0.0793
13923TIP3    H163184   1.322   2.796   1.357  1.2325 -0.6372  1.6018
13923TIP3    H263185   1.183   2.767   1.410 -1.3978  1.9918 -3.1469
13924TIP3   OH263186   3.917   0.395   5.175 -0.6893 -0.1590  0.2052
13924TIP3    H163187   4.004   0.360   5.192 -0.7157  0.5655  2.0531
13924TIP3    H263188   3.876   0.331   5.116  1.2373 -0.2376 -1.1257
13925TIP3   OH263189   3.624   6.477  12.701 -0.6721  0.7259 -0.6334
13925TIP3    H163190   3.661   6.533  12.632  2.2951 -0.8892 -0.5085
13925TIP3    H263191   3.598   6.397  12.654 -1.0322  0.6182 -0.2473
13926TIP3   OH263192   3.975   3.539   3.617 -0.4684 -0.3045  0.2473
13926TIP3    H163193   4.049   3.587   3.580 -1.2277 -0.9826 -2.3260
13926TIP3    H263194   4.002   3.521   3.708  1.1090  2.2253  0.3819
13927TIP3   OH263195   3.302   0.725  10.814 -0.3165  0.5095  0.1027
13927TIP3    H163196   3.288   0.695  10.724  0.4823  2.9764 -0.9280
13927TIP3    H263197   3.288   0.819  10.810  1.4346  0.9250  2.1961
13928TIP3   OH263198   4.538   4.525   1.809 -0.6391  0.0497 -0.2550
13928TIP3    H163199   4.624   4.518   1.851 -0.6830 -0.0851 -0.1896
13928TIP3    H263200   4.475   4.509   1.879 -0.7027 -0.8284 -0.5044
13929TIP3   OH263201   5.475   4.626   5.160  0.1011 -0.0016 -0.4447
13929TIP3    H163202   5.424   4.556   5.201 -0.0634  1.1364  1.3962
13929TIP3    H263203   5.413   4.697   5.148  1.2077  1.5533  2.1901
13930TIP3   OH263204   0.818   5.810   1.110  0.3556 -0.3081  0.3948
13930TIP3    H163205   0.780   5.811   1.198 -0.1001 -0.4822  0.2038
13930TIP3    H263206   0.851   5.899   1.097 -0.7382  0.0947  0.2464
13931TIP3   OH263207   4.245   0.074   3.389 -0.0975  0.4758  0.8022
13931TIP3    H163208   4.238   0.143   3.323  1.3501 -0.6055 -0.5664
13931TIP3    H263209   4.225  -0.007   3.342 -1.0480 -0.1316  2.1963
13932TIP3   OH263210   4.087   0.838  11.153  0.0176 -0.0767 -0.3168
13932TIP3    H163211   4.109   0.899  11.224  2.6103 -1.5711  0.2544
13932TIP3    H263212   4.104   0.888  11.073  0.2816  0.5440  0.1181
13933TIP3   OH263213   3.949   3.811   5.659  0.5842  0.0597 -0.5100
13933TIP3    H163214   4.026   3.862   5.631  0.1569 -0.5541 -3.0615
13933TIP3    H263215   3.979   3.720   5.658 -0.1932 -0.1996 -1.7156
13934TIP3   OH263216   3.463   4.364  12.091  0.2715  0.5593  0.3268
13934TIP3    H163217   3.459   4.427  12.020  0.1939  0.6843  0.4424
13934TIP3    H263218   3.396   4.393  12.153 -0.2847 -0.0593  0.0291
13935TIP3   OH263219   3.605   3.187   0.486  0.0521  0.5658 -0.1949
13935TIP3    H163220   3.668   3.196   0.415  1.1102  4.2647  0.9610
13935TIP3    H263221   3.521   3.210   0.447 -0.1435 -1.3728 -1.0411
13936TIP3   OH263222   4.136   6.219   1.733  0.6746  0.3489  0.4587
13936TIP3    H163223   4.075   6.146   1.719 -0.7205  1.7228 -1.1019
13936TIP3    H263224   4.175   6.202   1.818 -2.3872 -0.3061  1.8424
13937TIP3   OH263225   2.663   3.160   4.507 -0.9311  0.8320  0.1376
13937TIP3    H163226   2.582   3.158   4.559 -0.1384  1.4424  1.4306
13937TIP3    H263227   2.709   3.238   4.536  0.4156  0.1736 -0.1418
13938TIP3   OH263228   2.062   5.888  11.574 -0.4019 -0.4512  0.7151
13938TIP3    H163229   2.128   5.953  11.597  1.9053 -2.3213 -0.1463
13938TIP3    H263230   2.087   5.811  11.625 -1.9801 -1.1943  0.4035
13939TIP3   OH263231   1.655   1.403  12.634 -0.3891  0.2337 -0.2015
13939TIP3    H163232   1.605   1.441  12.707 -0.2747 -0.2535  0.1337
13939TIP3    H263233   1.702   1.330  12.673  1.8135  1.5968 -0.1727
13940TIP3   OH263234   3.491   1.702  12.058 -0.1810 -0.2973  0.2869
13940TIP3    H163235   3.579   1.703  12.096  0.4759  1.1386 -1.1455
13940TIP3    H263236   3.479   1.612  12.029  1.0615 -0.4020  0.0145
13941TIP3   OH263237   4.228   3.190   3.674  0.3532  0.3494 -0.4796
13941TIP3    H163238   4.278   3.176   3.754 -4.1445  1.8641  2.9775
13941TIP3    H263239   4.208   3.102   3.643 -0.4605 -0.4146  2.0081
13942TIP3   OH263240   0.928   6.361   2.919  0.4100 -0.5082  0.2586
13942TIP3    H163241   0.900   6.432   2.861  1.9637 -0.7882 -0.8815
13942TIP3    H263242   0.850   6.307   2.929 -0.6980  1.1125  0.8385
13943TIP3   OH263243   0.120   0.032  12.379  0.1364 -0.4740  0.0953
13943TIP3    H163244   0.141  -0.049  12.331  0.3834 -0.8168  0.7742
13943TIP3    H263245   0.025   0.034  12.380  0.1229 -0.9442  0.3734
13944TIP3   OH263246   4.336   2.888  12.182 -0.1533  0.3224  0.7667
13944TIP3    H163247   4.286   2.969  12.183  1.5601  1.6313 -2.4919
13944TIP3    H263248   4.427   2.916  12.183  0.4865 -1.5551  0.0290
13945TIP3   OH263249   1.568   1.766   2.202  0.0670  0.3217 -0.3264
13945TIP3    H163250   1.652   1.749   2.244 -0.4271  0.8801  0.9376
13945TIP3    H263251   1.591   1.805   2.118  1.0807  1.4088  0.4251
13946TIP3   OH263252   1.686   4.268   3.602 -0.4300 -0.5128  0.3869
13946TIP3    H163253   1.712   4.207   3.671 -1.5154 -0.4786  0.8366
13946TIP3    H263254   1.609   4.228   3.562 -0.5675  0.0942  0.0339
13947TIP3   OH263255   4.166   0.024  13.615  0.7423  0.2903 -0.1965
13947TIP3    H163256   4.089   0.040  13.560  0.8518  0.1908 -0.3800
13947TIP3    H263257   4.150   0.075  13.694 -0.0655 -0.6860  0.2769
13948TIP3   OH263258   0.646   5.687   0.038  0.0406  0.2731 -0.0917
13948TIP3    H163259   0.592   5.633  -0.020 -0.4352  0.1183  0.4829
13948TIP3    H263260   0.735   5.652   0.028 -0.1761 -0.2709 -0.1299
13949TIP3   OH263261   5.369   5.843   0.070  0.3115  0.0784  0.3300
13949TIP3    H163262   5.306   5.907   0.102  0.9981  0.2169  1.4497
13949TIP3    H263263   5.348   5.763   0.118  2.0271  0.5659  2.0311
13950TIP3   OH263264   0.340   0.049   5.257 -0.4189 -0.0820 -0.1329
13950TIP3    H163265   0.324  -0.044   5.245 -3.4069  0.3182  0.1090
13950TIP3    H263266   0.372   0.056   5.348  1.9914 -0.9863 -0.8190
13951TIP3   OH263267   4.775   0.129  12.955  0.0605  0.4708  0.1492
13951TIP3    H163268   4.725   0.176  13.021  0.0397  0.6979 -0.0271
13951TIP3    H263269   4.817   0.057  13.003 -0.8178 -0.0108  0.2071
13952TIP3   OH263270   5.426   4.126   1.981  0.1095 -0.3010  0.3215
13952TIP3    H163271   5.420   4.045   1.931 -0.7932 -0.3053  0.4113
13952TIP3    H263272   5.411   4.099   2.072  0.0276 -0.0655  0.3779
13953TIP3   OH263273   0.141   4.557   5.853 -0.1214 -0.3577  0.4979
13953TIP3    H163274   0.133   4.646   5.889 -1.2428 -0.1859 -0.0962
13953TIP3    H263275   0.151   4.501   5.929  0.3334  0.2598  0.9025
13954TIP3   OH263276   6.609   2.778  16.932  0.9455  0.0722  0.1561
13954TIP3    H163277   6.668   2.853  16.940  1.3173 -0.0677 -1.0118
13954TIP3    H263278   6.522   2.815  16.943  1.2467  0.1459  2.7768
13955TIP3   OH263279   2.752   0.356  15.970 -0.5405 -0.0768  0.2656
13955TIP3    H163280   2.697   0.327  15.897 -0.5196  0.7733 -0.0972
13955TIP3    H263281   2.693   0.406  16.026 -0.4652 -0.4023  0.6466
13956TIP3   OH263282   3.842   3.591  10.503  0.2908  0.1352  0.0843
13956TIP3    H163283   3.762   3.633  10.469  0.0950  0.9938  1.5451
13956TIP3    H263284   3.886   3.660  10.553  0.8737 -0.9149  1.0487
13957TIP3   OH263285   4.163   0.962   5.274  0.6306 -0.1059  0.7441
13957TIP3    H163286   4.243   0.943   5.322 -0.2620 -1.3622  1.8259
13957TIP3    H263287   4.093   0.930   5.332 -0.4872 -3.0941 -1.9632
13958TIP3   OH263288   1.542   1.030   2.052 -0.0818 -0.0762  0.4131
13958TIP3    H163289   1.551   0.941   2.085  1.9376  0.4102  1.3750
13958TIP3    H263290   1.476   1.070   2.108 -0.0012 -0.5923  0.8908
13959TIP3   OH263291   4.697   6.513  13.142  0.4144  0.2034  0.3041
13959TIP3    H163292   4.607   6.546  13.149  0.1687 -0.3371 -0.2207
13959TIP3    H263293   4.701   6.474  13.054  0.7789 -0.8801  0.7855
13960TIP3   OH263294   2.695   3.154  12.089 -0.5053 -0.4093  0.1761
13960TIP3    H163295   2.764   3.147  12.155 -0.6084  2.5760  0.7335
13960TIP3    H263296   2.617   3.120  12.133 -0.6841  2.0158  1.8913
13961TIP3   OH263297   3.289   5.725   6.197  0.1463  0.1488  0.3553
13961TIP3    H163298   3.212   5.686   6.155 -0.0712  0.7489  0.1981
13961TIP3    H263299   3.305   5.669   6.273  0.0607 -0.4712 -0.0720
13962TIP3   OH263300   3.101   3.646   2.956 -0.2501 -0.1005 -0.3195
13962TIP3    H163301   3.044   3.572   2.934  0.6725 -0.9412  0.0572
13962TIP3    H263302   3.186   3.622   2.919 -0.7130  2.4406 -3.4851
13963TIP3   OH263303   0.456   6.106  11.188 -0.5700 -0.0783 -0.1893
13963TIP3    H163304   0.387   6.132  11.128 -0.3006  1.5814  0.1864
13963TIP3    H263305   0.531   6.161  11.166  0.7263 -1.9132 -0.6680
13964TIP3   OH263306   6.142   1.821   1.085  0.2178 -0.1483 -0.0591
13964TIP3    H163307   6.103   1.905   1.061 -0.4481 -0.3377  0.3344
13964TIP3    H263308   6.204   1.803   1.015  1.6737  1.5081  0.7145
13965TIP3   OH263309   5.609   3.052   3.414  0.1999  0.4195  0.3227
13965TIP3    H163310   5.681   2.997   3.382 -0.3545 -0.1400 -0.0020
13965TIP3    H263311   5.530   3.010   3.379 -0.2433  1.4091  0.0991
13966TIP3   OH263312   3.925   0.328  14.332 -0.3250  0.5546 -0.3645
13966TIP3    H163313   3.887   0.406  14.371  1.3639  0.8693  0.7634
13966TIP3    H263314   3.981   0.291  14.400 -0.0855 -0.9281 -1.3027
13967TIP3   OH263315   0.212   5.490   3.553  0.3007 -0.3669 -0.6469
13967TIP3    H163316   0.252   5.416   3.507  0.7053  0.0850 -1.0376
13967TIP3    H263317   0.235   5.476   3.644  1.8940  0.1851 -0.9250
13968TIP3   OH263318   6.140   5.829   3.189 -0.1253  0.2645  0.3468
13968TIP3    H163319   6.171   5.741   3.208 -1.9552 -0.1319  1.7009
13968TIP3    H263320   6.211   5.868   3.136  0.8710 -1.8541  0.0093
13969TIP3   OH263321   2.744   1.555  12.421 -0.1092  0.1365 -0.0103
13969TIP3    H163322   2.654   1.527  12.437 -0.4976  1.5357  0.4398
13969TIP3    H263323   2.785   1.481  12.376 -1.8090 -0.0792 -1.2914
13970TIP3   OH263324   1.742   2.733  17.257 -0.0542  0.2188  0.3536
13970TIP3    H163325   1.696   2.667  17.309 -1.8880  0.8781 -0.3530
13970TIP3    H263326   1.684   2.750  17.183 -0.0843  3.1866  0.9180
13971TIP3   OH263327   5.450   5.715  12.664  0.0351 -0.6924 -0.0073
13971TIP3    H163328   5.463   5.728  12.758  0.1800 -0.9649  0.0129
13971TIP3    H263329   5.365   5.671  12.657 -0.3456  0.0441 -0.0588
13972TIP3   OH263330   6.080   6.220  14.653 -0.3862 -0.5225  0.4496
13972TIP3    H163331   6.103   6.196  14.563 -0.5591 -1.6470  0.6835
13972TIP3    H263332   6.144   6.174  14.707 -0.3301  0.0874  0.9113
13973TIP3   OH263333   0.870   0.331   0.337 -0.1926  0.0175 -0.2265
13973TIP3    H163334   0.949   0.383   0.326 -0.7937  0.8243 -0.8408
13973TIP3    H263335   0.813   0.385   0.391 -1.5174  0.8368 -2.3079
13974TIP3   OH263336   5.795   5.556   0.980 -0.7608 -0.2964 -1.2905
13974TIP3    H163337   5.777   5.629   1.040 -0.1617 -0.2506 -1.1611
13974TIP3    H263338   5.867   5.508   1.022 -2.1753 -1.8906 -0.5785
13975TIP3   OH263339   5.982   2.365  14.520 -0.0727 -0.5693  0.3420
13975TIP3    H163340   5.912   2.364  14.455  0.1630  0.8691  0.0244
13975TIP3    H263341   6.006   2.458  14.528 -0.9366 -0.5114  3.3993
13976TIP3   OH263342   5.665   3.923  15.889 -0.4277  0.6207  0.0850
13976TIP3    H163343   5.728   3.978  15.843 -1.1930  0.5989 -1.0286
13976TIP3    H263344   5.587   3.977  15.898 -0.6354  0.2697  0.4534
13977TIP3   OH263345   0.756   1.305  14.073 -0.3115  0.3706 -0.2583
13977TIP3    H163346   0.728   1.248  14.144  0.0992  0.3225 -0.1301
13977TIP3    H263347   0.776   1.245  14.001 -1.1467  0.4476 -0.5686
13978TIP3   OH263348   0.823   1.530  17.100 -0.5698 -0.3368 -0.3330
13978TIP3    H163349   0.876   1.495  17.172  1.2381  0.9874 -0.9312
13978TIP3    H263350   0.836   1.468  17.029  2.5121  1.2688 -1.3461
13979TIP3   OH263351   1.135   3.742   4.266 -0.1808  0.0724 -0.0765
13979TIP3    H163352   1.149   3.732   4.172 -1.2529 -2.9173 -0.0189
13979TIP3    H263353   1.053   3.790   4.273  0.8860  2.0882 -0.5668
13980TIP3   OH263354   0.385   6.752  11.907 -0.2688  0.1455  0.0005
13980TIP3    H163355   0.318   6.820  11.916  0.3595  0.7408  0.2326
13980TIP3    H263356   0.407   6.753  11.814 -0.3605  0.1552 -0.0215
13981TIP3   OH263357   2.572   0.911  13.323 -0.2706 -0.1434 -0.4673
13981TIP3    H163358   2.537   0.872  13.243 -0.4835  0.6002 -0.7513
13981TIP3    H263359   2.517   0.988  13.337  0.7472  0.5982 -0.4801
13982TIP3   OH263360   5.430   1.452   5.214  0.0115  0.1786 -0.4699
13982TIP3    H163361   5.449   1.530   5.162 -1.0022  0.9041  0.2032
13982TIP3    H263362   5.511   1.402   5.212  1.0272  1.7147 -0.1266
13983TIP3   OH263363   1.188   2.109   4.144  0.6427  0.2782  0.0444
13983TIP3    H163364   1.256   2.174   4.161  0.0802  0.6059  1.0805
13983TIP3    H263365   1.120   2.128   4.208  0.3813 -1.2119  0.2323
13984TIP3   OH263366   0.698   3.611  10.332 -0.5401 -0.6777  0.3567
13984TIP3    H163367   0.765   3.553  10.295 -0.6745 -0.6396  0.0515
13984TIP3    H263368   0.746   3.692  10.351 -0.8588  0.0282 -1.6121
13985TIP3   OH263369   3.921   0.879   3.761  0.3368 -0.8463  0.4040
13985TIP3    H163370   3.986   0.834   3.815 -0.2115 -2.1485  0.0289
13985TIP3    H263371   3.844   0.888   3.817 -0.6857 -3.3506 -0.4545
13986TIP3   OH263372   6.068   4.245   4.852 -0.6379 -0.0147 -0.9248
13986TIP3    H163373   5.997   4.278   4.797 -3.3054 -2.0547  1.0099
13986TIP3    H263374   6.044   4.273   4.940  0.9062 -0.9174 -0.1808
13987TIP3   OH263375   2.149   4.893   1.072  0.3148 -0.0020  0.6207
13987TIP3    H163376   2.105   4.969   1.111  0.9203  0.4932  0.3338
13987TIP3    H263377   2.216   4.930   1.015 -0.3775 -0.7247 -0.7004
13988TIP3   OH263378   4.910   4.806   2.628  0.2112  0.4672 -0.3523
13988TIP3    H163379   4.837   4.815   2.689 -1.0095  0.5380 -1.7648
13988TIP3    H263380   4.903   4.716   2.595  2.2527 -0.3880  1.2397
13989TIP3   OH263381   0.730   1.382   6.127 -0.1256  0.3815  0.5901
13989TIP3    H163382   0.765   1.330   6.199  0.9091  0.6931  0.3203
13989TIP3    H263383   0.793   1.370   6.056 -0.4661  1.1010  0.1565
13990TIP3   OH263384   6.647   0.431   1.643 -0.1906  0.4469 -0.5291
13990TIP3    H163385   6.617   0.424   1.734 -1.3789  1.5798 -0.7884
13990TIP3    H263386   6.634   0.524   1.621  0.2225  0.2251 -1.8054
13991TIP3   OH263387   2.040   0.553  13.191  0.6865 -0.4264 -0.5560
13991TIP3    H163388   1.997   0.596  13.266  0.1161 -2.7709  0.5471
13991TIP3    H263389   2.087   0.479  13.230  0.5608 -1.5826 -2.5013
13992TIP3   OH263390   0.657   3.416  12.117 -0.2139 -0.5558 -0.4992
13992TIP3    H163391   0.730   3.444  12.062  0.4445 -0.4690  0.4009
13992TIP3    H263392   0.605   3.496  12.130 -0.6394 -0.6758 -1.3663
13993TIP3   OH263393   5.911   1.558  10.405 -0.1345 -0.1259  0.5845
13993TIP3    H163394   5.896   1.649  10.380  1.9349  0.1776  0.2798
13993TIP3    H263395   6.006   1.552  10.419 -0.3402 -2.0075  1.5357
13994TIP3   OH263396   5.720   5.627   0.182  0.0520 -0.3700 -0.0577
13994TIP3    H163397   5.649   5.690   0.197 -0.4814 -0.9622 -0.0529
13994TIP3    H263398   5.780   5.672   0.122  0.6626  0.8709  1.4244
13995TIP3   OH263399   1.003   0.105   5.777 -0.0274 -0.2301  0.3138
13995TIP3    H163400   1.018   0.169   5.847  0.3166  0.7732 -0.6502
13995TIP3    H263401   1.088   0.097   5.734 -0.3137 -0.5733 -0.1941
13996TIP3   OH263402   6.001   2.448  10.806 -0.2730  0.1855  0.2090
13996TIP3    H163403   5.913   2.418  10.829  0.0258 -0.2692  0.7842
13996TIP3    H263404   6.011   2.532  10.852 -0.3661  0.1869  0.2262
13997TIP3   OH263405   3.371   0.650   0.096  0.4512 -0.1762 -0.4087
13997TIP3    H163406   3.351   0.665   0.004 -0.0719 -1.3165 -0.5077
13997TIP3    H263407   3.303   0.589   0.125  2.5491 -2.5834 -0.2003
13998TIP3   OH263408   5.611   6.606   0.744 -0.1926 -0.3044  0.3355
13998TIP3    H163409   5.522   6.571   0.737  0.6145 -2.4800  0.1973
13998TIP3    H263410   5.630   6.603   0.838  0.4686 -1.9203  0.1802
13999TIP3   OH263411   4.889   4.924  17.172 -0.3426 -0.2249 -0.0762
13999TIP3    H163412   4.850   4.853  17.120  0.6476 -0.0345 -1.0901
13999TIP3    H263413   4.833   4.999  17.156 -0.0552 -0.1746 -0.8506
14000TIP3   OH263414   5.789   5.868   1.381 -0.7592  0.0267 -0.4530
14000TIP3    H163415   5.745   5.949   1.406  0.6657  0.3258  1.2746
14000TIP3    H263416   5.876   5.896   1.353 -1.0022 -0.7259 -2.1106
14001TIP3   OH263417   6.187   3.574   5.471 -0.2164 -0.5424  0.3046
14001TIP3    H163418   6.137   3.514   5.526 -0.6871 -1.7763 -1.4143
14001TIP3    H263419   6.156   3.558   5.382 -0.8120  2.6930 -0.2097
14002TIP3   OH263420   1.961   2.945   0.371 -0.3294  0.3223 -0.1092
14002TIP3    H163421   1.926   2.965   0.284 -1.3314 -0.5807  0.0794
14002TIP3    H263422   1.944   2.852   0.383 -2.6831  0.9573  2.1640
14003TIP3   OH263423   3.200   5.197  14.441  0.2536 -0.5062 -0.4210
14003TIP3    H163424   3.248   5.136  14.497 -0.8504 -0.0451  1.0881
14003TIP3    H263425   3.203   5.157  14.354 -1.4550 -3.3681  0.7056
14004TIP3   OH263426   3.368   2.536  16.693 -0.1823 -0.5885  0.8509
14004TIP3    H163427   3.280   2.501  16.705 -0.5889  0.0084 -0.2407
14004TIP3    H263428   3.400   2.494  16.613  0.2339 -0.2548  0.8380
14005TIP3   OH263429   3.351   6.084  17.205 -0.0692  0.3341 -0.0577
14005TIP3    H163430   3.288   6.012  17.212  0.0431  0.1651 -0.7294
14005TIP3    H263431   3.393   6.087  17.291  1.0648 -1.4637 -0.4883
14006TIP3   OH263432   0.812   4.338   1.968  0.3286 -0.1348  0.3809
14006TIP3    H163433   0.779   4.336   2.058  1.0617  1.2558  0.7031
14006TIP3    H263434   0.868   4.260   1.962  0.2373 -0.2661  1.1088
14007TIP3   OH263435   0.005   5.616  13.873 -0.3582  0.3606  0.3087
14007TIP3    H163436  -0.041   5.632  13.790  0.9164  1.2838 -0.2509
14007TIP3    H263437   0.092   5.653  13.859 -0.1152  0.4993  2.0719
14008TIP3   OH263438   3.671   6.350   3.535  0.4779 -0.4756 -0.0609
14008TIP3    H163439   3.759   6.316   3.549 -0.0460 -1.0792  2.1143
14008TIP3    H263440   3.630   6.284   3.478  1.6968  0.3737 -2.0419
14009TIP3   OH263441   0.712   2.035   0.542  0.2368  0.0502  0.4958
14009TIP3    H163442   0.719   2.004   0.633 -1.0958 -1.2041  0.2123
14009TIP3    H263443   0.726   1.957   0.489  0.5836  0.6935 -0.3702
14010TIP3   OH263444   2.576   2.076  14.203  0.1219 -0.1863 -0.3032
14010TIP3    H163445   2.613   2.025  14.275  1.2785  1.1840  0.1367
14010TIP3    H263446   2.595   2.025  14.124  0.5075 -0.8279  0.2012
14011TIP3   OH263447   5.785   0.379  14.681 -0.7595  0.2229 -0.2935
14011TIP3    H163448   5.805   0.439  14.753 -0.5481  0.2794 -0.3974
14011TIP3    H263449   5.777   0.434  14.604  0.0116  0.0664 -0.4971
14012TIP3   OH263450   6.540   0.537   3.258 -0.7303  0.2277 -0.0800
14012TIP3    H163451   6.591   0.606   3.301  1.0110 -1.1461  0.1863
14012TIP3    H263452   6.545   0.558   3.165  2.2535 -0.9498 -0.3222
14013TIP3   OH263453   5.025   4.299  12.639 -0.1704 -0.1494 -0.3220
14013TIP3    H163454   5.060   4.383  12.668 -0.4081 -0.8995  2.4392
14013TIP3    H263455   4.931   4.312  12.634 -0.2177 -0.2413  0.2097
14014TIP3   OH263456   5.226   6.735   2.670  0.3240 -0.6939 -0.1171
14014TIP3    H163457   5.225   6.792   2.747 -1.4203 -1.1535  0.2546
14014TIP3    H263458   5.152   6.766   2.617  0.6292 -1.2980 -0.9112
14015TIP3   OH263459   2.743   4.331   2.829 -0.2052  0.1211  0.5899
14015TIP3    H163460   2.681   4.328   2.902 -0.0025 -0.9704  0.7445
14015TIP3    H263461   2.820   4.376   2.864 -0.6240  0.8051  0.6307
14016TIP3   OH263462   6.772   6.321   5.441 -0.2493 -0.2018 -0.0211
14016TIP3    H163463   6.748   6.237   5.481 -1.8492 -1.4396 -3.2088
14016TIP3    H263464   6.692   6.374   5.447 -0.2639 -0.1193 -0.7971
14017TIP3   OH263465   1.950   0.663   0.485  0.4731  0.1598  0.1925
14017TIP3    H163466   1.899   0.624   0.414 -1.7547  0.0684  1.7023
14017TIP3    H263467   1.952   0.595   0.553  1.8678  0.5121  0.5310
14018TIP3   OH263468   5.937   2.063  15.892 -0.2688 -0.1718 -0.5606
14018TIP3    H163469   5.881   2.137  15.914 -0.5138 -0.4672 -0.1772
14018TIP3    H263470   6.003   2.100  15.833 -0.3947  0.3473 -0.3858
14019TIP3   OH263471   0.418   3.437  15.221  0.1295  0.1828  0.1993
14019TIP3    H163472   0.335   3.463  15.181  1.0481 -1.8500 -3.4385
14019TIP3    H263473   0.473   3.515  15.215 -0.7883  0.8704  0.5410
14020TIP3   OH263474   4.856   6.571  15.999  0.1455 -0.6932 -0.8974
14020TIP3    H163475   4.819   6.609  16.079 -0.0735  0.3911 -1.4859
14020TIP3    H263476   4.949   6.590  16.003  0.1494 -0.7172 -0.8655
14021TIP3   OH263477   5.428   0.588   1.015  0.6401  0.6762  0.1036
14021TIP3    H163478   5.501   0.582   0.953  1.6056 -0.1191  1.2683
14021TIP3    H263479   5.468   0.621   1.096  0.2318 -1.9662  1.5059
14022TIP3   OH263480   0.307   6.678  12.906 -0.0163  0.2727 -0.6300
14022TIP3    H163481   0.276   6.761  12.944  0.2438 -0.3413  0.9910
14022TIP3    H263482   0.230   6.622  12.905  0.4458 -0.4505  1.1384
14023TIP3   OH263483   0.372   1.127   2.123 -0.0969 -0.1673  0.4372
14023TIP3    H163484   0.328   1.188   2.182  0.0634  0.6610 -0.2902
14023TIP3    H263485   0.456   1.108   2.167 -0.1099  0.1963  0.6197
14024TIP3   OH263486   2.418   4.416   6.264 -0.0975 -0.4411 -0.0613
14024TIP3    H163487   2.432   4.505   6.296  0.7370 -0.5107 -0.2208
14024TIP3    H263488   2.379   4.369   6.339  0.9255 -0.3484  0.5469
14025TIP3   OH263489   1.314   5.285  11.803  0.3574 -0.4587  0.1102
14025TIP3    H163490   1.365   5.296  11.883  0.6697 -0.0630 -0.1393
14025TIP3    H263491   1.353   5.209  11.760  0.8274 -0.0816 -0.1425
14026TIP3   OH263492   2.092   0.604  14.137  0.3510  0.2011 -0.2490
14026TIP3    H163493   2.149   0.666  14.182  0.0995  0.7536 -0.6703
14026TIP3    H263494   2.151   0.544  14.093  0.7040  2.0836 -2.5337
14027TIP3   OH263495   4.521   3.966   4.141 -0.1417 -0.0978  0.5341
14027TIP3    H163496   4.490   4.052   4.168  0.4602 -0.0635  1.1676
14027TIP3    H263497   4.459   3.937   4.075  0.6365  1.5929 -1.0323
14028TIP3   OH263498   4.529   5.585   1.009 -0.0290 -0.1276 -0.5546
14028TIP3    H163499   4.572   5.527   0.947 -0.0904 -1.4704  0.6210
14028TIP3    H263500   4.602   5.635   1.048  0.2479 -0.9049 -0.0687
14029TIP3   OH263501   1.532   5.137  13.015 -0.3899  0.6297 -0.0721
14029TIP3    H163502   1.560   5.224  12.985 -1.8084  0.8611 -0.8088
14029TIP3    H263503   1.489   5.153  13.099  1.9165  0.2217  1.2688
14030TIP3   OH263504   3.806   4.001  13.238  0.1331  0.0721 -0.5617
14030TIP3    H163505   3.737   3.941  13.211  0.2610  0.5493 -2.0778
14030TIP3    H263506   3.882   3.945  13.255 -0.6599 -0.4865  1.4361
14031TIP3   OH263507   5.924   5.044  12.296  0.7980  0.6056  0.1325
14031TIP3    H163508   5.860   5.011  12.359  1.0712 -1.9049 -0.7837
14031TIP3    H263509   5.875   5.108  12.243 -0.4379  0.0975  0.6208
14032TIP3   OH263510   1.523   2.640  12.411 -0.4216  0.4100  0.1677
14032TIP3    H163511   1.596   2.674  12.463  0.0467 -0.7754  0.3193
14032TIP3    H263512   1.495   2.714  12.357  1.2837  0.7422 -0.3242
14033TIP3   OH263513   3.007   5.754   5.304  0.2607  0.4530  0.2584
14033TIP3    H163514   3.014   5.750   5.209 -1.6256  0.2803  0.0993
14033TIP3    H263515   2.914   5.748   5.322  0.4784  1.7128  2.0795
14034TIP3   OH263516   0.254   4.770  12.220 -0.5187 -0.2413 -0.5139
14034TIP3    H163517   0.195   4.784  12.146 -1.2376  3.4349  0.5679
14034TIP3    H263518   0.199   4.734  12.289 -0.4991 -0.8901 -0.8308
14035TIP3   OH263519   5.402   2.224   3.395 -0.3349 -0.1222 -0.2914
14035TIP3    H163520   5.410   2.273   3.312  1.0160 -0.7640 -0.5679
14035TIP3    H263521   5.337   2.157   3.376  1.5924 -1.7473 -1.6485
14036TIP3   OH263522   2.208   2.912   4.231  0.0022  0.0432 -0.2676
14036TIP3    H163523   2.186   2.834   4.180  1.4048 -0.5571 -0.0102
14036TIP3    H263524   2.231   2.977   4.165 -1.0775  0.2156 -0.4817
14037TIP3   OH263525   1.174   6.593  16.925 -0.6051 -0.1851  0.5822
14037TIP3    H163526   1.091   6.623  16.962 -0.3582 -0.7605  1.6500
14037TIP3    H263527   1.182   6.503  16.956  0.6184  0.0029  0.8407
14038TIP3   OH263528   0.335   6.775   4.632  0.2306  0.2947  0.3225
14038TIP3    H163529   0.294   6.859   4.652  0.5676  0.3103  1.0025
14038TIP3    H263530   0.419   6.799   4.592 -0.5939  0.2611 -1.4845
14039TIP3   OH263531   4.158   1.155  15.948  0.1765  0.0214  0.4285
14039TIP3    H163532   4.087   1.215  15.971  0.9362  0.4206  1.8915
14039TIP3    H263533   4.190   1.186  15.864 -1.5443 -0.3447 -0.4129
14040TIP3   OH263534   1.035   6.108  16.992 -0.1867 -0.5377 -1.0352
14040TIP3    H163535   1.012   6.112  16.899 -0.4111 -0.0929 -0.9614
14040TIP3    H263536   1.000   6.024  17.022 -0.4532 -0.5092 -1.2620
14041TIP3   OH263537   5.549   1.325  11.545 -0.1100 -0.0893  0.6089
14041TIP3    H163538   5.522   1.368  11.626 -3.4107  0.1884 -0.4466
14041TIP3    H263539   5.545   1.231  11.565  4.2977 -0.1741  2.0988
14042TIP3   OH263540   6.724   1.952   6.044  0.5495  0.0327  0.5799
14042TIP3    H163541   6.720   1.860   6.016 -0.1735  0.8060 -2.1540
14042TIP3    H263542   6.657   1.959   6.112  0.7920 -1.4856  1.0195
14043TIP3   OH263543   3.481   6.091   3.092 -0.0225 -0.0411  0.2214
14043TIP3    H163544   3.520   6.117   3.009  0.0603 -1.3540 -0.1790
14043TIP3    H263545   3.539   6.128   3.158  1.5092 -1.2990 -0.3512
14044TIP3   OH263546   6.169   4.430  14.534  0.3030  0.1834 -0.0377
14044TIP3    H163547   6.190   4.447  14.625  1.8109 -0.5376 -0.2273
14044TIP3    H263548   6.242   4.377  14.501 -1.1744 -1.3060 -1.1158
14045TIP3   OH263549   0.784   3.446   2.747 -0.4934 -0.6154 -0.2664
14045TIP3    H163550   0.845   3.393   2.797  2.3897 -2.1520 -4.7756
14045TIP3    H263551   0.730   3.383   2.698 -0.2200  0.5685 -2.2370
14046TIP3   OH263552   1.296   4.470  11.160 -0.8828  0.3610  0.2760
14046TIP3    H163553   1.317   4.377  11.152  0.3596  0.6284  0.3465
14046TIP3    H263554   1.380   4.514  11.165 -1.4566  1.3619  1.8887
14047TIP3   OH263555   6.760   1.528   3.705 -0.4013 -0.5429 -0.3587
14047TIP3    H163556   6.681   1.583   3.694  1.1019  1.3909 -2.3850
14047TIP3    H263557   6.737   1.445   3.664 -1.4586 -0.1180 -0.6733
14048TIP3   OH263558   1.453   4.194   0.348  0.1532  0.8209 -0.6870
14048TIP3    H163559   1.403   4.197   0.430  0.6044 -0.6585 -0.3208
14048TIP3    H263560   1.544   4.203   0.376  0.2062  2.2003 -1.2279
14049TIP3   OH263561   2.350   3.091  13.311  0.0645 -0.5050 -0.7098
14049TIP3    H163562   2.368   3.184  13.319 -2.6276  0.0557  0.0024
14049TIP3    H263563   2.363   3.056  13.400  0.1988 -0.6254 -0.7762
14050TIP3   OH263564   5.067   3.008   1.080 -0.3625 -0.2781 -0.5102
14050TIP3    H163565   5.006   3.058   1.026  0.5059  1.6112  0.1703
14050TIP3    H263566   5.034   3.018   1.170  1.3447  1.5271 -0.0100
14051TIP3   OH263567   4.475   0.295   0.914  0.2780  0.6313  0.2042
14051TIP3    H163568   4.542   0.361   0.896  0.9148 -0.4853 -1.9709
14051TIP3    H263569   4.492   0.267   1.004  2.3120  0.8757 -0.0445
14052TIP3   OH263570   0.462   3.557  15.942 -0.0694 -0.2149 -0.2432
14052TIP3    H163571   0.531   3.502  15.906  2.0784  1.7462  0.6141
14052TIP3    H263572   0.476   3.554  16.037 -0.6248  0.8481 -0.1097
14053TIP3   OH263573   4.003   6.073  17.159 -0.0158 -0.0699 -0.4445
14053TIP3    H163574   3.908   6.086  17.163  0.0789  0.4747  2.7001
14053TIP3    H263575   4.034   6.092  17.248  3.0705 -0.2005 -1.3569
14054TIP3   OH263576   1.917   2.869   2.414  0.0090 -0.1095 -0.2285
14054TIP3    H163577   1.855   2.827   2.354  0.6680 -0.5725 -0.5938
14054TIP3    H263578   1.919   2.811   2.490 -3.6819  2.3142  2.0093
14055TIP3   OH263579   6.034   0.753   0.197 -0.1332  0.2917 -0.2967
14055TIP3    H163580   5.954   0.702   0.209 -0.5930  0.7508 -1.2707
14055TIP3    H263581   6.004   0.844   0.191  0.4562  0.4678 -0.7168
14056TIP3   OH263582   1.692   3.721  14.000 -0.2059  0.6568  0.2201
14056TIP3    H163583   1.744   3.640  13.995 -0.0847  0.8260 -1.6784
14056TIP3    H263584   1.728   3.778  13.933 -1.9158  1.3349 -0.1828
14057TIP3   OH263585   0.859   2.228  16.286 -0.1695  0.1857  1.0045
14057TIP3    H163586   0.870   2.133  16.282 -2.7681 -0.1373 -0.8704
14057TIP3    H263587   0.869   2.257  16.195 -1.8466  1.3349  1.1404
14058TIP3   OH263588   1.812   5.338   1.527  0.5751 -0.7753  0.0747
14058TIP3    H163589   1.895   5.296   1.548  1.8477  1.1264 -0.9231
14058TIP3    H263590   1.806   5.333   1.432 -0.0512 -0.1893  0.0768
14059TIP3   OH263591   5.583   6.768  11.683 -0.1062  0.0481  0.5879
14059TIP3    H163592   5.499   6.741  11.720 -0.7991  0.0793 -0.8806
14059TIP3    H263593   5.604   6.850  11.727 -0.7788 -0.0329  1.0682
14060TIP3   OH263594   4.719   1.756   6.356  0.4996  0.9323 -0.9212
14060TIP3    H163595   4.781   1.740   6.427 -1.0774  1.4332  0.6410
14060TIP3    H263596   4.673   1.673   6.345  1.6426  0.4388 -2.3526
14061TIP3   OH263597   6.674   3.307   1.305 -0.7033  0.3396 -0.4753
14061TIP3    H163598   6.614   3.243   1.267 -2.9364  1.6084  0.7155
14061TIP3    H263599   6.740   3.321   1.237 -1.5255 -1.3981 -1.7019
14062TIP3   OH263600   0.705   4.957  14.750  0.0410  0.6494 -0.3497
14062TIP3    H163601   0.680   5.043  14.786  1.9825  0.6729  1.0881
14062TIP3    H263602   0.669   4.894  14.813  1.0295  0.5655  0.1526
14063TIP3   OH263603   4.997   6.758   3.946  0.1921 -0.4686 -0.8139
14063TIP3    H163604   5.002   6.662   3.943  0.7250 -0.4552 -0.5407
14063TIP3    H263605   5.006   6.779   4.040 -1.3438 -0.2214 -0.7012
14064TIP3   OH263606   5.551   4.987   2.775 -0.4160 -0.7903  0.0110
14064TIP3    H163607   5.566   4.972   2.869 -1.3606 -0.5642  0.2044
14064TIP3    H263608   5.461   5.019   2.770 -0.4348 -0.9815 -0.9963
14065TIP3   OH263609   1.883   5.299  15.042 -0.3465  0.3097 -0.1115
14065TIP3    H163610   1.811   5.338  15.092  1.2035  4.8977 -0.9428
14065TIP3    H263611   1.852   5.298  14.952 -1.1288 -2.7323  0.0995
14066TIP3   OH263612   0.299   1.889  11.768  0.4734 -0.1596 -0.4617
14066TIP3    H163613   0.372   1.862  11.824  1.8675  0.0925 -2.0800
14066TIP3    H263614   0.248   1.948  11.823  1.2027 -0.7375  0.8821
14067TIP3   OH263615   4.739   3.830   4.188 -0.0404 -0.6481 -0.6851
14067TIP3    H163616   4.803   3.861   4.124  0.7005  1.6730  1.0202
14067TIP3    H263617   4.655   3.858   4.153  0.4066  1.1333 -0.4497
14068TIP3   OH263618   4.413   3.577   1.097  0.4585 -0.2606  0.0682
14068TIP3    H163619   4.467   3.618   1.029 -0.3771 -0.4705 -0.7451
14068TIP3    H263620   4.365   3.509   1.051 -0.0926 -0.4406  0.8943
14069TIP3   OH263621   6.730   4.279  11.466 -0.6555  0.2242  0.0109
14069TIP3    H163622   6.797   4.213  11.484 -2.2910 -1.1395  1.5915
14069TIP3    H263623   6.779   4.359  11.448  1.3947 -1.1615 -0.9193
14070TIP3   OH263624   5.863   6.710  15.996  0.1482 -0.1824  0.4960
14070TIP3    H163625   5.848   6.702  15.902  0.4830 -1.4159  0.5266
14070TIP3    H263626   5.917   6.634  16.018 -0.1344 -0.0467  1.7263
14071TIP3   OH263627   0.572   3.747   0.296 -0.5447 -0.1428  0.0238
14071TIP3    H163628   0.549   3.694   0.372 -0.9180  0.2756  0.2079
14071TIP3    H263629   0.646   3.701   0.256 -0.0628 -0.1400  0.8816
14072TIP3   OH263630   1.085   0.608  12.443  0.0253 -0.4187  0.0689
14072TIP3    H163631   0.994   0.634  12.429  0.5210  1.6893  0.4110
14072TIP3    H263632   1.108   0.648  12.527  0.7742 -2.3727  0.8355
14073TIP3   OH263633   5.165   1.155  10.901 -0.1720 -0.5601  0.0135
14073TIP3    H163634   5.096   1.160  10.835 -2.6128  2.3606  2.4344
14073TIP3    H263635   5.222   1.229  10.883  1.2584 -1.8009 -0.7858
14074TIP3   OH263636   6.677   0.134   4.237  0.2574 -0.7832  0.3573
14074TIP3    H163637   6.719   0.124   4.151  0.5720  1.7127  0.1542
14074TIP3    H263638   6.738   0.093   4.298  0.6225 -1.4916 -0.4624
14075TIP3   OH263639   0.401   0.159  14.076 -0.3021 -0.3120  0.7365
14075TIP3    H163640   0.372   0.069  14.090 -1.7949 -0.1499 -0.9274
14075TIP3    H263641   0.486   0.151  14.034  0.0871 -0.8958  1.5971
14076TIP3   OH263642   5.058   6.678  11.625 -0.0267  0.5604  0.1937
14076TIP3    H163643   5.062   6.692  11.530  1.5366  0.5088  0.2177
14076TIP3    H263644   5.038   6.585  11.634  0.0643  0.5093 -0.0952
14077TIP3   OH263645   6.404   6.485   3.141 -0.5955 -0.0455 -0.4028
14077TIP3    H163646   6.398   6.534   3.059  2.5119 -0.8113 -1.2203
14077TIP3    H263647   6.431   6.397   3.115 -3.1953 -1.4439  1.2417
14078TIP3   OH263648   0.285   1.639   5.301  0.1909 -0.6914  0.2045
14078TIP3    H163649   0.200   1.608   5.331 -1.4512  2.2706 -0.9637
14078TIP3    H263650   0.270   1.667   5.211  1.8393  1.7637  0.6015
14079TIP3   OH263651   0.223   6.362   3.696 -0.1717  0.1228 -0.3607
14079TIP3    H163652   0.282   6.403   3.634 -1.2969  2.4864  0.0298
14079TIP3    H263653   0.280   6.333   3.768  0.6969  0.9210 -0.7092
14080TIP3   OH263654   1.765   3.970  16.453 -0.5505  0.1696  0.1890
14080TIP3    H163655   1.689   3.957  16.397  1.6223 -4.1752 -2.2992
14080TIP3    H263656   1.815   4.039  16.410  0.0719 -1.6843 -2.3028
14081TIP3   OH263657   0.611   5.221   1.771  0.7895  0.1694  0.2455
14081TIP3    H163658   0.527   5.192   1.807  0.1870  1.7632  0.1778
14081TIP3    H263659   0.648   5.142   1.730 -0.4798 -0.6425  0.6164
14082TIP3   OH263660   2.558   1.585  11.634 -0.0049 -0.2954 -0.0261
14082TIP3    H163661   2.637   1.597  11.580 -0.2680  0.4944 -0.2590
14082TIP3    H263662   2.490   1.563  11.570 -0.2365  0.2689  0.0218
14083TIP3   OH263663   1.271   5.301  13.643 -0.2536 -0.1764  0.5857
14083TIP3    H163664   1.252   5.209  13.661 -0.0972 -0.1014  1.1817
14083TIP3    H263665   1.364   5.301  13.620 -0.0357 -0.0623  1.4429
14084TIP3   OH263666   2.751   3.498  14.344 -0.4293  0.3910 -0.5664
14084TIP3    H163667   2.743   3.407  14.317 -1.0330  0.4735 -0.6587
14084TIP3    H263668   2.762   3.493  14.439  3.3335 -0.0049 -0.8678
14085TIP3   OH263669   3.249   3.644   1.273  0.5641 -0.0186  0.4682
14085TIP3    H163670   3.262   3.630   1.367  0.2172  0.3902  0.5816
14085TIP3    H263671   3.239   3.556   1.237  1.3951 -0.2199  0.7035
14086TIP3   OH263672   1.519   3.003  14.964 -0.3818 -0.6086 -0.1583
14086TIP3    H163673   1.436   2.956  14.966 -1.4455  1.1725 -0.1890
14086TIP3    H263674   1.562   2.980  15.047 -1.7035 -0.1991  0.6608
14087TIP3   OH263675   0.308   2.234  14.993  0.6111 -0.1709  0.3587
14087TIP3    H163676   0.336   2.151  14.952  2.3485  0.2662  0.5816
14087TIP3    H263677   0.351   2.302  14.940 -0.4388  0.5934  0.4525
14088TIP3   OH263678   2.744   2.561  11.146  0.0351  0.5599 -0.2467
14088TIP3    H163679   2.709   2.621  11.081 -0.7793 -0.5072 -0.8119
14088TIP3    H263680   2.750   2.476  11.102  0.9393  0.1470  0.6019
14089TIP3   OH263681   0.761   3.564  11.899  0.5560 -0.9155 -0.1773
14089TIP3    H163682   0.700   3.608  11.841 -1.0565  0.3413  2.3022
14089TIP3    H263683   0.764   3.619  11.978  3.6134 -1.8320  0.4810
14090TIP3   OH263684   4.386   0.570   0.540  0.1049  0.7683 -0.1824
14090TIP3    H163685   4.411   0.480   0.518  0.9394  1.0147 -0.2703
14090TIP3    H263686   4.297   0.562   0.575  0.9948 -0.4256  2.0201
14091TIP3   OH263687   0.098   2.225  14.660  0.0333  0.3589  0.1990
14091TIP3    H163688   0.103   2.140  14.704  1.4787 -0.1409 -0.8707
14091TIP3    H263689   0.039   2.210  14.586 -1.6119  0.9495  1.3188
14092TIP3   OH263690   2.523   3.301  13.581 -0.9726 -0.3362 -0.2601
14092TIP3    H163691   2.562   3.218  13.555 -1.2699 -0.7520  0.5662
14092TIP3    H263692   2.571   3.367  13.531  0.3314 -0.8859  0.2243
14093TIP3   OH263693   2.042   0.836   2.617  0.5607 -0.5135 -0.0996
14093TIP3    H163694   2.018   0.929   2.621  1.8351 -0.1241 -0.7421
14093TIP3    H263695   2.080   0.817   2.703  0.7766 -0.2835 -0.1406
14094TIP3   OH263696   2.210   3.077   4.652 -0.6289  0.5004  0.4654
14094TIP3    H163697   2.271   3.150   4.663 -2.2142  2.0636 -0.4791
14094TIP3    H263698   2.266   3.000   4.643  1.2236  1.9097 -0.8457
14095TIP3   OH263699   0.888   0.911   5.709  0.2069 -0.6658 -0.6747
14095TIP3    H163700   0.796   0.890   5.696 -0.1494  1.0916 -1.2202
14095TIP3    H263701   0.929   0.894   5.624 -0.0280  0.5037 -1.0348
14096TIP3   OH263702   5.473   3.651   0.856 -0.1565  0.0527 -0.3932
14096TIP3    H163703   5.535   3.600   0.804 -0.5685 -2.6738  1.5514
14096TIP3    H263704   5.523   3.680   0.932 -1.0247 -1.7652  0.9525
14097TIP3   OH263705   4.979   4.073  11.514 -0.0025  0.5191  0.2094
14097TIP3    H163706   5.057   4.020  11.529  0.3835  0.9654 -0.1748
14097TIP3    H263707   4.918   4.046  11.582  0.1216 -0.5271 -0.0873
14098TIP3   OH263708   5.793   4.301  15.449 -0.3220  0.5892 -0.0891
14098TIP3    H163709   5.873   4.321  15.498 -1.3182  1.6469  1.1698
14098TIP3    H263710   5.821   4.301  15.357  1.3839 -0.4246  0.3897
14099TIP3   OH263711   2.783   4.533   3.387  0.3030 -0.0396  0.6294
14099TIP3    H163712   2.749   4.491   3.308 -1.3836  1.0339  0.7229
14099TIP3    H263713   2.785   4.626   3.366  1.2453  0.1289  1.3746
14100TIP3   OH263714   0.988   3.992   2.456 -0.0765  0.2109  0.3434
14100TIP3    H163715   0.997   4.045   2.535  1.1198 -0.8551  0.9540
14100TIP3    H263716   0.951   4.052   2.391 -0.1921  1.3608  1.4314
14101TIP3   OH263717   3.710   0.628   5.858  0.3039 -0.2743 -0.6442
14101TIP3    H163718   3.724   0.714   5.819 -0.9271  0.2897  0.0995
14101TIP3    H263719   3.645   0.585   5.802  0.2349 -0.3643 -0.4959
14102TIP3   OH263720   4.180   4.534   5.840  0.3474  0.5742 -0.3252
14102TIP3    H163721   4.213   4.577   5.919 -1.2139  1.2400 -0.0078
14102TIP3    H263722   4.089   4.512   5.861 -0.1768  0.9947 -2.0216
14103TIP3   OH263723   3.184   4.082   6.525  0.6185  0.1144  0.3924
14103TIP3    H163724   3.215   4.144   6.590  0.2945  1.6492 -0.8746
14103TIP3    H263725   3.232   4.103   6.445  1.7334 -2.3527  0.2987
14104TIP3   OH263726   0.489   2.956   2.149  0.3327  0.1012 -0.4090
14104TIP3    H163727   0.510   2.965   2.242 -1.9650  1.1623  0.0640
14104TIP3    H263728   0.573   2.971   2.105  1.3629  0.1607  1.4301
14105TIP3   OH263729   5.156   0.287   6.401  0.1414  1.0355 -0.1666
14105TIP3    H163730   5.207   0.206   6.396 -0.4955  0.6715 -2.8115
14105TIP3    H263731   5.212   0.349   6.446  0.5283 -0.9111  2.2380
14106TIP3   OH263732   5.691   2.297  13.380 -0.0542  0.8178  0.6288
14106TIP3    H163733   5.659   2.296  13.290  1.7539  0.0687 -0.0479
14106TIP3    H263734   5.631   2.241  13.428  0.9552 -1.7115 -0.8886
14107TIP3   OH263735   4.227   6.424  12.152 -0.9876  0.0506  0.3730
14107TIP3    H163736   4.297   6.378  12.106 -2.1938 -1.4209 -0.0835
14107TIP3    H263737   4.269   6.462  12.228  0.3032 -0.8410  0.1432
14108TIP3   OH263738   1.604   2.110   6.937 -0.2367  0.1424  0.2365
14108TIP3    H163739   1.517   2.150   6.939 -0.4806 -0.2683 -1.1007
14108TIP3    H263740   1.631   2.116   6.845  1.6704  1.3216  0.8248
14109TIP3   OH263741   5.170   3.720  11.296 -0.5560 -0.0430  0.2712
14109TIP3    H163742   5.090   3.723  11.244 -0.4175  0.2230  0.0731
14109TIP3    H263743   5.140   3.699  11.384 -0.9581  1.1298  0.4315
14110TIP3   OH263744   4.681   3.455  13.863  0.0755 -0.0935 -0.5259
14110TIP3    H163745   4.762   3.453  13.914 -0.3615 -4.6217  0.3815
14110TIP3    H263746   4.706   3.421  13.777 -0.9048 -3.0812  0.2331
14111TIP3   OH263747   3.319   1.959  14.071  0.0203 -0.0002  0.3265
14111TIP3    H163748   3.225   1.945  14.083 -0.3128 -0.5930 -2.2719
14111TIP3    H263749   3.360   1.880  14.106 -0.6586 -0.7869 -0.6082
14112TIP3   OH263750   5.670   2.916  12.518  0.0318  0.4347 -0.1766
14112TIP3    H163751   5.662   2.951  12.429  0.8995  1.4232  0.1094
14112TIP3    H263752   5.620   2.835  12.517  0.6854  0.0130 -1.7916
14113TIP3   OH263753   5.501   4.378   2.487  0.0708 -0.2171 -0.0824
14113TIP3    H163754   5.543   4.292   2.483  5.0670  1.9165 -0.4689
14113TIP3    H263755   5.458   4.380   2.573 -0.2474 -3.0273 -0.1029
14114TIP3   OH263756   6.032   6.056   6.460 -0.0256 -0.1214  1.1621
14114TIP3    H163757   6.023   6.020   6.372 -0.0061 -1.8173  1.8264
14114TIP3    H263758   6.125   6.077   6.469 -0.1536  0.7776  0.5343
14115TIP3   OH263759   0.787   0.041  13.157  0.6016 -0.0852 -0.1800
14115TIP3    H163760   0.769  -0.022  13.088  1.2951  0.0390 -0.4713
14115TIP3    H263761   0.874   0.075  13.138  0.5031  0.4851  0.3426
14116TIP3   OH263762   4.627   5.470  11.993  0.3863 -0.0424  0.1432
14116TIP3    H163763   4.561   5.538  11.990  0.5012  0.0642 -1.9728
14116TIP3    H263764   4.711   5.517  11.988  0.5550 -0.2492  0.9532
14117TIP3   OH263765   5.897   6.629  11.829 -0.1541 -0.0578  0.3654
14117TIP3    H163766   5.940   6.544  11.838  0.3680  0.3185  1.6388
14117TIP3    H263767   5.848   6.622  11.747 -0.6712 -1.8269  0.7775
14118TIP3   OH263768   4.106   0.314  17.239  0.2243 -0.4353 -0.1601
14118TIP3    H163769   4.082   0.379  17.172  0.8375  0.0648  0.0911
14118TIP3    H263770   4.027   0.262  17.251 -0.9629  1.4975  1.0437
14119TIP3   OH263771   6.629   4.831  15.394  0.0227 -0.0448 -0.2929
14119TIP3    H163772   6.560   4.885  15.433 -0.4192 -2.2219  2.1958
14119TIP3    H263773   6.583   4.754  15.361  0.8429  0.2848 -2.3640
14120TIP3   OH263774   1.879   0.492  16.178 -0.4406 -0.1095  0.1538
14120TIP3    H163775   1.817   0.555  16.140  1.8502  1.9364 -0.4839
14120TIP3    H263776   1.844   0.473  16.265 -2.3097  0.3787 -0.4434
14121TIP3   OH263777   0.286   3.765  16.503 -1.0573  0.6029 -0.9685
14121TIP3    H163778   0.217   3.700  16.496 -1.0258  0.4019  0.3324
14121TIP3    H263779   0.363   3.716  16.532 -1.1794  1.2792  0.5837
14122TIP3   OH263780   6.578   4.741  11.640  0.3460 -0.1314  0.3262
14122TIP3    H163781   6.555   4.804  11.709 -0.0994  2.0115 -1.6387
14122TIP3    H263782   6.546   4.657  11.673 -1.6837  1.1274  1.8572
14123TIP3   OH263783   6.160   6.394   4.229 -0.4270  0.1982 -0.2572
14123TIP3    H163784   6.175   6.466   4.166  1.3963  1.5453  1.5897
14123TIP3    H263785   6.099   6.336   4.184  0.4671  1.2898 -3.1064
14124TIP3   OH263786   6.589   6.307   3.662 -0.3042  0.3447  0.3510
14124TIP3    H163787   6.523   6.281   3.598  0.1360  1.3200 -0.5123
14124TIP3    H263788   6.632   6.383   3.624  1.6325 -0.5205  0.7003
14125TIP3   OH263789   1.170   3.927  14.073  0.3504 -0.1260  0.0656
14125TIP3    H163790   1.252   3.879  14.069  0.4266 -0.3761  2.9069
14125TIP3    H263791   1.103   3.859  14.076  0.0578  0.0727 -1.2001
14126TIP3   OH263792   0.283   3.091   0.180 -0.2598 -0.3925  0.6165
14126TIP3    H163793   0.287   3.002   0.145  0.6369 -0.5428  1.0797
14126TIP3    H263794   0.193   3.100   0.210 -0.6674 -0.7455 -0.4383
14127TIP3   OH263795   0.583   1.196   2.354 -0.4686  0.4644  0.0793
14127TIP3    H163796   0.566   1.267   2.292 -0.9722 -0.1898 -0.5565
14127TIP3    H263797   0.614   1.239   2.433  1.9275  1.2613 -1.1791
14128TIP3   OH263798   3.830   0.242  14.101  0.4122 -0.2239  0.0535
14128TIP3    H163799   3.875   0.296  14.036 -0.4908  0.2337 -0.2101
14128TIP3    H263800   3.867   0.269  14.185  0.4862  0.2929 -0.1430
14129TIP3   OH263801   6.442   3.989  14.216 -0.3224  0.3223 -0.1052
14129TIP3    H163802   6.421   3.949  14.132 -1.4149 -1.7886  1.1047
14129TIP3    H263803   6.511   4.052  14.196  1.5079 -2.1475 -2.1899
14130TIP3   OH263804   5.527   2.979  13.263 -0.1924  0.2406  0.7052
14130TIP3    H163805   5.456   2.979  13.328 -0.3573 -1.1149  0.5451
14130TIP3    H263806   5.605   3.002  13.313 -0.5201  0.3941  1.1512
14131TIP3   OH263807   0.516   2.445  12.254  0.0339 -0.1516 -0.0752
14131TIP3    H163808   0.488   2.359  12.285 -2.0131  0.0520 -1.1820
14131TIP3    H263809   0.585   2.471  12.315  0.5884 -2.4615  0.4057
14132TIP3   OH263810   6.683   0.455  12.330  0.7752 -0.0643 -0.2735
14132TIP3    H163811   6.752   0.459  12.264 -0.0802  0.8863 -1.1374
14132TIP3    H263812   6.691   0.368  12.368 -1.4222 -2.4799 -4.6474
14133TIP3   OH263813   6.654   0.896   5.045  0.0280 -0.2598  0.2273
14133TIP3    H163814   6.641   0.928   4.955  1.6966 -0.3167 -0.0727
14133TIP3    H263815   6.566   0.894   5.082 -0.6307  0.4309 -1.1810
14134TIP3   OH263816   3.078   0.148  14.812 -0.6115  0.1329  0.1832
14134TIP3    H163817   3.121   0.108  14.888 -1.8600 -1.8952 -0.0972
14134TIP3    H263818   2.986   0.122  14.820 -0.8549  0.2172 -1.7871
14135TIP3   OH263819   6.338   5.637  17.211 -0.2669  0.4255 -0.4105
14135TIP3    H163820   6.360   5.556  17.257 -0.2681  1.9710  2.5377
14135TIP3    H263821   6.421   5.684  17.205 -0.4169  0.5869 -1.3681
14136TIP3   OH263822   5.002   2.742   0.708 -0.2087 -0.3857  0.2572
14136TIP3    H163823   4.927   2.793   0.738  0.7582  0.5168  1.2178
14136TIP3    H263824   5.034   2.789   0.631  1.5875  1.4268  1.9918
14137TIP3   OH263825   0.595   4.380  12.072 -0.3133  0.1953  0.0047
14137TIP3    H163826   0.594   4.322  12.148 -0.7263  0.2450  0.0383
14137TIP3    H263827   0.637   4.329  12.003  0.3898  0.2803  0.3681
14138TIP3   OH263828   2.522   5.737   5.900 -0.2277  0.2472 -0.5567
14138TIP3    H163829   2.575   5.658   5.909 -3.5540 -2.2421 -0.6478
14138TIP3    H263830   2.576   5.807   5.936  2.1358 -2.4283  1.5450
14139TIP3   OH263831   6.743   0.513  12.971 -0.2449 -0.4798 -0.5415
14139TIP3    H163832   6.825   0.542  13.012 -0.4055 -0.4950 -0.2028
14139TIP3    H263833   6.770   0.444  12.910  0.3554  1.4486 -2.5702
14140TIP3   OH263834   2.562   1.469   6.065  0.8471  0.0124 -0.0417
14140TIP3    H163835   2.603   1.481   6.150  0.8262  0.2300 -0.0626
14140TIP3    H263836   2.468   1.463   6.083  0.9266 -1.0664  0.0671
14141TIP3   OH263837   6.418   4.987  15.500 -0.6768 -0.1465  0.3818
14141TIP3    H163838   6.475   4.992  15.577 -1.2941  0.4460  0.8098
14141TIP3    H263839   6.334   4.956  15.534 -0.8010 -0.4004 -0.1436
14142TIP3   OH263840   3.600   4.780  11.929 -0.1022 -0.3964  0.3412
14142TIP3    H163841   3.634   4.690  11.924  0.4115 -0.1525 -1.1039
14142TIP3    H263842   3.612   4.805  12.021  2.7582 -0.6987  0.1417
14143TIP3   OH263843   2.122   1.265  16.273  0.3352  0.1063 -0.0078
14143TIP3    H163844   2.046   1.309  16.311  1.2198  0.2341  1.7287
14143TIP3    H263845   2.091   1.232  16.189 -1.4050  0.8471  0.2966
14144TIP3   OH263846   4.511   3.512   3.923  0.1929  0.3254  0.2896
14144TIP3    H163847   4.491   3.569   3.997 -0.3335 -0.4462  0.7469
14144TIP3    H263848   4.438   3.525   3.863 -0.0882 -0.0971  0.5355
14145TIP3   OH263849   4.826   5.346   3.500 -0.0942 -0.0812  0.3310
14145TIP3    H163850   4.750   5.325   3.445  0.8451 -0.6019 -0.8136
14145TIP3    H263851   4.897   5.363   3.438  0.6672  0.6848  1.3690
14146TIP3   OH263852   2.629   5.919   3.356  0.1838 -0.5511 -0.2588
14146TIP3    H163853   2.627   5.891   3.264 -0.3456  0.1212 -0.4650
14146TIP3    H263854   2.622   6.015   3.351  2.1742 -0.3248  0.4044
14147TIP3   OH263855   0.571   0.417   2.396 -0.0917 -0.0053  0.3688
14147TIP3    H163856   0.567   0.513   2.391 -0.6432 -0.0899 -1.3575
14147TIP3    H263857   0.654   0.395   2.352 -0.5054 -0.3543 -0.2599
14148TIP3   OH263858   5.821   3.198   5.625  0.4336  0.2675 -0.3682
14148TIP3    H163859   5.867   3.123   5.663 -0.4803 -0.4799 -0.6911
14148TIP3    H263860   5.824   3.182   5.530  0.6754  0.9055 -0.4689
14149TIP3   OH263861   5.253   5.686   1.974 -0.2202 -0.0119 -0.2756
14149TIP3    H163862   5.237   5.593   1.955  0.6724 -0.0294 -1.0335
14149TIP3    H263863   5.349   5.694   1.977 -0.2905  0.8400  0.0033
14150TIP3   OH263864   1.757   1.138   0.829 -0.4370  0.0503 -0.4321
14150TIP3    H163865   1.785   1.052   0.860 -0.8908  0.6414  1.8081
14150TIP3    H263866   1.694   1.120   0.760  0.5643 -1.3686 -1.0232
14151TIP3   OH263867   2.638   3.632   5.375 -0.1762  0.1372 -0.0225
14151TIP3    H163868   2.669   3.695   5.309  0.2428  1.5292  1.4332
14151TIP3    H263869   2.653   3.546   5.336  1.5455  0.8867 -1.0941
14152TIP3   OH263870   0.953   2.752  15.263 -0.3912 -1.3335  0.3992
14152TIP3    H163871   0.985   2.704  15.339 -1.6266 -2.3956  0.2822
14152TIP3    H263872   0.880   2.699  15.230 -2.1440  0.8283  0.5413
14153TIP3   OH263873   5.330   5.961   1.535 -0.1182 -0.5589 -0.6430
14153TIP3    H163874   5.304   5.869   1.545  1.8706 -1.1159  0.0186
14153TIP3    H263875   5.336   5.975   1.441 -1.7724 -0.6648 -0.7916
14154TIP3   OH263876   3.761   2.342   1.373 -0.3616  0.0297 -0.0357
14154TIP3    H163877   3.806   2.423   1.395 -0.2273  0.4515 -1.7533
14154TIP3    H263878   3.701   2.327   1.446 -0.9002  2.0548 -0.0182
14155TIP3   OH263879   3.218   3.014   1.619  0.0951 -0.2605 -0.3256
14155TIP3    H163880   3.144   3.053   1.571 -0.5137  0.6249  1.2561
14155TIP3    H263881   3.280   2.989   1.551 -1.2286 -0.1039 -1.6410
14156TIP3   OH263882   4.868   1.263   3.960  0.3309 -0.0650  0.3011
14156TIP3    H163883   4.880   1.342   3.908  1.6980 -0.1723  0.4156
14156TIP3    H263884   4.857   1.294   4.049 -1.6998  0.1019  0.0427
14157TIP3   OH263885   2.593   3.653   0.453 -1.0077  0.0565  0.7738
14157TIP3    H163886   2.512   3.603   0.442  0.7148 -3.5435  2.6668
14157TIP3    H263887   2.640   3.640   0.370 -1.2338 -0.1676  0.6782
14158TIP3   OH263888   5.278   0.669  11.776 -0.1402  0.0843 -0.3233
14158TIP3    H163889   5.274   0.574  11.788  0.2887  0.0916 -0.0754
14158TIP3    H263890   5.316   0.702  11.858  0.5310  0.3804 -0.7381
14159TIP3   OH263891   2.933   2.411   4.168  0.1903 -0.4535 -0.1677
14159TIP3    H163892   2.963   2.394   4.257 -0.5112  0.6177  0.2887
14159TIP3    H263893   2.844   2.375   4.165 -0.0687  0.1872 -0.2024
14160TIP3   OH263894   4.060   4.864  11.083 -0.2058 -0.3105  0.4835
14160TIP3    H163895   4.077   4.923  11.010 -1.5040 -2.1658 -1.4420
14160TIP3    H263896   4.143   4.818  11.096  0.0105 -0.0298  0.1141
14161TIP3   OH263897   2.076   2.563  15.557  0.1968 -0.3129  0.4159
14161TIP3    H163898   2.083   2.531  15.467  0.1220  0.4291  0.1319
14161TIP3    H263899   1.988   2.601  15.562  0.9224  1.5239  0.1424
14162TIP3   OH263900   3.383   2.127   3.536  0.0566 -0.3163  0.7244
14162TIP3    H163901   3.340   2.212   3.528 -0.4744 -0.5919  0.6269
14162TIP3    H263902   3.386   2.092   3.447  1.9481  0.3960  0.4536
14163TIP3   OH263903   5.700   1.682   1.023 -0.3678 -0.0921 -0.2247
14163TIP3    H163904   5.724   1.617   0.957  0.0984  0.3650 -0.5204
14163TIP3    H263905   5.772   1.680   1.086 -0.9483 -0.7268  0.4344
14164TIP3   OH263906   0.876   2.660  15.531 -0.1941 -0.4927  0.1758
14164TIP3    H163907   0.852   2.623  15.616 -2.3014 -0.1037 -0.1836
14164TIP3    H263908   0.858   2.754  15.539  0.5821 -0.2889 -0.3780
14165TIP3   OH263909   4.502   0.366  12.512 -1.0898  0.1711 -0.2116
14165TIP3    H163910   4.436   0.303  12.484  0.8599 -1.4623 -1.3610
14165TIP3    H263911   4.579   0.314  12.532  0.6699  2.1648 -1.3523
14166TIP3   OH263912   4.630   2.260  14.159  0.5912 -0.1778  0.2429
14166TIP3    H163913   4.576   2.181  14.166 -0.3800  0.3897 -0.6807
14166TIP3    H263914   4.695   2.239  14.092  0.7188 -0.4067  0.4374
14167TIP3   OH263915   1.001   6.090   2.639 -0.2710 -0.5701  0.9821
14167TIP3    H163916   0.926   6.031   2.632 -2.5233  2.3055 -2.0924
14167TIP3    H263917   1.066   6.053   2.580 -0.5196 -1.4074  1.2124
14168TIP3   OH263918   5.139   0.783   0.569  0.0973  0.3609 -0.2529
14168TIP3    H163919   5.093   0.722   0.627  0.8837 -0.6435 -0.6701
14168TIP3    H263920   5.172   0.851   0.628 -0.6535  0.3167  0.2376
14169TIP3   OH263921   2.978   0.290   1.750 -0.5586 -0.0370  0.3958
14169TIP3    H163922   3.034   0.269   1.825 -0.9525  0.7474  0.9274
14169TIP3    H263923   2.987   0.215   1.691  1.0117  0.0672  0.4733
14170TIP3   OH263924   4.991   3.768  12.996  0.0724  0.2347 -0.5102
14170TIP3    H163925   5.080   3.787  13.024 -0.5989 -1.0694  2.9932
14170TIP3    H263926   4.940   3.845  13.022 -0.1307  0.1844 -0.7564
14171TIP3   OH263927   6.253   1.009   3.254  0.3905  0.1617 -0.0191
14171TIP3    H163928   6.172   1.056   3.276  0.3294  0.3014 -0.5103
14171TIP3    H263929   6.223   0.921   3.230  0.5676 -0.3261  1.4967
14172TIP3   OH263930   6.440   0.389  15.949  0.0461 -0.6071 -0.0149
14172TIP3    H163931   6.348   0.383  15.976 -0.4615  1.9800 -0.8029
14172TIP3    H263932   6.489   0.395  16.031 -0.9553  2.0154  0.4998
14173TIP3   OH263933   2.614   4.781  13.242  0.2159  0.2403 -0.1112
14173TIP3    H163934   2.601   4.865  13.196  2.1063 -0.2009 -1.5798
14173TIP3    H263935   2.569   4.717  13.187  2.4209 -0.2799 -1.4150
14174TIP3   OH263936   2.998   4.076   5.071  0.4122  0.8024 -0.0861
14174TIP3    H163937   3.005   4.006   5.006  0.5599  0.3312  0.4184
14174TIP3    H263938   3.011   4.031   5.155  2.1424  1.6619  0.1682
14175TIP3   OH263939   5.955   0.653  15.750 -0.4888 -0.1226 -0.4952
14175TIP3    H163940   5.865   0.680  15.729  0.2940  0.7597 -3.0694
14175TIP3    H263941   5.970   0.575  15.696  0.1104 -0.6362  0.3904
14176TIP3   OH263942   1.184   5.314  13.367  0.1373  0.1382  0.2343
14176TIP3    H163943   1.157   5.289  13.456 -1.4466  2.2250  0.4166
14176TIP3    H263944   1.105   5.303  13.314  1.2808 -1.8649 -1.1516
14177TIP3   OH263945   6.429   0.208   0.292  0.0235 -0.0883  0.3805
14177TIP3    H163946   6.362   0.149   0.259  0.1489  1.0483 -2.0898
14177TIP3    H263947   6.507   0.153   0.299 -0.7412 -1.0588  1.8461
14178TIP3   OH263948   6.672   2.153   2.130 -0.6509 -0.2475 -0.8296
14178TIP3    H163949   6.606   2.168   2.197 -1.2577 -0.7338 -1.3078
14178TIP3    H263950   6.744   2.110   2.176  0.1303  1.9343  0.0749
14179TIP3   OH263951   3.731   1.026   1.748 -0.4705 -0.3328  0.0700
14179TIP3    H163952   3.769   0.945   1.782 -2.6548 -1.0431  0.9488
14179TIP3    H263953   3.802   1.064   1.695  0.0350 -3.8460 -2.1495
14180TIP3   OH263954   4.764   5.344   0.161  0.1622 -0.1478  0.0405
14180TIP3    H163955   4.773   5.439   0.161 -0.8186 -0.0332  1.0421
14180TIP3    H263956   4.772   5.319   0.253 -0.6793 -0.9163 -0.0821
14181TIP3   OH263957   4.359   5.701  14.994 -0.0341  0.0229 -0.0160
14181TIP3    H163958   4.283   5.707  14.936 -1.3792 -0.4425  1.6396
14181TIP3    H263959   4.419   5.642  14.947 -1.7199 -1.5517 -0.3078
14182TIP3   OH263960   4.940   4.621  16.246  1.0007 -0.3728  0.0901
14182TIP3    H163961   4.885   4.685  16.201  0.5870 -0.8581 -0.1042
14182TIP3    H263962   4.943   4.650  16.337 -1.7279 -1.7411  0.7170
14183TIP3   OH263963   1.469   5.070   5.804  0.2215  0.6811  0.6500
14183TIP3    H163964   1.496   5.020   5.727 -0.7344  2.2283 -0.7393
14183TIP3    H263965   1.547   5.121   5.826  1.3388 -1.5420  2.3128
14184TIP3   OH263966   4.160   6.438   5.770  0.5428 -1.1193  0.1109
14184TIP3    H163967   4.203   6.484   5.698  0.4801  1.7013  1.7355
14184TIP3    H263968   4.171   6.495   5.845 -2.7651 -2.0515  1.4960
14185TIP3   OH263969   5.431   1.567   4.367  0.0254 -0.0772  0.5559
14185TIP3    H163970   5.493   1.570   4.439 -0.3339 -0.3067  0.8791
14185TIP3    H263971   5.349   1.599   4.405 -0.0264  0.3417  0.1034
14186TIP3   OH263972   3.989   0.599  11.094 -0.1549  0.0205 -0.4918
14186TIP3    H163973   4.003   0.693  11.106 -0.5570  0.0406 -0.1648
14186TIP3    H263974   4.072   0.559  11.121  0.3811  0.3354 -1.5950
14187TIP3   OH263975   3.898   5.230  13.578  0.0922 -0.9761  0.0529
14187TIP3    H163976   3.894   5.325  13.565  1.2577 -0.8799  0.3208
14187TIP3    H263977   3.833   5.195  13.517  1.5023 -0.1870 -1.9993
14188TIP3   OH263978   6.482   2.633   3.923  0.0442  0.5424  0.4162
14188TIP3    H163979   6.395   2.673   3.928 -0.6484 -0.3415 -2.4479
14188TIP3    H263980   6.525   2.678   3.850  1.0069 -0.6890  0.1759
14189TIP3   OH263981   1.109   4.680  11.267 -0.1845  0.0090 -0.3756
14189TIP3    H163982   1.155   4.602  11.236 -1.9928 -1.4033  0.3692
14189TIP3    H263983   1.055   4.707  11.193 -0.1341  0.1104 -0.3760
14190TIP3   OH263984   4.422   0.556  15.363  0.2338  0.3241 -0.0166
14190TIP3    H163985   4.401   0.648  15.350 -0.6665  0.0446 -0.6002
14190TIP3    H263986   4.413   0.542  15.457 -1.1759  0.4779 -0.1076
14191TIP3   OH263987   5.423   4.760   3.979  0.1677  0.0030  0.4297
14191TIP3    H163988   5.380   4.800   4.054 -0.9333  1.9337 -1.1240
14191TIP3    H263989   5.374   4.680   3.962 -0.3143  0.1569  1.0703
14192TIP3   OH263990   3.086   5.968  14.317 -0.0255 -0.1889  0.4943
14192TIP3    H163991   2.997   5.992  14.292  0.9931  3.1804 -0.4348
14192TIP3    H263992   3.123   6.049  14.353  3.2101 -0.9227 -0.8271
14193TIP3   OH263993   1.309   3.698  17.147 -0.3209  0.0817  0.4891
14193TIP3    H163994   1.273   3.706  17.058 -0.0122  0.8043  0.4238
14193TIP3    H263995   1.369   3.624  17.142 -0.4028  0.0364  0.1223
14194TIP3   OH263996   3.458   5.461   6.608  0.3246 -0.5949 -0.6841
14194TIP3    H163997   3.542   5.435   6.646  1.7647  2.0680 -1.7957
14194TIP3    H263998   3.429   5.535   6.660 -0.7219 -0.7072 -1.0819
14195TIP3   OH263999   1.521   4.803   4.362  0.0576 -0.0205 -0.3235
14195TIP3    H164000   1.589   4.785   4.427  1.0991  0.6895 -1.1814
14195TIP3    H264001   1.567   4.797   4.277 -0.5678  2.0387 -0.8507
14196TIP3   OH264002   1.080   4.775  15.008 -0.0788 -0.4117  0.0419
14196TIP3    H164003   1.121   4.760  15.093 -0.6298 -1.8215  0.0806
14196TIP3    H264004   1.154   4.775  14.946  0.5813  2.6654  0.6624
14197TIP3   OH264005   3.406   4.842   0.313 -0.5962 -0.1382  0.2971
14197TIP3    H164006   3.417   4.882   0.399 -1.5281 -1.8354  1.2490
14197TIP3    H264007   3.496   4.830   0.281 -0.2489  2.5724 -0.0579
14198TIP3   OH264008   1.597   3.338   5.638  0.1741 -0.3329 -0.4796
14198TIP3    H164009   1.656   3.398   5.591 -0.2878 -0.1576 -0.8412
14198TIP3    H264010   1.651   3.302   5.709  1.3821 -1.8642 -2.1033
14199TIP3   OH264011   1.208   1.302  12.753  0.2793 -0.4733  0.1341
14199TIP3    H164012   1.163   1.244  12.692  0.3159 -0.7333  0.3507
14199TIP3    H264013   1.138   1.333  12.811 -0.0719  1.1653 -1.1060
14200TIP3   OH264014   3.575   5.718   3.136  0.2110  0.5949 -0.1486
14200TIP3    H164015   3.574   5.803   3.093 -1.6413  1.5256  1.5609
14200TIP3    H264016   3.562   5.655   3.065 -2.4423  2.0334 -1.0744
14201TIP3   OH264017   1.589   1.777  12.708 -0.7581  0.6449 -0.3251
14201TIP3    H164018   1.618   1.806  12.795  0.3822  0.5400 -0.6470
14201TIP3    H264019   1.496   1.757  12.718 -0.6475  0.6842  0.8609
14202TIP3   OH264020   0.483   6.119  16.703  0.0588  0.3872  0.1153
14202TIP3    H164021   0.537   6.070  16.764  0.4189 -1.1106 -1.3166
14202TIP3    H264022   0.468   6.203  16.745  0.4969 -0.4833  2.1197
14203TIP3   OH264023   6.200   6.134   2.363  0.7094 -1.0367 -0.3751
14203TIP3    H164024   6.145   6.065   2.326  0.8846 -1.2382 -0.2612
14203TIP3    H264025   6.254   6.089   2.429 -1.0864 -0.3463  1.6983
14204TIP3   OH264026   2.465   4.287  13.309 -0.0112 -0.2519 -0.1422
14204TIP3    H164027   2.453   4.196  13.336  1.5283 -0.4054  0.1401
14204TIP3    H264028   2.518   4.325  13.380 -1.6489  1.2083  0.3565
14205TIP3   OH264029   5.819   6.385   1.487 -0.1620 -0.0809 -0.0144
14205TIP3    H164030   5.786   6.411   1.574  1.7708  0.7791  0.5226
14205TIP3    H264031   5.909   6.417   1.486 -0.2259  0.1605 -2.4646
14206TIP3   OH264032   6.397   2.939   0.506  0.1497  0.4222  0.1050
14206TIP3    H164033   6.371   3.021   0.548 -1.0057  1.0437 -1.7034
14206TIP3    H264034   6.449   2.966   0.430  0.6656 -0.5773  0.0808
14207TIP3   OH264035   2.060   2.599   4.149  0.3563 -0.5847 -0.1852
14207TIP3    H164036   2.144   2.592   4.104  1.7153 -0.9079  2.2157
14207TIP3    H264037   2.049   2.514   4.192  0.5130  0.4980  2.1978
14208TIP3   OH264038   3.056   2.347   4.419  1.0716  0.5887  0.3306
14208TIP3    H164039   3.130   2.407   4.412 -0.5539  3.1226  2.9263
14208TIP3    H264040   3.066   2.307   4.505 -0.1036  0.2738  0.3334
14209TIP3   OH264041   5.181   5.316   4.885  0.3534  0.7888  0.2681
14209TIP3    H164042   5.186   5.411   4.879  0.4345  0.9466  2.0902
14209TIP3    H264043   5.244   5.293   4.954 -0.0731 -0.5207  0.2535
14210TIP3   OH264044   2.035   3.914  15.618 -0.1786 -0.2196 -1.1683
14210TIP3    H164045   2.080   3.973  15.558  0.1289  0.1997 -0.5267
14210TIP3    H264046   2.104   3.860  15.656 -0.5739 -2.0677 -2.8470
14211TIP3   OH264047   1.924   1.044   2.029 -0.2008  0.0972 -0.6627
14211TIP3    H164048   2.012   1.035   1.993  0.1586 -1.6534  0.5193
14211TIP3    H264049   1.869   1.063   1.954  0.9180 -0.7343 -1.7326
14212TIP3   OH264050   3.489   1.160  14.729  0.2743 -0.8995  0.2295
14212TIP3    H164051   3.552   1.229  14.751 -0.5204  0.1546 -0.6577
14212TIP3    H264052   3.480   1.165  14.634  0.2754 -2.3273  0.1301
14213TIP3   OH264053   2.950   0.713   5.167  0.2173 -0.8058  0.0030
14213TIP3    H164054   2.872   0.767   5.153  0.9242  0.4691  0.8207
14213TIP3    H264055   2.989   0.705   5.080  1.1534  1.7115  0.1040
14214TIP3   OH264056   2.451   2.845  12.915 -0.1275 -0.2574 -0.4882
14214TIP3    H164057   2.374   2.884  12.956  0.6818 -0.6911  1.5761
14214TIP3    H264058   2.504   2.919  12.888  0.2834  0.1177  1.2139
14215TIP3   OH264059   5.363   1.891  17.151 -0.4485  0.0445  0.0518
14215TIP3    H164060   5.412   1.908  17.070  2.1951  3.5354  2.1411
14215TIP3    H264061   5.326   1.976  17.176  0.2128 -0.4980  3.3112
14216TIP3   OH264062   4.197   2.033  13.551  0.6951 -0.4992 -0.1585
14216TIP3    H164063   4.197   2.026  13.455  2.1429  0.4586 -0.2567
14216TIP3    H264064   4.188   2.127  13.568  2.8345 -0.3849  0.5628
14217TIP3   OH264065   3.962   2.797  12.131 -0.5329 -0.4989  0.3737
14217TIP3    H164066   4.013   2.873  12.160 -2.6534  0.2326  2.4907
14217TIP3    H264067   3.880   2.803  12.180 -2.2692 -2.1674 -2.1271
14218TIP3   OH264068   3.359   4.027   0.387  0.3052 -0.3631  0.4386
14218TIP3    H164069   3.346   4.120   0.403 -0.8320 -0.1357 -1.4569
14218TIP3    H264070   3.383   3.990   0.472  0.5731  1.6123  1.2589
14219TIP3   OH264071   6.039   6.681  13.604  0.1097 -0.4575  0.2506
14219TIP3    H164072   6.121   6.717  13.572 -0.5247 -0.8568 -1.9911
14219TIP3    H264073   6.020   6.609  13.545 -2.1676  0.0166  0.3260
14220TIP3   OH264074   5.308   6.767   3.415 -0.4675 -0.1582 -0.6757
14220TIP3    H164075   5.243   6.829   3.448 -0.2325 -1.0278  1.6287
14220TIP3    H264076   5.256   6.699   3.373 -0.8200  0.7350 -1.7287
14221TIP3   OH264077   4.546   0.921   4.716  0.3415 -0.2709  0.0306
14221TIP3    H164078   4.558   0.980   4.641  1.6160 -0.6533 -0.0856
14221TIP3    H264079   4.627   0.929   4.766  1.2905 -3.1044 -0.8439
14222TIP3   OH264080   4.880   0.028  15.066 -0.1666 -0.8212 -0.0141
14222TIP3    H164081   4.856  -0.026  14.990 -2.8206 -0.2788  0.3276
14222TIP3    H264082   4.865  -0.029  15.141 -0.3229 -0.4613  0.2290
14223TIP3   OH264083   0.651   5.654  16.846  0.8331 -0.1039  0.9765
14223TIP3    H164084   0.599   5.654  16.927  2.2924  1.3567  1.9891
14223TIP3    H264085   0.726   5.599  16.867  1.5764  0.8625  0.8744
14224TIP3   OH264086   1.479   5.296  12.034  0.1912  0.0573 -0.3328
14224TIP3    H164087   1.431   5.284  12.116 -0.4147 -0.6533 -0.7837
14224TIP3    H264088   1.567   5.324  12.061 -0.2795  0.7571  0.5199
14225TIP3   OH264089   2.304   3.663  13.608  0.0279 -0.2851  0.2521
14225TIP3    H164090   2.344   3.661  13.695  1.7029  2.0753 -0.3740
14225TIP3    H264091   2.378   3.654  13.548 -0.8243  0.4966 -0.9423
14226TIP3   OH264092   2.259   6.171  12.044  0.2391  0.3887  0.6548
14226TIP3    H164093   2.234   6.250  11.997 -2.5126 -0.7221  0.0667
14226TIP3    H264094   2.334   6.136  11.996 -2.0781 -0.3876 -2.6705
14227TIP3   OH264095   5.289   4.462   4.881 -0.0499  0.3802 -0.4203
14227TIP3    H164096   5.309   4.437   4.791 -0.3765  1.3460 -0.7780
14227TIP3    H264097   5.223   4.531   4.872  0.5679  1.1163  0.5149
14228TIP3   OH264098   4.021   4.476  12.187  0.6293 -0.4964  0.4620
14228TIP3    H164099   3.982   4.563  12.185  0.4225 -0.6025 -0.1877
14228TIP3    H264100   4.097   4.482  12.129  0.7932 -0.6641  0.6567
14229TIP3   OH264101   2.441   1.361   0.745 -0.2085 -0.1246 -0.4084
14229TIP3    H164102   2.457   1.295   0.813 -1.0961  2.0421  2.0633
14229TIP3    H264103   2.528   1.387   0.716  0.4157  1.2013  2.3545
14230TIP3   OH264104   4.660   1.654   5.050 -0.8693 -0.2397  0.0712
14230TIP3    H164105   4.573   1.650   5.010 -2.0460  1.9131  2.1372
14230TIP3    H264106   4.643   1.646   5.144  1.2129 -0.1795  0.4914
14231TIP3   OH264107   3.205   5.824  12.096 -0.0056  0.0139 -0.2193
14231TIP3    H164108   3.246   5.822  12.010 -1.4415  4.1048 -1.2167
14231TIP3    H264109   3.126   5.877  12.084 -1.2353 -0.7461  3.2902
14232TIP3   OH264110   2.579   3.762   1.540  0.2107  0.6696 -0.0702
14232TIP3    H164111   2.494   3.719   1.536  0.6680 -0.2094 -1.2155
14232TIP3    H264112   2.561   3.849   1.574 -1.2147  0.6494 -0.7023
14233TIP3   OH264113   2.928   0.228  13.173 -0.6837  0.1816 -0.2447
14233TIP3    H164114   3.017   0.249  13.144 -0.0928 -0.6888  0.8451
14233TIP3    H264115   2.925   0.258  13.264 -0.8061 -1.5755  0.3792
14234TIP3   OH264116   0.362   1.326   3.136 -0.0821 -0.3899 -0.0993
14234TIP3    H164117   0.428   1.384   3.175  1.7798 -2.1903 -0.3729
14234TIP3    H264118   0.352   1.358   3.047 -0.7297  0.8202  0.3961
14235TIP3   OH264119   3.932   4.227   5.189  0.7303 -0.3394  0.4696
14235TIP3    H164120   3.838   4.229   5.205  0.6394  0.1857 -0.1268
14235TIP3    H264121   3.950   4.307   5.139  1.2314 -1.2341 -0.8317
14236TIP3   OH264122   2.522   2.876  17.119  0.0455 -0.1969  0.1865
14236TIP3    H164123   2.527   2.949  17.181  0.0247 -0.1565  0.1411
14236TIP3    H264124   2.583   2.811  17.152  1.2133  0.4694 -0.6045
14237TIP3   OH264125   4.481   4.864   4.380 -0.5883  0.4578  0.4085
14237TIP3    H164126   4.426   4.800   4.424  1.4566 -0.7369  1.3861
14237TIP3    H264127   4.562   4.866   4.431  1.2890  0.2124 -2.3471
14238TIP3   OH264128   3.015   2.269  15.114 -0.1753 -0.6409  0.2354
14238TIP3    H164129   3.037   2.185  15.075  0.1223 -0.4181 -0.0926
14238TIP3    H264130   2.992   2.325  15.039  0.7019 -0.1217  0.3336
14239TIP3   OH264131   5.102   3.085  14.073  0.3948 -0.3267 -0.7899
14239TIP3    H164132   5.059   3.170  14.066  0.0750 -0.5645 -1.9199
14239TIP3    H264133   5.061   3.043  14.149  1.7418  1.1667  0.8405
14240TIP3   OH264134   0.472   2.346   0.317  0.1061 -0.1214  0.0609
14240TIP3    H164135   0.546   2.287   0.332 -0.2376 -0.7529 -0.6582
14240TIP3    H264136   0.411   2.326   0.389  0.3113 -0.1175  0.2367
14241TIP3   OH264137   6.567   5.221  13.317 -0.3353  0.1332 -0.1703
14241TIP3    H164138   6.595   5.131  13.332 -1.1823 -0.1955 -0.4811
14241TIP3    H264139   6.505   5.214  13.245 -0.1545  1.0155 -0.4199
14242TIP3   OH264140   1.787   2.485  11.587 -0.4663 -0.3090  0.2398
14242TIP3    H164141   1.768   2.423  11.518 -1.3310  0.7862 -0.5478
14242TIP3    H264142   1.743   2.566  11.559  1.0324  0.7989  0.9818
14243TIP3   OH264143   4.629   2.378   4.282  0.0299  0.3099  0.6853
14243TIP3    H164144   4.665   2.342   4.363 -1.2715  1.5626  1.8733
14243TIP3    H264145   4.569   2.446   4.311 -0.1269  1.1049 -1.3707
14244TIP3   OH264146   3.329   6.719  15.299 -0.2688 -0.0173 -0.5790
14244TIP3    H164147   3.419   6.735  15.327 -0.2319 -2.0397  0.6303
14244TIP3    H264148   3.336   6.649  15.234 -1.0218 -1.1551  0.5109
14245TIP3   OH264149   0.117   2.589   0.124  0.6355 -0.8094 -0.4018
14245TIP3    H164150   0.120   2.516   0.185  2.5619 -1.6619 -1.4283
14245TIP3    H264151   0.099   2.549   0.039 -0.3605  0.1765 -0.6897
14246TIP3   OH264152   2.542   2.172  15.924  0.4853 -0.3732 -0.6207
14246TIP3    H164153   2.593   2.092  15.915  0.9031 -0.1491 -0.3072
14246TIP3    H264154   2.602   2.242  15.896 -0.5875 -0.3508 -3.0496
14247TIP3   OH264155   0.373   1.641   1.401  0.1010  0.6070 -0.1931
14247TIP3    H164156   0.468   1.643   1.413  0.1290  0.2535 -0.3637
14247TIP3    H264157   0.359   1.584   1.326 -0.2390  0.7572 -0.2443
14248TIP3   OH264158   4.057   1.023   1.292 -0.6097 -0.8382  0.1311
14248TIP3    H164159   4.047   1.067   1.377  0.4102  1.2263 -0.7512
14248TIP3    H264160   4.128   1.070   1.249 -3.0632  0.2559 -3.1133
14249TIP3   OH264161   3.719   3.173  11.230 -0.4978  0.3988  0.5892
14249TIP3    H164162   3.692   3.263  11.250  0.8184  1.3036 -1.3681
14249TIP3    H264163   3.807   3.182  11.192 -1.4760 -1.3425 -2.4841
14250TIP3   OH264164   4.632   2.960  14.222 -0.1558 -0.4550 -0.3059
14250TIP3    H164165   4.592   2.920  14.299  1.5251 -1.3035  0.1810
14250TIP3    H264166   4.687   3.030  14.257 -0.9386  0.4830 -0.9231
14251TIP3   OH264167   2.314   4.991   6.946 -0.0130  0.1196 -0.2425
14251TIP3    H164168   2.270   4.962   6.866  1.3694  1.2367 -1.4643
14251TIP3    H264169   2.310   4.915   7.004  0.1295 -1.2053 -1.8945
14252TIP3   OH264170   3.942   2.926  16.521 -0.9552 -0.2096 -0.2162
14252TIP3    H164171   3.998   3.000  16.499 -0.9621 -0.1188  0.0733
14252TIP3    H264172   3.992   2.849  16.492 -1.4906 -0.0319 -1.6783
14253TIP3   OH264173   2.144   5.339   6.892 -0.0400 -0.0348  0.7002
14253TIP3    H164174   2.235   5.336   6.862  0.1650  1.7820  1.0030
14253TIP3    H264175   2.144   5.289   6.974  0.9170  0.7000  1.1723
14254TIP3   OH264176   4.012   2.533   0.337  0.5779  0.2541  0.5305
14254TIP3    H164177   4.088   2.511   0.283  1.9250  0.3215  2.2953
14254TIP3    H264178   3.957   2.454   0.335  0.2799  0.4632 -1.3544
14255TIP3   OH264179   6.478   0.519  16.502 -0.0760 -0.1310 -0.1216
14255TIP3    H164180   6.418   0.465  16.553 -0.5230  0.3709 -0.0966
14255TIP3    H264181   6.464   0.608  16.535  1.5991 -0.1592  0.7776
14256TIP3   OH264182   3.276   6.371   2.161 -0.3738 -0.9109  0.4576
14256TIP3    H164183   3.272   6.319   2.081  1.7052  1.1468 -1.1479
14256TIP3    H264184   3.321   6.314   2.224  2.3987 -1.0218 -1.4140
14257TIP3   OH264185   0.405   5.809  10.719  0.2388  0.0345  0.2722
14257TIP3    H164186   0.340   5.838  10.655  0.4719 -0.8469 -0.3908
14257TIP3    H264187   0.354   5.772  10.791 -0.0487  1.6134  0.9366
14258TIP3   OH264188   5.222   0.513   2.477  0.1064 -0.0692  0.5162
14258TIP3    H164189   5.280   0.582   2.510 -0.5260  0.4346  0.5876
14258TIP3    H264190   5.203   0.459   2.554  1.4026 -0.9279  0.2643
14259TIP3   OH264191   1.332   2.558   3.510 -0.2033 -0.3136 -0.6060
14259TIP3    H164192   1.314   2.506   3.588 -0.7493  1.3806  0.4609
14259TIP3    H264193   1.307   2.501   3.437  1.4037 -2.3703  0.3353
14260TIP3   OH264194   2.870   6.564   5.890  0.4430 -0.7738 -0.1007
14260TIP3    H164195   2.858   6.484   5.941  0.5130  0.0981  1.3188
14260TIP3    H264196   2.790   6.614   5.904  0.2925 -0.6750 -1.1875
14261TIP3   OH264197   6.348   0.682  11.269 -0.1858 -0.2602  0.1024
14261TIP3    H164198   6.275   0.624  11.288  0.3162 -1.0174 -0.2235
14261TIP3    H264199   6.325   0.725  11.187 -0.3952 -0.2850  0.1492
14262TIP3   OH264200   2.671   0.849   4.319  0.0394  0.0441 -0.6636
14262TIP3    H164201   2.587   0.804   4.321  0.1549 -0.4724 -3.3937
14262TIP3    H264202   2.651   0.939   4.345 -0.8797 -0.6217  1.0773
14263TIP3   OH264203   1.680   4.445  12.511 -0.1273 -0.6000 -0.0974
14263TIP3    H164204   1.740   4.371  12.500  1.1721  0.1449  1.4633
14263TIP3    H264205   1.738   4.521  12.518 -1.3045  0.2640  0.6404
14264TIP3   OH264206   4.915   1.993   4.283 -0.2478 -0.7487 -0.3678
14264TIP3    H164207   4.987   2.054   4.270 -1.9524  1.5446  0.2937
14264TIP3    H264208   4.957   1.906   4.286  2.2578  0.3328 -1.4461
14265TIP3   OH264209   1.807   0.660  10.826  0.0987  0.1158  0.5664
14265TIP3    H164210   1.803   0.723  10.754  1.8455  0.5029  0.7644
14265TIP3    H264211   1.765   0.581  10.792  0.0997  0.5849 -0.5565
14266TIP3   OH264212   2.831   3.141  16.944 -0.4005  0.1899 -0.2576
14266TIP3    H164213   2.756   3.148  16.884 -1.3895  0.8890  1.0148
14266TIP3    H264214   2.813   3.062  16.995 -0.4626  0.5550  0.2933
14267TIP3   OH264215   3.702   6.140  14.401 -0.5870 -0.3589  0.1667
14267TIP3    H164216   3.720   6.127  14.308  0.5761  1.3978  0.0777
14267TIP3    H264217   3.661   6.059  14.430  0.2742 -1.4705 -1.5730
14268TIP3   OH264218   3.484   5.470  15.148  0.2301 -0.7046  0.1887
14268TIP3    H164219   3.555   5.454  15.087  0.0467  2.1421 -0.9095
14268TIP3    H264220   3.430   5.537  15.105 -0.3683  0.8198  3.0646
14269TIP3   OH264221   5.162   4.078   5.968  0.2024 -0.0779  0.2236
14269TIP3    H164222   5.132   4.122   5.887  0.8501 -2.0316 -1.1487
14269TIP3    H264223   5.127   4.132   6.038 -0.3083  1.7733 -1.3581
14270TIP3   OH264224   6.228   3.733   5.672  0.3212  0.1846 -0.1252
14270TIP3    H164225   6.177   3.684   5.607 -0.4389  2.2410 -1.1975
14270TIP3    H264226   6.316   3.697   5.665 -0.1400 -0.8434 -1.0305
14271TIP3   OH264227   5.862   0.894   0.482 -0.1011 -0.6152 -0.6866
14271TIP3    H164228   5.848   0.847   0.400 -2.8157  0.1792 -0.7887
14271TIP3    H264229   5.872   0.825   0.548 -1.5935 -1.3616 -1.1867
14272TIP3   OH264230   2.165   3.587   0.056  0.0735 -0.0025 -0.1639
14272TIP3    H164231   2.111   3.514   0.087  0.2078  0.0835  0.2811
14272TIP3    H264232   2.183   3.639   0.135  1.5162 -0.4963 -0.1254
14273TIP3   OH264233   2.465   2.349  12.915  0.6568  0.0477  0.1918
14273TIP3    H164234   2.446   2.439  12.942  2.7609  0.3782  0.7430
14273TIP3    H264235   2.556   2.351  12.887  0.0089 -1.3773 -2.3644
14274TIP3   OH264236   4.350   4.770  13.198 -0.7331 -0.0876 -0.1128
14274TIP3    H164237   4.368   4.704  13.132 -0.0737  1.8020 -1.9306
14274TIP3    H264238   4.355   4.853  13.151 -0.5732  1.3387  2.2558
14275TIP3   OH264239   1.312   6.047   4.763  0.1892 -0.9043  0.2921
14275TIP3    H164240   1.293   6.138   4.740  1.5454 -0.8979 -0.9256
14275TIP3    H264241   1.229   6.014   4.797 -1.2956 -0.1305 -2.2503
14276TIP3   OH264242   2.765   5.249   5.142  0.1689  0.6790 -0.0529
14276TIP3    H164243   2.829   5.318   5.156 -0.1408  0.8539  0.5265
14276TIP3    H264244   2.817   5.174   5.114  1.0094  0.0185  2.8701
14277TIP3   OH264245   5.574   2.206   4.811  0.4263 -0.0449  0.7409
14277TIP3    H164246   5.537   2.223   4.724  0.9314  2.8232  0.9804
14277TIP3    H264247   5.553   2.285   4.862  2.3572 -0.5354  2.4545
14278TIP3   OH264248   6.732   4.678  14.426 -0.3528 -0.1868  0.1733
14278TIP3    H164249   6.769   4.590  14.431 -0.8282 -0.4706 -1.1426
14278TIP3    H264250   6.781   4.721  14.356 -1.5695 -0.1227 -0.6596
14279TIP3   OH264251   2.905   2.828  15.314 -0.2036 -0.2741  0.1796
14279TIP3    H164252   2.828   2.879  15.290  0.1109 -0.4374 -1.2512
14279TIP3    H264253   2.959   2.888  15.366  0.0603  0.8131 -1.3013
14280TIP3   OH264254   1.742   5.293   1.258 -0.2872 -0.1516  0.3809
14280TIP3    H164255   1.681   5.222   1.278 -0.9381  0.2799 -0.0683
14280TIP3    H264256   1.718   5.322   1.170  0.4680  0.1261  0.2593
14281TIP3   OH264257   6.672   5.435  14.691 -0.3780  0.2946 -0.1536
14281TIP3    H164258   6.765   5.431  14.672 -0.4260  0.0719 -0.3578
14281TIP3    H264259   6.662   5.389  14.774 -0.2897  0.4283 -0.0694
14282TIP3   OH264260   2.155   5.060  12.860 -0.0861 -0.0362 -0.6995
14282TIP3    H164261   2.208   5.102  12.792 -1.1276  0.3768 -1.2850
14282TIP3    H264262   2.071   5.106  12.856 -1.4866 -2.4909 -1.7410
14283TIP3   OH264263   1.151   3.692  11.546 -0.8160 -0.4734  0.6725
14283TIP3    H164264   1.082   3.714  11.609 -1.1719  0.3028  0.0404
14283TIP3    H264265   1.230   3.733  11.580 -0.7164 -1.1382  1.2626
14284TIP3   OH264266   2.020   3.772  16.268  0.0979  0.8644  0.3487
14284TIP3    H164267   1.941   3.795  16.220  0.3954 -0.7391 -0.9727
14284TIP3    H264268   2.085   3.752  16.201  0.8746 -0.3120  1.3929
14285TIP3   OH264269   0.706   1.986   3.908 -0.2989  0.4658  0.1660
14285TIP3    H164270   0.645   2.049   3.947  1.3678  1.7426  0.8201
14285TIP3    H264271   0.784   1.991   3.963  1.1896  0.4352 -1.8396
14286TIP3   OH264272   6.668   5.408   2.347 -0.1431  0.6280  0.8073
14286TIP3    H164273   6.690   5.486   2.297  3.2199 -0.8631 -0.3133
14286TIP3    H264274   6.752   5.365   2.365 -1.7788 -2.8329  1.1858
14287TIP3   OH264275   3.871   1.733  16.957 -0.0595  0.0212  0.0193
14287TIP3    H164276   3.954   1.697  16.926 -0.2335 -0.4822  0.1339
14287TIP3    H264277   3.873   1.825  16.929 -0.6002 -0.6040 -2.3240
14288TIP3   OH264278   0.433   1.425  10.869 -0.0639  0.2418 -0.1678
14288TIP3    H164279   0.440   1.340  10.911 -3.1356  0.0466  0.1550
14288TIP3    H264280   0.505   1.426  10.805 -0.2837 -2.8318 -0.6043
14289TIP3   OH264281   2.482   5.873  13.736  0.0155 -0.1279 -0.4092
14289TIP3    H164282   2.532   5.915  13.667  1.7814 -0.2687  0.7190
14289TIP3    H264283   2.547   5.825  13.787 -1.4852 -1.5176  0.2914
14290TIP3   OH264284   4.684   4.932   6.071 -0.0868  0.7117  0.4819
14290TIP3    H164285   4.714   4.872   6.140 -2.1106 -0.0840  0.7416
14290TIP3    H264286   4.595   4.902   6.050  0.3116  1.1715 -2.2228
14291TIP3   OH264287   3.653   1.242  16.926  0.0052 -0.0648  0.0439
14291TIP3    H164288   3.614   1.321  16.962 -0.7955 -0.9747  1.2221
14291TIP3    H264289   3.747   1.250  16.946 -0.0309  0.6890 -0.0729
14292TIP3   OH264290   4.837   3.144   1.285  0.0830  0.7362  0.0809
14292TIP3    H164291   4.819   3.182   1.371 -0.0894  0.2809  0.2520
14292TIP3    H264292   4.797   3.204   1.222 -1.9639 -0.1887  0.4347
14293TIP3   OH264293   5.610   3.176   2.782 -0.4373 -0.0112 -0.0435
14293TIP3    H164294   5.548   3.183   2.854 -1.1916  0.1371 -0.6885
14293TIP3    H264295   5.577   3.105   2.728 -0.5687  0.6561 -0.8783
14294TIP3   OH264296   3.845   1.575   0.137  0.1514  0.2601  0.3114
14294TIP3    H164297   3.917   1.638   0.129  2.1631 -1.9050  0.0017
14294TIP3    H264298   3.815   1.562   0.047  1.3836 -0.9282  0.0371
14295TIP3   OH264299   2.665   4.136   0.511  0.1375  0.2416  0.0364
14295TIP3    H164300   2.626   4.053   0.482  0.5206  0.2258 -0.4537
14295TIP3    H264301   2.605   4.203   0.481 -0.3358  0.1328  0.7075
14296TIP3   OH264302   6.254   5.318   3.141  0.0372  0.2448 -0.5900
14296TIP3    H164303   6.161   5.297   3.146  0.3895 -1.1527  0.9182
14296TIP3    H264304   6.259   5.413   3.157 -1.0742  0.2049  0.0788
14297TIP3   OH264305   2.417   5.976  14.362  0.0479 -0.2319  0.3955
14297TIP3    H164306   2.450   5.901  14.412  1.2132 -0.0561 -0.0620
14297TIP3    H264307   2.460   5.968  14.277  1.0076  1.4981  0.6665
14298TIP3   OH264308   6.637   2.027  14.180  0.2745 -0.2850 -0.0184
14298TIP3    H164309   6.558   2.067  14.216  1.3955  1.2398  0.8281
14298TIP3    H264310   6.673   1.976  14.253  2.6134  2.9033  1.2491
14299TIP3   OH264311   3.477   0.930  12.106  0.2579 -0.0295 -0.4080
14299TIP3    H164312   3.403   0.990  12.114  0.4219  0.0245  0.7774
14299TIP3    H264313   3.547   0.970  12.157  0.3423 -1.2637  0.4996
14300TIP3   OH264314   1.973   2.581   1.003  0.2832  0.2049 -0.3596
14300TIP3    H164315   1.907   2.551   0.941 -0.4722  0.6011  0.2404
14300TIP3    H264316   1.935   2.564   1.089  0.2605  1.8788 -0.0036
14301TIP3   OH264317   3.521   2.580  11.022  0.1567  0.2735  0.2551
14301TIP3    H164318   3.549   2.612  10.936  1.1932  1.3942  0.9625
14301TIP3    H264319   3.427   2.593  11.023  0.1434  0.3397 -0.6721
14302TIP3   OH264320   4.452   5.971  15.998 -0.6974 -0.5962  0.2619
14302TIP3    H164321   4.399   5.894  15.975  0.4078 -1.7479  1.3993
14302TIP3    H264322   4.502   5.943  16.074  2.8710 -0.2396 -1.7326
14303TIP3   OH264323   6.431   0.322  13.508 -0.0301  0.1497  0.0793
14303TIP3    H164324   6.384   0.260  13.452  0.0565 -0.2694  0.4686
14303TIP3    H264325   6.520   0.324  13.473 -0.3582  1.0616 -0.7558
14304TIP3   OH264326   2.765   6.259   5.790 -0.5087  0.1907  0.3487
14304TIP3    H164327   2.675   6.226   5.780 -0.5236 -0.4442  2.1037
14304TIP3    H264328   2.765   6.301   5.876  0.8595  0.2277  0.3502
14305TIP3   OH264329   1.821   4.452   1.185  0.4188 -0.6776 -0.0196
14305TIP3    H164330   1.855   4.381   1.130  0.1770 -2.3391  1.8548
14305TIP3    H264331   1.861   4.531   1.150  0.9977 -1.7719 -1.9733
14306TIP3   OH264332   6.201   4.085  14.341  0.2088 -0.8391 -0.4296
14306TIP3    H164333   6.222   4.172  14.375  0.6666 -0.1579 -2.3382
14306TIP3    H264334   6.283   4.054  14.302 -0.1590 -1.7816 -0.4644
14307TIP3   OH264335   3.311   1.020   0.711 -0.1517  0.0139  0.5545
14307TIP3    H164336   3.236   0.962   0.697 -0.4140  0.2818  0.8378
14307TIP3    H264337   3.384   0.974   0.670 -0.5717  0.0002 -0.2120
14308TIP3   OH264338   5.422   2.500  17.097  0.4930 -0.1064 -0.3339
14308TIP3    H164339   5.454   2.584  17.129  0.1661  0.1820 -0.7637
14308TIP3    H264340   5.499   2.460  17.055  0.2653  0.6640 -1.5230
14309TIP3   OH264341   2.927   0.648   0.839  0.0099  0.1777 -0.1396
14309TIP3    H164342   2.939   0.721   0.899 -0.6325 -0.3164  0.6018
14309TIP3    H264343   2.840   0.613   0.860  1.0717 -2.0104  0.8735
14310TIP3   OH264344   6.688   0.084   0.819  0.0285 -0.2791 -0.6145
14310TIP3    H164345   6.594   0.102   0.822  0.0317 -0.3288  0.2020
14310TIP3    H264346   6.696   0.006   0.764 -0.4143 -0.3220 -0.6243
14311TIP3   OH264347   5.020   4.498   1.135 -0.1215 -1.1567 -0.1818
14311TIP3    H164348   4.969   4.574   1.107  1.3498 -0.5878 -1.4635
14311TIP3    H264349   5.110   4.531   1.144  0.4241 -2.5771 -0.0675
14312TIP3   OH264350   1.895   6.199  12.668 -0.1392 -0.1242 -0.1376
14312TIP3    H164351   1.943   6.173  12.747 -2.7011 -2.5545  0.7861
14312TIP3    H264352   1.803   6.198  12.694 -1.0032  0.3029 -2.8254
14313TIP3   OH264353   1.901   3.232   2.165  0.3365  0.5717  0.0652
14313TIP3    H164354   1.870   3.151   2.125  0.8185  0.4059  0.0244
14313TIP3    H264355   1.896   3.216   2.259 -2.2560  1.4912  0.1801
14314TIP3   OH264356   5.886   4.828   5.310 -0.5559  0.3923  0.3766
14314TIP3    H164357   5.961   4.882   5.336  0.5782 -0.9628  0.0634
14314TIP3    H264358   5.811   4.886   5.319  0.4130  1.5469  1.5721
14315TIP3   OH264359   3.346   4.802  12.585  0.0384  0.7682  0.3568
14315TIP3    H164360   3.376   4.715  12.558 -0.4160  1.6066 -3.5754
14315TIP3    H264361   3.380   4.814  12.673  0.6781 -3.0907  0.8030
14316TIP3   OH264362   3.451   1.548   0.794 -0.2796 -0.6441  0.5148
14316TIP3    H164363   3.381   1.512   0.848 -0.4070 -0.4867  0.4570
14316TIP3    H264364   3.505   1.598   0.855  0.8108 -2.2111  0.9007
14317TIP3   OH264365   4.130   6.541  11.744  0.8759 -0.5041  0.0107
14317TIP3    H164366   4.104   6.449  11.738  2.3424 -0.9464  0.0723
14317TIP3    H264367   4.173   6.558  11.660  0.2851  0.2303 -0.1418
14318TIP3   OH264368   6.660   5.007  11.472  0.1558 -0.2417 -0.4356
14318TIP3    H164369   6.677   5.024  11.379 -0.4022 -0.8023 -0.6505
14318TIP3    H264370   6.571   4.972  11.474 -0.5270  1.4410  0.5022
14319TIP3   OH264371   1.825   4.776  10.946  0.0480 -0.9002 -0.7517
14319TIP3    H164372   1.748   4.757  10.893 -0.6906 -0.2585  0.0593
14319TIP3    H264373   1.842   4.869  10.932 -1.9679  0.0721  2.3277
14320TIP3   OH264374   5.123   2.333  12.259  0.3850 -0.2912  0.1956
14320TIP3    H164375   5.112   2.425  12.283 -1.6364 -0.0091 -1.5274
14320TIP3    H264376   5.035   2.303  12.238  1.3694 -1.7401 -2.2598
14321TIP3   OH264377   4.765   0.046   1.770 -0.0474  0.4895 -0.0713
14321TIP3    H164378   4.707  -0.016   1.814 -2.7420  2.4874 -0.5141
14321TIP3    H264379   4.804   0.096   1.841  4.5474 -3.2921  0.5404
14322TIP3   OH264380   1.283   5.053   0.624  0.3761  0.2354 -0.0082
14322TIP3    H164381   1.257   4.976   0.573 -0.5999 -0.2822  1.2137
14322TIP3    H264382   1.373   5.034   0.652 -0.3195 -1.1846  1.4734
14323TIP3   OH264383   4.816   6.230  16.868 -0.9513  0.0361  0.1932
14323TIP3    H164384   4.866   6.289  16.925  0.3911 -1.1249  0.2889
14323TIP3    H264385   4.848   6.251  16.780 -0.2013 -0.7568  0.2624
14324TIP3   OH264386   3.282   6.407   4.563 -0.4541  0.1307 -0.2072
14324TIP3    H164387   3.243   6.494   4.570 -0.7442 -0.1226  2.0316
14324TIP3    H264388   3.355   6.408   4.625  0.2629 -0.8767 -0.9922
14325TIP3   OH264389   4.625   0.333  13.709  0.4734 -0.1011  0.3062
14325TIP3    H164390   4.646   0.409  13.654 -0.5248  1.2949  1.7766
14325TIP3    H264391   4.552   0.362  13.763 -1.3639 -2.8255 -0.5225
14326TIP3   OH264392   0.137   4.213  14.214  0.0423  0.6312 -0.3875
14326TIP3    H164393   0.221   4.241  14.251 -0.0838  2.9950 -1.6988
14326TIP3    H264394   0.155   4.127  14.177  1.8904  1.0528 -0.5782
14327TIP3   OH264395   3.812   0.132  10.630  0.1356 -0.4368 -0.0230
14327TIP3    H164396   3.746   0.198  10.606 -0.5113 -0.9929  0.1828
14327TIP3    H264397   3.812   0.132  10.726  1.0916  0.1942 -0.0179
14328TIP3   OH264398   5.942   1.487   2.728  0.3263 -0.1343  0.4058
14328TIP3    H164399   5.996   1.409   2.714  0.5726  0.4772 -2.7002
14328TIP3    H264400   5.995   1.543   2.785  1.8776 -0.6072 -0.5180
14329TIP3   OH264401   5.964   3.189   1.328  0.1998 -0.4159 -0.2987
14329TIP3    H164402   5.957   3.199   1.423 -0.0601 -2.1334 -0.1033
14329TIP3    H264403   5.873   3.192   1.298  0.3299  0.9578 -0.6184
14330TIP3   OH264404   2.349   3.896  15.356 -0.2978  0.0905  0.4900
14330TIP3    H164405   2.339   3.801  15.360  0.3588  0.0366  0.9330
14330TIP3    H264406   2.320   3.919  15.268 -0.0884 -0.5717  0.2400
14331TIP3   OH264407   1.029   3.507   3.806 -0.0558  0.0210 -0.0309
14331TIP3    H164408   1.080   3.448   3.749  0.0050 -0.0792  0.1257
14331TIP3    H264409   1.018   3.457   3.887 -0.1763  0.1490  0.0304
14332TIP3   OH264410   4.849   3.811   3.810  0.2060 -0.0719  0.6781
14332TIP3    H164411   4.781   3.877   3.795  0.8771  1.1054  2.3758
14332TIP3    H264412   4.802   3.737   3.848 -0.4976 -0.4181 -0.8017
14333TIP3   OH264413   4.313   4.839  10.839  0.7387  0.0324  0.6934
14333TIP3    H164414   4.305   4.745  10.828  1.4227 -0.0906  1.1803
14333TIP3    H264415   4.392   4.851  10.891  1.1417  0.9146 -0.0692
14334TIP3   OH264416   6.294   0.501   6.067 -0.6377  0.3536  0.8004
14334TIP3    H164417   6.222   0.564   6.063 -0.7958  0.1376  0.2341
14334TIP3    H264418   6.251   0.415   6.069 -0.4152  0.0755 -1.9639
14335TIP3   OH264419   4.414   5.960  14.386 -0.3502 -0.0297  0.4112
14335TIP3    H164420   4.371   5.912  14.457 -1.1865 -0.4312 -0.3445
14335TIP3    H264421   4.501   5.980  14.421 -1.2341  1.1204  2.1109
14336TIP3   OH264422   3.127   5.971  16.420  0.3829  0.0700 -0.7828
14336TIP3    H164423   3.173   6.035  16.365 -0.0740  0.3327 -0.8593
14336TIP3    H264424   3.107   6.019  16.501 -1.1722  0.4566 -1.3624
14337TIP3   OH264425   6.528   2.876   4.397  0.3152 -0.7236 -0.4002
14337TIP3    H164426   6.495   2.872   4.308 -0.7591  0.4711 -0.0919
14337TIP3    H264427   6.480   2.948   4.437 -1.0828 -2.7654  1.8900
14338TIP3   OH264428   3.041   6.615   3.705  0.4849 -0.2813 -0.7061
14338TIP3    H164429   2.975   6.654   3.648 -0.2782  1.1209  1.0267
14338TIP3    H264430   3.089   6.690   3.741  1.6585 -1.1738 -0.3472
14339TIP3   OH264431   4.202   3.528   6.331  0.0347 -0.2631 -0.0618
14339TIP3    H164432   4.230   3.465   6.264 -2.6755 -0.2989 -1.3135
14339TIP3    H264433   4.274   3.590   6.337  2.6577 -3.1460  0.9342
14340TIP3   OH264434   5.779   5.015   1.435 -0.5213  0.0082  0.1473
14340TIP3    H164435   5.744   4.950   1.496  0.5871  1.2523  2.2431
14340TIP3    H264436   5.729   5.095   1.454 -1.3171  0.0158 -1.8120
14341TIP3   OH264437   2.824   0.397  15.302  0.3890  0.4554  0.0318
14341TIP3    H164438   2.859   0.413  15.390 -1.0644 -1.6112  1.0643
14341TIP3    H264439   2.864   0.315  15.274 -2.4888 -1.3272  0.7510
14342TIP3   OH264440   3.057   3.220   0.238 -0.0003 -0.0823 -0.0815
14342TIP3    H164441   3.045   3.168   0.318  3.6000 -0.9315  0.0827
14342TIP3    H264442   3.044   3.311   0.267  0.9304 -0.4022  1.4360
14343TIP3   OH264443   5.133   6.004   2.571  0.2721 -0.1954  0.0608
14343TIP3    H164444   5.178   6.085   2.593  0.1796 -0.2440  0.4354
14343TIP3    H264445   5.202   5.945   2.543  0.2001  0.4585 -1.6155
14344TIP3   OH264446   6.077   3.002  11.132 -0.2212 -0.6527 -0.1587
14344TIP3    H164447   5.998   2.948  11.122 -0.7013  0.0103 -0.0073
14344TIP3    H264448   6.044   3.089  11.156  0.5930 -0.5303  0.5658
14345TIP3   OH264449   1.386   6.595   5.513  0.2957  0.0122 -0.1590
14345TIP3    H164450   1.392   6.612   5.607 -0.1452  2.1212 -0.4628
14345TIP3    H264451   1.477   6.592   5.484  0.4291 -0.2699  0.2707
14346TIP3   OH264452   1.384   1.429   5.721  0.0322 -0.4891  0.1814
14346TIP3    H164453   1.395   1.334   5.724  2.3536 -0.3309 -1.2751
14346TIP3    H264454   1.447   1.463   5.785 -0.3420  0.1167  0.2387
14347TIP3   OH264455   1.974   0.996  12.585 -0.0851  0.3813 -0.0810
14347TIP3    H164456   2.029   0.919  12.592  0.2577  0.6858  0.6473
14347TIP3    H264457   1.885   0.963  12.592 -0.0227 -0.1245 -1.3482
14348TIP3   OH264458   4.582   1.080  15.080 -0.4408  0.4996  0.3613
14348TIP3    H164459   4.642   1.014  15.115  2.7865  2.5008 -0.9016
14348TIP3    H264460   4.546   1.041  15.000  0.2871 -0.2762  0.4056
14349TIP3   OH264461   2.707   2.387  12.790  0.0821  0.4646  0.4880
14349TIP3    H164462   2.799   2.363  12.783  0.2232  1.3988 -2.1351
14349TIP3    H264463   2.707   2.483  12.782 -1.1741  0.3547 -1.6126
14350TIP3   OH264464   1.913   1.158   6.066  0.4561  0.3266 -0.3790
14350TIP3    H164465   1.838   1.099   6.071  0.4412  0.3317 -0.5462
14350TIP3    H264466   1.956   1.150   6.151 -0.3914  1.1878  0.1541
14351TIP3   OH264467   2.003   4.641   1.102  0.0354 -0.3142  0.3978
14351TIP3    H164468   2.012   4.674   1.191  1.8596 -0.4154  0.3074
14351TIP3    H264469   2.057   4.700   1.049 -3.0494  1.3375 -1.1472
14352TIP3   OH264470   2.673   4.080   2.429 -0.5642 -0.1743  0.5341
14352TIP3    H164471   2.688   3.999   2.379 -0.4763 -0.9416  1.7601
14352TIP3    H264472   2.611   4.054   2.498  0.0050  0.6308  1.3704
14353TIP3   OH264473   3.280   1.024   4.077 -0.8115 -0.2794 -0.7717
14353TIP3    H164474   3.216   1.033   4.007  0.3201 -2.2645 -2.1955
14353TIP3    H264475   3.246   1.076   4.149 -4.2570 -1.5743 -1.2848
14354TIP3   OH264476   5.618   6.039  14.485 -0.0468 -0.4110 -0.1947
14354TIP3    H164477   5.661   6.089  14.554  0.0334  1.1556 -1.3342
14354TIP3    H264478   5.676   5.964  14.470  0.3561 -0.3257  0.8408
14355TIP3   OH264479   6.580   0.447   1.317  0.5559 -0.0092  0.3297
14355TIP3    H164480   6.491   0.481   1.316  0.6777  0.5115  2.3239
14355TIP3    H264481   6.620   0.487   1.394  2.2605 -0.8930 -0.0357
14356TIP3   OH264482   4.788   5.536   2.977 -0.0342 -0.7413 -0.3258
14356TIP3    H164483   4.729   5.576   3.041  1.0200 -1.4860  1.1799
14356TIP3    H264484   4.850   5.605   2.954  0.4473 -0.8492  0.5905
14357TIP3   OH264485   2.454   3.524  12.052  0.3620  0.2138  0.0684
14357TIP3    H164486   2.436   3.610  12.092  0.7720  0.8887 -1.1524
14357TIP3    H264487   2.368   3.488  12.033  0.1558 -0.0716  1.4131
14358TIP3   OH264488   0.008   1.074   5.743  0.4430 -0.0089 -0.2416
14358TIP3    H164489   0.073   1.041   5.682  0.7372  0.2756 -0.0804
14358TIP3    H264490   0.056   1.093   5.823  0.3128  0.9756 -0.3825
14359TIP3   OH264491   2.402   4.056   5.254  0.0185 -0.3387 -0.5555
14359TIP3    H164492   2.334   4.082   5.193 -1.1559  0.0124  0.8462
14359TIP3    H264493   2.400   4.124   5.322  2.0212 -0.1153 -0.6523
14360TIP3   OH264494   6.481   0.126  14.157 -0.6906  0.3070 -0.7047
14360TIP3    H164495   6.527   0.042  14.164 -2.7894 -0.7991  2.0499
14360TIP3    H264496   6.445   0.140  14.245 -2.3391  2.9625 -1.6986
14361TIP3   OH264497   0.374   1.391   1.866 -0.0682 -0.2505  0.3985
14361TIP3    H164498   0.354   1.382   1.960  0.5334 -0.5943  0.4989
14361TIP3    H264499   0.441   1.458   1.862  0.5278 -0.8429  0.2990
14362TIP3   OH264500   4.864   3.030  12.058  0.0866 -0.2691 -0.0022
14362TIP3    H164501   4.939   3.005  12.112  1.4486  2.3489 -0.5185
14362TIP3    H264502   4.893   3.016  11.968  0.5963  2.0669 -0.2722
14363TIP3   OH264503   2.494   4.250  15.851  0.4534 -0.0444 -0.1459
14363TIP3    H164504   2.460   4.315  15.914  0.6258  0.8426 -0.9366
14363TIP3    H264505   2.422   4.239  15.788  0.1970 -1.0938  0.3170
14364TIP3   OH264506   6.354   2.558  10.877 -0.0665 -0.2190 -0.1878
14364TIP3    H164507   6.293   2.536  10.947 -0.5174  0.2459 -0.4198
14364TIP3    H264508   6.400   2.477  10.857 -1.2003 -0.7863 -0.5663
14365TIP3   OH264509   6.058   2.595   1.806  0.0865  0.0222  0.5915
14365TIP3    H164510   6.119   2.657   1.768  0.0971 -1.1199 -1.3919
14365TIP3    H264511   5.971   2.631   1.787  0.1043 -0.2212  0.0265
14366TIP3   OH264512   0.839   2.488  14.036  0.2292  0.1350 -0.0934
14366TIP3    H164513   0.862   2.502  13.944  2.0086  0.4722  0.3592
14366TIP3    H264514   0.900   2.543  14.085  0.6448 -1.5026  1.3500
14367TIP3   OH264515   6.646   5.523  11.768 -0.4239  0.2656  0.2412
14367TIP3    H164516   6.657   5.599  11.826 -1.9161 -0.0846  1.0296
14367TIP3    H264517   6.647   5.448  11.827 -1.6256 -0.1241 -0.2019
14368TIP3   OH264518   0.109   0.320  16.022 -0.3828 -0.2075  0.3680
14368TIP3    H164519   0.196   0.315  15.982  0.9629  2.6650  2.5146
14368TIP3    H264520   0.125   0.304  16.115 -2.1921  0.0936  0.7655
14369TIP3   OH264521   3.230   3.090   4.623 -0.3245 -0.5486 -0.2171
14369TIP3    H164522   3.185   3.009   4.601  0.2522 -0.7886 -0.5387
14369TIP3    H264523   3.200   3.112   4.711  0.5967 -1.8668  0.4531
14370TIP3   OH264524   3.343   2.198   0.077  0.2091 -0.1107 -0.2461
14370TIP3    H164525   3.427   2.208   0.121 -0.0518 -0.5303  0.3669
14370TIP3    H264526   3.324   2.104   0.082 -1.3029  0.2268  1.5770
14371TIP3   OH264527   2.977   3.975  15.471 -0.1364 -0.1909  0.1790
14371TIP3    H164528   3.002   4.013  15.387  0.6392 -0.9428  0.0492
14371TIP3    H264529   2.939   4.048  15.520  1.3907  0.7857 -0.0165
14372TIP3   OH264530   1.683   4.341   1.495  0.2322  0.1580 -0.2496
14372TIP3    H164531   1.770   4.381   1.506  0.3857  0.1485 -1.2868
14372TIP3    H264532   1.641   4.351   1.580  0.4987  1.9733 -0.2903
14373TIP3   OH264533   3.805   5.035   1.474 -0.2253 -0.2374  0.2225
14373TIP3    H164534   3.768   4.957   1.516  0.4178  0.6592  2.5695
14373TIP3    H264535   3.897   5.015   1.460 -0.6169 -0.9119 -1.8593
14374TIP3   OH264536   6.114   0.965  11.859 -0.3258 -0.1207  0.2809
14374TIP3    H164537   6.072   0.880  11.870  0.6144 -0.8593 -1.4057
14374TIP3    H264538   6.120   0.977  11.764  1.2017  0.9834  0.4682
14375TIP3   OH264539   1.804   3.273   5.837  0.6798 -0.3466 -0.0070
14375TIP3    H164540   1.863   3.318   5.898  2.0073 -1.2739 -0.5554
14375TIP3    H264541   1.827   3.180   5.845 -1.3099 -0.8610  0.3717
14376TIP3   OH264542   0.419   5.159  14.054 -0.3125 -0.3136  0.0404
14376TIP3    H164543   0.332   5.181  14.089 -1.0352 -3.5972  0.6326
14376TIP3    H264544   0.409   5.166  13.959 -0.5492  1.3995  0.1646
14377TIP3   OH264545   3.060   6.591  14.313  0.0993  0.1487 -0.1026
14377TIP3    H164546   2.999   6.547  14.253 -1.3562  1.5673  0.2762
14377TIP3    H264547   3.074   6.526  14.382 -1.7749  0.0936  0.2968
14378TIP3   OH264548   6.465   6.160  17.152 -0.7786  0.4616  0.1749
14378TIP3    H164549   6.519   6.144  17.229 -1.4696 -0.1143  0.5498
14378TIP3    H264550   6.395   6.095  17.158 -0.6166  0.1363 -1.1482
14379TIP3   OH264551   4.741   4.812   5.465 -0.1356  0.4159  0.3193
14379TIP3    H164552   4.831   4.843   5.476  0.2669  0.1881 -1.9649
14379TIP3    H264553   4.748   4.717   5.475  0.0606  0.3079 -0.7284
14380TIP3   OH264554   6.395   4.940   4.379  0.1026  0.0421 -0.4111
14380TIP3    H164555   6.448   5.020   4.370 -0.6093  0.8331  1.8236
14380TIP3    H264556   6.333   4.945   4.306 -0.3531  1.9032  0.0448
14381TIP3   OH264557   4.508   1.781  12.245 -0.0531  0.2538  0.0181
14381TIP3    H164558   4.578   1.804  12.306  2.2283 -1.8035 -1.6229
14381TIP3    H264559   4.493   1.860  12.193  0.6650  0.8907  0.7669
14382TIP3   OH264560   1.674   0.013   6.268 -0.1571 -0.0357 -0.6090
14382TIP3    H164561   1.687   0.095   6.316  0.7458 -0.0844 -0.7438
14382TIP3    H264562   1.580  -0.004   6.274 -0.2964  0.8022 -0.2452
14383TIP3   OH264563   3.736   6.432  13.952  0.0055 -0.1878  0.5949
14383TIP3    H164564   3.779   6.518  13.949  0.2431 -0.3390 -0.6450
14383TIP3    H264565   3.789   6.377  13.896 -1.7877 -0.3852 -0.9890
14384TIP3   OH264566   2.676   5.468   1.766  0.3265 -0.7438  0.0600
14384TIP3    H164567   2.733   5.392   1.754 -0.1852 -1.3668  1.3251
14384TIP3    H264568   2.695   5.498   1.855 -0.8400 -0.5727  0.2699
14385TIP3   OH264569   3.228   3.989   1.716 -1.1228  0.0044  0.1801
14385TIP3    H164570   3.231   4.076   1.756 -0.5526 -0.2103  0.6064
14385TIP3    H264571   3.319   3.961   1.712 -1.1954 -0.1444 -0.9281
14386TIP3   OH264572   3.070   5.817   1.620  0.0153 -0.4076  0.0224
14386TIP3    H164573   3.076   5.913   1.621  0.0717 -0.3982  1.5848
14386TIP3    H264574   3.006   5.798   1.551  0.4699  0.7050 -0.7475
14387TIP3   OH264575   5.204   5.978   0.735  0.8829  0.2191  0.0689
14387TIP3    H164576   5.240   6.023   0.811  2.1787  2.9385 -1.9659
14387TIP3    H264577   5.241   5.890   0.740  0.3065  0.0365  2.8932
14388TIP3   OH264578   2.352   5.611   4.350  0.5956  0.1119  0.0016
14388TIP3    H164579   2.395   5.668   4.286 -0.1339  0.5690 -0.0988
14388TIP3    H264580   2.380   5.646   4.434  1.9448 -0.7901 -0.0480
14389TIP3   OH264581   5.053   2.614  13.547 -0.6297 -0.2748  0.0487
14389TIP3    H164582   5.021   2.654  13.628  1.5302  0.9879  0.3575
14389TIP3    H264583   5.144   2.590  13.567 -0.8943 -2.5204 -1.1566
14390TIP3   OH264584   3.168   5.934   5.494 -0.0155  0.1666  0.2160
14390TIP3    H164585   3.164   5.937   5.398 -2.5417 -0.5478  0.2175
14390TIP3    H264586   3.215   5.854   5.514  0.3543  0.2180 -0.4154
14391TIP3   OH264587   0.251   4.456  12.099 -0.5117 -0.3329  0.1885
14391TIP3    H164588   0.264   4.436  12.192  0.2388  1.1947  0.4414
14391TIP3    H264589   0.210   4.542  12.099  0.2429  0.0376 -0.9195
14392TIP3   OH264590   6.343   3.086   4.721 -0.2733  0.2810  0.7144
14392TIP3    H164591   6.408   3.074   4.652 -1.6266  1.0897 -0.7768
14392TIP3    H264592   6.378   3.157   4.775  0.1938  0.5581  0.0542
14393TIP3   OH264593   1.933   6.425  14.621 -0.2217 -0.1859  0.4585
14393TIP3    H164594   1.866   6.397  14.559 -0.5245  1.1456  0.1635
14393TIP3    H264595   1.885   6.438  14.703 -0.2751  0.4037  0.3412
14394TIP3   OH264596   4.327   3.224   0.718  0.2230 -0.3263 -0.3400
14394TIP3    H164597   4.234   3.243   0.704 -0.2105 -1.9949  0.0637
14394TIP3    H264598   4.328   3.135   0.754  1.9081  0.1433  0.8679
14395TIP3   OH264599   5.510   5.413  15.076  0.3241  0.7974  0.2235
14395TIP3    H164600   5.545   5.499  15.099  1.1588 -0.0247  2.3215
14395TIP3    H264601   5.583   5.353  15.090 -0.6323 -0.4131  0.1804
14396TIP3   OH264602   6.598   3.693  16.797 -0.2766 -0.2843  0.5002
14396TIP3    H164603   6.665   3.751  16.836  0.5546 -1.4326  0.8376
14396TIP3    H264604   6.609   3.610  16.843 -0.3525 -1.2116 -1.0919
14397TIP3   OH264605   4.267   1.249  15.017  0.1479  0.1992 -0.5174
14397TIP3    H164606   4.231   1.337  15.027  0.7041  0.4507 -0.6912
14397TIP3    H264607   4.205   1.205  14.959 -0.2964  0.3757 -0.1794
14398TIP3   OH264608   0.197   2.568  13.634  0.3500 -0.2266  0.2420
14398TIP3    H164609   0.125   2.511  13.607  2.2096 -3.1553  1.0193
14398TIP3    H264610   0.201   2.558  13.729  0.8059  1.1824  0.3895
14399TIP3   OH264611   3.071   4.152  16.221 -0.3031 -0.2365  0.4689
14399TIP3    H164612   3.099   4.067  16.187  0.6843 -0.0078  0.6929
14399TIP3    H264613   3.129   4.215  16.179 -1.1421  0.3521  0.1719
14400TIP3   OH264614   6.584   5.228  15.412  0.0724 -0.3105 -0.0675
14400TIP3    H164615   6.541   5.143  15.418 -0.2293 -0.3470 -2.0633
14400TIP3    H264616   6.517   5.286  15.374  1.0938  0.1257 -1.2879
14401TIP3   OH264617   2.478   3.449  11.510 -0.1610  0.3461  0.2717
14401TIP3    H164618   2.487   3.540  11.483  1.2723  0.2498  0.3143
14401TIP3    H264619   2.386   3.438  11.531 -0.2608  1.9144  0.7399
14402TIP3   OH264620   2.431   5.379  13.206  0.0570  0.1448 -0.4642
14402TIP3    H164621   2.351   5.326  13.197 -0.2433  0.0588  2.0481
14402TIP3    H264622   2.499   5.327  13.165 -0.5787 -1.3466  0.2999
14403TIP3   OH264623   2.597   5.596   4.672  0.2214 -0.3901 -0.2020
14403TIP3    H164624   2.620   5.509   4.638  2.6597 -0.6511  1.8273
14403TIP3    H264625   2.501   5.594   4.678  0.1437 -2.5533 -1.1333
14404TIP3   OH264626   3.257   5.795  12.982 -0.4869  0.1363  0.5133
14404TIP3    H164627   3.322   5.730  12.954  0.2144  0.2885  1.7486
14404TIP3    H264628   3.247   5.781  13.076 -0.6945  1.4828  0.7178
14405TIP3   OH264629   5.277   4.521   4.114  0.3895 -0.2156 -0.2290
14405TIP3    H164630   5.237   4.501   4.029 -0.3242  1.5543 -0.3463
14405TIP3    H264631   5.265   4.441   4.165 -1.7619 -0.3602 -0.8605
14406TIP3   OH264632   6.251   2.261   4.923 -0.0711 -0.1334 -0.0059
14406TIP3    H164633   6.308   2.309   4.983 -0.2475 -0.3505  0.3394
14406TIP3    H264634   6.191   2.326   4.888  0.6643  0.1877 -0.7120
14407TIP3   OH264635   4.368   1.809   0.521 -0.2933 -0.4742  0.0497
14407TIP3    H164636   4.351   1.759   0.601  0.2628 -1.5266 -0.4697
14407TIP3    H264637   4.367   1.901   0.549  1.2871 -0.8589  1.5624
14408TIP3   OH264638   3.288   1.370   4.447  0.1174 -0.0973 -0.3007
14408TIP3    H164639   3.256   1.416   4.368 -0.2818  0.1911  0.0206
14408TIP3    H264640   3.382   1.388   4.448  0.1646 -0.2825 -0.8300
14409TIP3   OH264641   0.022   3.999  13.474 -0.1118  0.1913 -0.0590
14409TIP3    H164642   0.060   4.049  13.546  1.4087 -2.4423  1.1603
14409TIP3    H264643  -0.047   3.947  13.514  1.1904 -1.8135 -0.2238
14410TIP3   OH264644   5.266   2.600   1.507 -0.2438 -0.0475  0.0594
14410TIP3    H164645   5.355   2.602   1.542 -0.5040 -0.7584  0.7981
14410TIP3    H264646   5.237   2.510   1.519 -1.6216  0.5010  1.3163
14411TIP3   OH264647   0.630   5.431  15.457 -0.1944 -0.0158  0.3563
14411TIP3    H164648   0.624   5.436  15.361  0.1349 -1.5671  0.2219
14411TIP3    H264649   0.554   5.378  15.482  0.0482 -0.1188  0.8828
14412TIP3   OH264650   2.428   4.739  13.651 -0.2386 -0.3547 -0.6555
14412TIP3    H164651   2.469   4.663  13.693  3.1184  1.1745 -0.7826
14412TIP3    H264652   2.402   4.795  13.725 -1.2663 -0.9234 -0.5793
14413TIP3   OH264653   6.087   1.229   2.852 -0.7549 -0.1393  0.3374
14413TIP3    H164654   6.049   1.233   2.940 -1.2382  3.1854  0.0982
14413TIP3    H264655   6.179   1.253   2.865 -1.1417  1.7385 -0.1463
14414TIP3   OH264656   5.569   3.413  14.143 -0.3273  0.2223  0.5485
14414TIP3    H164657   5.596   3.433  14.053  2.6191 -2.5451  0.6472
14414TIP3    H264658   5.514   3.335  14.135  2.4480 -1.9220  1.2329
14415TIP3   OH264659   1.336   1.800   1.677 -0.0515 -0.3502 -0.1215
14415TIP3    H164660   1.352   1.707   1.692  2.6997  0.3855  2.7297
14415TIP3    H264661   1.414   1.829   1.629  0.3598  0.8521  1.2130
14416TIP3   OH264662   0.236   0.753  14.841 -0.1718 -0.0455  0.2530
14416TIP3    H164663   0.149   0.740  14.879  0.2542  0.1105  1.3282
14416TIP3    H264664   0.238   0.846  14.819  0.2561  0.3134  1.6893
14417TIP3   OH264665   4.284   0.662  11.838 -0.1018 -0.6346 -0.5594
14417TIP3    H164666   4.273   0.606  11.761  1.2160 -1.0179 -0.4882
14417TIP3    H264667   4.376   0.653  11.862 -0.6151 -1.0616  1.4791
14418TIP3   OH264668   6.126   5.722   4.464  0.0686 -0.2448  0.1253
14418TIP3    H164669   6.062   5.775   4.512  2.9429  2.2409  1.5078
14418TIP3    H264670   6.201   5.717   4.522  1.7560 -1.6840 -2.0389
14419TIP3   OH264671   1.528   6.440  13.313  0.5195  0.2892 -0.2335
14419TIP3    H164672   1.491   6.419  13.399  0.9171  1.8123  0.3396
14419TIP3    H264673   1.452   6.466  13.260  0.3987  0.3631 -0.0237
14420TIP3   OH264674   3.371   3.866  11.855  0.3604 -0.3010  0.1080
14420TIP3    H164675   3.335   3.907  11.934 -0.8333 -2.0791  0.5526
14420TIP3    H264676   3.323   3.905  11.783 -2.1836 -2.1603  0.6437
14421TIP3   OH264677   3.349   1.448   2.137  0.0573 -0.4580 -0.0265
14421TIP3    H164678   3.335   1.371   2.083  0.1237 -0.5694  0.1143
14421TIP3    H264679   3.401   1.416   2.211  2.9626  0.3061 -1.5667
14422TIP3   OH264680   1.868   0.582   3.350  0.7243  0.1258  0.1882
14422TIP3    H164681   1.857   0.669   3.312  0.7688  0.1930  0.3262
14422TIP3    H264682   1.959   0.559   3.330  0.6254 -0.0124 -0.1004
14423TIP3   OH264683   3.721   3.768   1.997 -0.0846  0.8265 -0.1263
14423TIP3    H164684   3.735   3.791   1.905  0.9832 -0.9070 -0.4382
14423TIP3    H264685   3.799   3.802   2.042 -0.4382  1.3621  0.0883
14424TIP3   OH264686   4.861   1.823   2.743  0.5852 -0.0793  0.4124
14424TIP3    H164687   4.955   1.838   2.728  0.2429  1.9107 -0.0851
14424TIP3    H264688   4.818   1.876   2.676 -0.9094  0.4787  1.7670
14425TIP3   OH264689   3.782   4.836  13.027  0.1944  0.2566  0.2999
14425TIP3    H164690   3.710   4.887  13.063  1.0106  2.2874 -0.7912
14425TIP3    H264691   3.824   4.894  12.964  2.5709 -0.9836  0.6117
14426TIP3   OH264692   1.419   3.391  13.059  0.2980 -0.3830  0.3875
14426TIP3    H164693   1.491   3.413  13.001  0.8270 -0.9768  0.8092
14426TIP3    H264694   1.443   3.429  13.144  0.7117 -1.6197  0.8442
14427TIP3   OH264695   4.590   3.631  17.003  0.3435  0.6459 -0.2586
14427TIP3    H164696   4.578   3.725  17.016 -0.5716  0.5953 -0.6543
14427TIP3    H264697   4.673   3.611  17.046 -0.5593  1.2006  1.8920
14428TIP3   OH264698   3.091   4.416   0.952 -0.6013 -0.0871 -0.1397
14428TIP3    H164699   3.138   4.333   0.948 -2.0393 -1.0139  0.8504
14428TIP3    H264700   3.158   4.483   0.943  0.7548 -1.3521  0.1821
14429TIP3   OH264701   3.862   4.037   0.998  0.4945 -0.6160 -0.3213
14429TIP3    H164702   3.809   4.071   1.070  1.0455  0.2562 -0.3036
14429TIP3    H264703   3.897   3.954   1.030  0.7252 -0.2380  0.4260
14430TIP3   OH264704   1.918   1.458   6.276  0.4656 -0.5391 -0.1644
14430TIP3    H164705   1.923   1.546   6.241  0.5555  0.2457  1.7215
14430TIP3    H264706   1.984   1.409   6.227  0.1918  0.3403 -1.4543
14431TIP3   OH264707   4.593   0.094   2.676  0.4917  0.2954  0.2895
14431TIP3    H164708   4.504   0.057   2.679  1.1624 -1.4597 -0.4123
14431TIP3    H264709   4.648   0.028   2.717  1.3886  1.7642  1.5480
14432TIP3   OH264710   5.665   5.025  10.819 -0.1715  0.0988  0.0604
14432TIP3    H164711   5.601   4.958  10.843  0.7577 -0.5175  0.8963
14432TIP3    H264712   5.734   4.976  10.774  1.0757  0.2630  1.6853
14433TIP3   OH264713   0.502   5.375  14.593 -0.0052 -0.5474  0.3523
14433TIP3    H164714   0.439   5.437  14.557 -0.5818 -0.7216  1.0239
14433TIP3    H264715   0.461   5.289  14.580 -0.3842 -0.5949  1.6766
14434TIP3   OH264716   5.830   2.692   5.526  0.3287 -0.7248 -0.0467
14434TIP3    H164717   5.816   2.608   5.569 -0.9235 -0.4085  0.1986
14434TIP3    H264718   5.799   2.757   5.589  0.3406 -0.1354 -0.6303
14435TIP3   OH264719   1.443   2.669   0.857  0.3021  0.1812  0.0440
14435TIP3    H164720   1.376   2.645   0.794 -0.5317 -0.6393  1.2056
14435TIP3    H264721   1.397   2.720   0.923  1.1044  0.8063  0.1377
14436TIP3   OH264722   3.134   6.628   2.957  0.2320  0.5754  0.3030
14436TIP3    H164723   3.056   6.573   2.963 -0.2594  1.3578  1.8606
14436TIP3    H264724   3.161   6.622   2.866 -0.0779 -1.8118  0.3067
14437TIP3   OH264725   6.096   4.900  11.688 -0.5106 -0.0209 -0.1057
14437TIP3    H164726   6.010   4.934  11.711 -0.0963  0.3825  0.8927
14437TIP3    H264727   6.080   4.844  11.612 -1.6396  0.0889  0.0379
14438TIP3   OH264728   2.853   3.737   2.706  0.1758 -0.9435  0.3297
14438TIP3    H164729   2.777   3.772   2.661  1.4584  2.2433  0.3744
14438TIP3    H264730   2.924   3.744   2.642  1.0654 -0.8774  1.2888
14439TIP3   OH264731   6.470   6.328  13.397  0.1330  0.2728 -0.3081
14439TIP3    H164732   6.483   6.322  13.492 -0.6108  0.3502 -0.2005
14439TIP3    H264733   6.539   6.388  13.368  1.0201 -0.5421  0.0315
14440TIP3   OH264734   2.387   5.294  13.748  0.2497  0.3880  0.0970
14440TIP3    H164735   2.417   5.323  13.835 -0.0517  1.2653 -0.0831
14440TIP3    H264736   2.298   5.264  13.762 -0.5642  2.4721 -0.2501
14441TIP3   OH264737   3.826   1.427   1.662 -0.3337 -0.1617  0.1079
14441TIP3    H164738   3.824   1.375   1.582 -0.6069 -0.8281  0.5432
14441TIP3    H264739   3.857   1.367   1.729  1.4027  0.7848  0.2258
14442TIP3   OH264740   1.540   4.155   4.774  0.1548  0.4220 -0.2099
14442TIP3    H164741   1.472   4.222   4.787 -0.3606  0.6162 -3.2895
14442TIP3    H264742   1.493   4.072   4.774  0.2826  0.3475  0.0274
14443TIP3   OH264743   1.346   3.312   6.548  0.4952 -0.4179 -0.0805
14443TIP3    H164744   1.350   3.392   6.600  1.1640  0.0186 -0.7713
14443TIP3    H264745   1.377   3.244   6.607  0.8872  0.0097  0.2205
14444TIP3   OH264746   4.856   5.837  16.099  0.0932 -0.3324 -0.2691
14444TIP3    H164747   4.847   5.751  16.140  1.0965 -0.7916 -0.9779
14444TIP3    H264748   4.893   5.892  16.168  1.1232 -0.9286 -0.3292
14445TIP3   OH264749   1.435   0.254   4.714 -0.1841 -0.0636  0.2451
14445TIP3    H164750   1.436   0.295   4.627 -0.6299 -0.5590  0.0032
14445TIP3    H264751   1.378   0.310   4.766 -0.1264  0.0892  0.1444
14446TIP3   OH264752   1.599   0.217   2.988  0.7537 -0.6647  0.3723
14446TIP3    H164753   1.553   0.259   2.916 -1.3189 -2.4520  0.5234
14446TIP3    H264754   1.653   0.286   3.026 -0.1119  0.9936 -1.2351
14447TIP3   OH264755   2.847   0.745  12.179  0.1006 -0.1148  0.6693
14447TIP3    H164756   2.918   0.720  12.239  0.9036 -2.3781 -1.0790
14447TIP3    H264757   2.782   0.676  12.188  0.2493 -0.5273 -1.0195
14448TIP3   OH264758   5.599   1.793  15.293  0.0376 -0.2526 -0.1517
14448TIP3    H164759   5.552   1.824  15.370  0.9559 -0.0659  0.3453
14448TIP3    H264760   5.682   1.761  15.327  0.6798  0.3243 -1.1260
14449TIP3   OH264761   0.579   2.723   4.716  0.3226 -0.9718 -0.1413
14449TIP3    H164762   0.544   2.649   4.666 -3.5842  0.0298  0.7761
14449TIP3    H264763   0.587   2.690   4.805  0.7655 -0.8857 -0.1464
14450TIP3   OH264764   0.587   4.996  14.460  0.8757  0.3463  0.7852
14450TIP3    H164765   0.627   5.033  14.381  1.0995  2.4446  1.8139
14450TIP3    H264766   0.506   5.045  14.471  1.9392  1.7587  3.0647
14451TIP3   OH264767   4.332   4.980  17.115 -0.1949  0.1616 -0.3207
14451TIP3    H164768   4.317   5.036  17.191 -2.0495 -0.6803 -0.0217
14451TIP3    H264769   4.357   5.041  17.045 -0.8038  1.2017  0.3434
14452TIP3   OH264770   2.757   3.775  12.045 -0.0664 -0.3101  0.1578
14452TIP3    H164771   2.761   3.753  11.952 -0.8065  0.9892 -0.2095
14452TIP3    H264772   2.812   3.709  12.087  0.1497 -1.0281 -1.1723
14453TIP3   OH264773   6.590   0.177   1.975 -0.1466  0.0373 -0.3373
14453TIP3    H164774   6.644   0.125   1.916 -2.4936 -0.5902 -2.0770
14453TIP3    H264775   6.618   0.149   2.063  2.6469  0.1686 -1.0712
14454TIP3   OH264776   5.404   4.979   3.536 -0.1041  0.2015  0.2091
14454TIP3    H164777   5.367   4.951   3.619  0.4098  0.6818  0.6063
14454TIP3    H264778   5.498   4.962   3.544 -0.0012  0.5849 -0.1385
14455TIP3   OH264779   6.029   1.418   4.877 -0.1342 -0.1107  0.0163
14455TIP3    H164780   5.987   1.473   4.942 -0.7603  2.5863 -2.4405
14455TIP3    H264781   6.122   1.440   4.883  0.2889 -2.0496  1.8139
14456TIP3   OH264782   2.613   3.040  11.107  0.6690 -0.2128  0.3533
14456TIP3    H164783   2.597   3.052  11.013  0.6041 -0.4424  0.3354
14456TIP3    H264784   2.601   3.128  11.144 -1.3651 -0.4671  0.4389
14457TIP3   OH264785   2.356   6.277  13.700  0.0206 -0.3616 -0.7420
14457TIP3    H164786   2.407   6.223  13.760 -1.4865 -0.1018  0.8821
14457TIP3    H264787   2.324   6.349  13.754 -0.7333  0.3368 -2.0677
14458TIP3   OH264788   5.075   4.292  14.205  0.1596  0.0621 -0.2587
14458TIP3    H164789   5.138   4.364  14.196 -0.6971  0.7826 -0.5967
14458TIP3    H264790   5.013   4.322  14.271  0.5206 -0.9088  0.5362
14459TIP3   OH264791   0.742   5.914  14.763 -0.5758 -0.4066  0.4923
14459TIP3    H164792   0.819   5.943  14.812 -1.0020  0.5543  0.6062
14459TIP3    H264793   0.735   5.976  14.690 -1.4973 -0.2061  0.7372
14460TIP3   OH264794   6.374   0.778  15.985  0.3400 -0.7285 -0.2543
14460TIP3    H164795   6.299   0.773  15.926  0.7087 -1.9073 -0.6564
14460TIP3    H264796   6.348   0.725  16.061  0.4381 -0.4375 -0.0158
14461TIP3   OH264797   1.498   3.063   2.885  0.0866  0.0098  0.6300
14461TIP3    H164798   1.434   3.060   2.814  0.8731 -0.0287 -0.0957
14461TIP3    H264799   1.543   3.147   2.873 -0.5305  0.5359  1.7835
14462TIP3   OH264800   0.946   1.831  14.576 -0.7738 -0.4933  0.1225
14462TIP3    H164801   0.866   1.864  14.536 -0.4458 -0.4529 -0.5322
14462TIP3    H264802   1.001   1.806  14.501  0.1025  0.1471  0.5322
14463TIP3   OH264803   4.975   4.623   2.854 -0.2824 -0.1826  0.6217
14463TIP3    H164804   5.055   4.648   2.900  0.9343  0.3670 -1.6220
14463TIP3    H264805   4.923   4.703   2.849  0.8192  0.4796 -1.2098
14464TIP3   OH264806   6.455   5.570   0.268  0.5077  0.5750  0.4098
14464TIP3    H164807   6.498   5.503   0.321  0.1421  1.2558  1.5961
14464TIP3    H264808   6.412   5.521   0.198  1.9543 -0.2399  0.0587
14465TIP3   OH264809   2.222   3.304   4.914  0.0489 -0.0924  0.6783
14465TIP3    H164810   2.149   3.334   4.860 -0.8118 -2.6325  0.2954
14465TIP3    H264811   2.199   3.330   5.003 -1.1466 -0.4907  0.5012
14466TIP3   OH264812   3.241   5.064  13.154  0.1050  0.1202  0.0895
14466TIP3    H164813   3.250   5.025  13.067 -0.2373  0.3475 -0.0470
14466TIP3    H264814   3.149   5.051  13.176  0.2002  0.0220  0.4404
14467TIP3   OH264815   0.400   3.012   3.423  0.3213 -0.6782  0.6647
14467TIP3    H164816   0.468   2.945   3.418  2.2776  1.2891 -0.8773
14467TIP3    H264817   0.347   2.999   3.344  0.7441 -0.3771  0.3286
14468TIP3   OH264818   6.044   2.194   0.466 -0.1078 -0.0192 -0.4105
14468TIP3    H164819   6.121   2.140   0.451 -0.5629 -0.8558  0.2215
14468TIP3    H264820   6.067   2.250   0.541  0.0318  0.0250 -0.4868
14469TIP3   OH264821   4.938   1.704   0.819 -0.1787  0.2145  0.3880
14469TIP3    H164822   4.861   1.704   0.875 -0.0670  1.4720  0.5741
14469TIP3    H264823   4.903   1.696   0.730 -0.4346 -0.4232  0.5400
14470TIP3   OH264824   5.698   5.982   7.985  0.1876  0.4327  0.4688
14470TIP3    H164825   5.622   5.969   8.042 -0.2686 -1.7339 -0.5556
14470TIP3    H264826   5.662   6.025   7.908  0.6520  2.5192  1.3345
14471TIP3   OH264827   0.831   3.870  13.333 -0.6011 -0.2105 -0.3310
14471TIP3    H164828   0.813   3.777  13.347 -0.9070 -0.0038  0.6954
14471TIP3    H264829   0.884   3.872  13.253  0.2584 -1.3440  0.1915
14472TIP3   OH264830   2.332   2.609   3.301 -0.0230 -0.1997 -0.2153
14472TIP3    H164831   2.263   2.669   3.273 -0.1124 -0.9353 -1.6726
14472TIP3    H264832   2.370   2.650   3.378 -1.8954  0.3649  0.4631
14473TIP3   OH264833   1.765   0.631   2.832  0.2124 -0.1054  0.5912
14473TIP3    H164834   1.692   0.627   2.894 -0.4521 -1.6065 -0.2398
14473TIP3    H264835   1.843   0.635   2.887 -0.3497 -1.5425  1.5587
14474TIP3   OH264836   1.684   2.257   1.636 -0.0758 -0.0696  0.9513
14474TIP3    H164837   1.709   2.169   1.666 -0.0647  0.6297  3.2325
14474TIP3    H264838   1.629   2.242   1.560  0.3079 -2.0339  1.0059
14475TIP3   OH264839   2.592   4.892  12.357 -0.4241  0.1205  0.0311
14475TIP3    H164840   2.665   4.856  12.407  0.4473  1.1319 -0.4792
14475TIP3    H264841   2.514   4.865  12.407  0.4055  1.3004  2.0958
14476TIP3   OH264842   4.006   1.193   3.282  0.0301 -0.3835  0.2518
14476TIP3    H164843   3.958   1.110   3.278 -0.8326  0.1380 -0.9124
14476TIP3    H264844   4.000   1.228   3.193 -0.4503  1.3885  0.9422
14477TIP3   OH264845   4.467   4.241   4.177  0.3217  0.4672  0.0544
14477TIP3    H164846   4.513   4.261   4.096  0.8153  0.9375  0.4388
14477TIP3    H264847   4.414   4.319   4.194  0.5323  0.5385  0.3953
14478TIP3   OH264848   5.055   2.885   1.737 -0.0874  0.2263  0.1457
14478TIP3    H164849   5.071   2.976   1.712 -0.8054  0.4443  0.4392
14478TIP3    H264850   4.987   2.855   1.676 -0.8401  0.3271  0.9158
14479TIP3   OH264851   4.081   1.503  11.319  0.1475  0.3164  0.3200
14479TIP3    H164852   4.092   1.427  11.375  2.7002  0.2602 -0.1345
14479TIP3    H264853   4.149   1.564  11.348 -0.6941  1.6888 -0.4877
14480TIP3   OH264854   4.165   1.065  13.084  0.1494 -0.3425 -0.5767
14480TIP3    H164855   4.160   0.972  13.065 -1.7039 -0.5199  0.4807
14480TIP3    H264856   4.254   1.079  13.117  0.6160 -1.6169 -1.2619
14481TIP3   OH264857   1.429   2.580  12.762 -0.0149  0.1269 -0.5423
14481TIP3    H164858   1.392   2.524  12.694 -1.9149  0.2903  0.2815
14481TIP3    H264859   1.384   2.664  12.751 -0.5205  0.0920  1.0269
14482TIP3   OH264860   4.165   6.099  12.760 -0.2608 -0.0311 -0.1610
14482TIP3    H164861   4.227   6.166  12.730 -0.3190  1.0852  2.0241
14482TIP3    H264862   4.098   6.148  12.807  0.0060 -1.6399  2.0250
14483TIP3   OH264863   0.671   4.814   4.427  0.3854 -0.1381 -0.6068
14483TIP3    H164864   0.719   4.894   4.448 -2.3484  1.8700 -1.5550
14483TIP3    H264865   0.592   4.843   4.383 -0.5790 -3.4188 -1.3411
14484TIP3   OH264866   0.358   1.959  13.432 -0.3737  0.0511  0.4516
14484TIP3    H164867   0.399   1.984  13.350 -0.9856 -0.7755 -0.1209
14484TIP3    H264868   0.344   2.042  13.478 -1.5817  0.7321 -1.0332
14485TIP3   OH264869   3.243   3.111   4.887  0.1305 -0.1032 -0.6567
14485TIP3    H164870   3.297   3.148   4.957  0.6582  0.1825 -1.1967
14485TIP3    H264871   3.216   3.025   4.920 -1.5165  0.9182  0.8199
14486TIP3   OH264872   6.404   3.068  10.776 -0.4348  0.0968  0.2100
14486TIP3    H164873   6.374   3.132  10.841 -0.5227  0.2110  0.0585
14486TIP3    H264874   6.497   3.087  10.765 -0.1348 -0.7106  1.1968
14487TIP3   OH264875   5.490   1.359  14.063  0.0656 -0.4022  0.5140
14487TIP3    H164876   5.439   1.346  14.143  0.2444 -0.4098  0.6275
14487TIP3    H264877   5.547   1.433  14.083 -0.5063  0.1665  0.0927
14488TIP3   OH264878   6.742   6.688   1.046  0.1403  0.0652  0.3114
14488TIP3    H164879   6.717   6.757   1.107  0.1767  0.0942  0.2938
14488TIP3    H264880   6.746   6.731   0.961 -0.9721 -0.2119  0.1112
14489TIP3   OH264881   6.656   4.174  15.661 -0.0575  0.0291  0.0987
14489TIP3    H164882   6.697   4.258  15.643  0.0679 -0.1001 -0.2394
14489TIP3    H264883   6.680   4.119  15.585  0.9747 -0.7161  0.9373
14490TIP3   OH264884   4.160   0.862   2.971 -0.8005  0.0667 -0.0463
14490TIP3    H164885   4.197   0.774   2.964  1.8786  1.0472  0.4779
14490TIP3    H264886   4.106   0.860   3.050  1.1959 -0.5203  1.3816
14491TIP3   OH264887   0.969   5.216  12.659 -0.0765  0.0371 -0.2699
14491TIP3    H164888   0.919   5.295  12.639 -0.1218  0.4013  1.1399
14491TIP3    H264889   0.923   5.177  12.733  0.5061 -0.7884 -0.3286
14492TIP3   OH264890   4.608   3.393   1.134  0.0456 -0.6188  0.3304
14492TIP3    H164891   4.646   3.436   1.210 -1.1634 -1.6043  1.5593
14492TIP3    H264892   4.538   3.452   1.105  0.9824  0.1117 -0.5198
14493TIP3   OH264893   2.860   4.092  15.861  0.6521 -0.2946  0.7153
14493TIP3    H164894   2.882   4.095  15.954  0.2046 -1.6715  0.8919
14493TIP3    H264895   2.915   4.022  15.826  0.0061 -0.5411  0.1801
14494TIP3   OH264896   5.133   1.235   3.803  0.3451 -0.5671 -0.3447
14494TIP3    H164897   5.179   1.168   3.853  0.0271  0.0320  0.7891
14494TIP3    H264898   5.147   1.316   3.853 -1.1456 -0.2016 -0.4712
14495TIP3   OH264899   5.648   5.726   3.129  0.2548 -0.7135  0.6648
14495TIP3    H164900   5.588   5.765   3.192 -1.4010  1.3939 -2.0014
14495TIP3    H264901   5.707   5.797   3.104  0.4291 -1.2933 -0.6435
14496TIP3   OH264902   3.059   5.382   1.928  0.2067 -0.4458  0.1897
14496TIP3    H164903   3.086   5.318   1.993 -0.1575 -0.7615  0.0367
14496TIP3    H264904   3.122   5.372   1.856  2.2507  1.7146  1.5335
14497TIP3   OH264905   4.328   0.861  16.864  0.0209  0.0872 -0.1073
14497TIP3    H164906   4.290   0.803  16.930  0.9111 -1.2571 -0.7373
14497TIP3    H264907   4.392   0.913  16.911  0.7176 -0.9313  0.0966
14498TIP3   OH264908   3.835   2.352   4.934 -0.0282  0.1079  0.3028
14498TIP3    H164909   3.890   2.411   4.986 -0.0261  0.4102 -0.0390
14498TIP3    H264910   3.880   2.346   4.850 -0.7220  0.6504 -0.1032
14499TIP3   OH264911   2.184   4.883  13.826  0.0855  0.4237 -0.0665
14499TIP3    H164912   2.115   4.834  13.872 -0.6809  1.3337 -0.2188
14499TIP3    H264913   2.250   4.899  13.893  0.2670 -0.6503  0.0307
14500TIP3   OH264914   3.364   6.613   5.388 -0.7931 -0.3962  0.5780
14500TIP3    H164915   3.288   6.670   5.374 -0.0333  0.5108  0.0303
14500TIP3    H264916   3.420   6.661   5.449  0.1142 -0.2858 -0.3163
14501TIP3   OH264917   0.651   0.763  16.023  0.0394  0.1836  0.1438
14501TIP3    H164918   0.565   0.750  16.061 -0.3705  2.8235  0.2703
14501TIP3    H264919   0.705   0.695  16.062 -1.4446 -0.0653  1.8717
14502TIP3   OH264920   6.257   4.484  16.275 -0.2023  0.1076 -0.0688
14502TIP3    H164921   6.212   4.569  16.277  0.1125  0.3763 -2.3983
14502TIP3    H264922   6.271   4.464  16.368 -2.3424  1.4622  0.6451
14503TIP3   OH264923   1.727   1.543   2.430 -0.0129  0.0197 -0.5465
14503TIP3    H164924   1.634   1.538   2.408  0.3709 -1.1966 -2.1247
14503TIP3    H264925   1.753   1.631   2.404 -0.4178 -0.1351 -1.5298
14504TIP3   OH264926   4.383   5.012  15.482 -0.5555 -0.4254  0.4839
14504TIP3    H164927   4.295   5.036  15.510 -0.0940  0.1341  1.5226
14504TIP3    H264928   4.441   5.065  15.537  0.4578 -1.9322  0.9293
14505TIP3   OH264929   4.312   4.288  11.322 -0.2854  0.1676 -0.2460
14505TIP3    H164930   4.346   4.257  11.238  1.1092 -2.7141  1.2671
14505TIP3    H264931   4.385   4.279  11.383 -0.8959  3.2354  1.1758
14506TIP3   OH264932   6.082   5.595  17.046  0.1316 -0.0833  0.6392
14506TIP3    H164933   6.079   5.565  17.137  0.9777 -0.0077  0.7061
14506TIP3    H264934   6.006   5.652  17.037  0.7135  0.9065  1.6813
14507TIP3   OH264935   1.507   6.681  12.040 -0.5426 -0.2626  0.4190
14507TIP3    H164936   1.480   6.603  12.090  2.5680 -1.5548  0.2716
14507TIP3    H264937   1.555   6.735  12.102 -0.8925  0.5576 -0.0021
14508TIP3   OH264938   1.120   2.749  13.367 -0.1327 -0.2223  0.5225
14508TIP3    H164939   1.146   2.780  13.280  1.5889 -0.4761  0.9053
14508TIP3    H264940   1.086   2.661  13.352 -3.8550  1.2090 -0.3985
14509TIP3   OH264941   0.488   2.292   1.671  0.5244 -0.1682 -0.2349
14509TIP3    H164942   0.542   2.284   1.593 -1.2386 -1.1706 -1.4430
14509TIP3    H264943   0.492   2.206   1.712 -0.0086 -0.2095 -0.2577
14510TIP3   OH264944   3.006   6.037   2.044 -0.5544 -0.1068  0.8598
14510TIP3    H164945   3.041   6.090   2.116 -0.5104 -0.3977  1.0572
14510TIP3    H264946   3.084   6.009   1.996 -0.6751  2.4099 -1.0171
14511TIP3   OH264947   5.800   3.026   2.371  0.3512 -0.5242 -0.5708
14511TIP3    H164948   5.791   3.084   2.447  1.0245  0.1178 -0.9753
14511TIP3    H264949   5.748   3.068   2.303  0.6449 -0.5199 -0.7929
14512TIP3   OH264950   2.208   2.115  13.692  0.6346 -0.3409  0.1389
14512TIP3    H164951   2.130   2.159  13.659  1.4444 -0.8084 -2.6900
14512TIP3    H264952   2.263   2.186  13.725 -0.1374  0.1935  0.3101
14513TIP3   OH264953   3.815   2.772  12.445 -0.2793  0.2128 -0.4073
14513TIP3    H164954   3.907   2.769  12.472  0.0231  0.1129 -1.3825
14513TIP3    H264955   3.806   2.857  12.402  0.6638 -1.5330 -4.5344
14514TIP3   OH264956   2.963   5.398   5.244 -0.0733  0.1535 -0.4255
14514TIP3    H164957   2.986   5.316   5.287 -0.6513 -1.3729 -2.8114
14514TIP3    H264958   3.047   5.442   5.229  0.4196 -0.8351 -0.6360
14515TIP3   OH264959   4.042   1.176   0.340 -0.0773  0.0293  0.0792
14515TIP3    H164960   4.060   1.222   0.258 -0.4128  0.5348  0.2880
14515TIP3    H264961   3.976   1.229   0.384  0.8647  0.3470  1.1734
14516TIP3   OH264962   6.734   2.674  14.265 -0.5466  0.4428 -0.7209
14516TIP3    H164963   6.755   2.580  14.263 -0.3424  0.4278  0.7806
14516TIP3    H264964   6.705   2.694  14.177 -1.7621 -1.3143 -0.7614
14517TIP3   OH264965   6.570   1.050   0.144 -0.3012  0.4136 -0.0324
14517TIP3    H164966   6.604   1.132   0.109  0.1229  0.2550  0.0021
14517TIP3    H264967   6.647   0.993   0.152  0.2757  1.4771  4.2625
14518TIP3   OH264968   2.859   6.616  11.444 -0.3225 -0.7791  0.7388
14518TIP3    H164969   2.832   6.524  11.453  0.9375 -1.3158 -0.6414
14518TIP3    H264970   2.808   6.648  11.370  0.5208 -0.8979  0.0952
14519TIP3   OH264971   0.802   5.738  15.863 -0.0668 -0.0491  0.0436
14519TIP3    H164972   0.772   5.702  15.780 -2.2828  1.2644  0.1972
14519TIP3    H264973   0.825   5.829  15.842  1.2965 -0.2586  0.5115
14520TIP3   OH264974   2.379   6.210  10.998 -0.8012 -0.5888 -0.4501
14520TIP3    H164975   2.345   6.252  10.919 -0.9833  0.9288  0.4023
14520TIP3    H264976   2.398   6.120  10.971 -0.0990  0.1021 -2.4230
14521TIP3   OH264977   4.944   4.046  12.578 -0.2540 -0.0928 -0.2632
14521TIP3    H164978   4.980   4.135  12.585  1.0029 -0.4028 -2.0677
14521TIP3    H264979   4.962   4.007  12.664 -0.5319  1.2785  0.4484
14522TIP3   OH264980   0.207   5.187  11.324  0.4154  0.1560  0.0585
14522TIP3    H164981   0.149   5.157  11.254 -0.4732 -1.3963  1.3943
14522TIP3    H264982   0.233   5.275  11.297  0.7562 -0.6739 -2.5954
14523TIP3   OH264983   2.458   4.900  14.804 -0.1845 -0.5732  0.1558
14523TIP3    H164984   2.498   4.956  14.738  2.2216 -0.6309  1.4573
14523TIP3    H264985   2.443   4.816  14.759 -0.7527  0.0665 -0.8914
14524TIP3   OH264986   1.334   1.681   4.309 -0.1627  0.4146  0.2978
14524TIP3    H164987   1.262   1.718   4.258  0.5364  1.0527 -0.2473
14524TIP3    H264988   1.410   1.735   4.285  0.8076 -1.1367 -0.2528
14525TIP3   OH264989   0.992   6.576  16.547  0.6974  0.2360 -0.1711
14525TIP3    H164990   0.953   6.623  16.621 -0.6614 -1.1495  0.0463
14525TIP3    H264991   0.962   6.624  16.470 -2.7750 -1.5013 -0.1101
14526TIP3   OH264992   3.111   6.432   2.489 -0.3781 -0.5609 -0.0640
14526TIP3    H164993   3.131   6.345   2.524 -0.2218 -0.2882  0.5333
14526TIP3    H264994   3.016   6.434   2.482 -0.3799 -0.7958 -0.1173
14527TIP3   OH264995   2.800   0.058  16.172  0.0928  0.1844 -0.0585
14527TIP3    H164996   2.736   0.119  16.138 -0.7277 -1.1823 -1.0588
14527TIP3    H264997   2.756   0.016  16.246 -0.6478 -1.5492 -1.4219
14528TIP3   OH264998   3.188   1.874  14.755  0.8543  0.1337  0.7408
14528TIP3    H164999   3.110   1.920  14.786  0.3086 -1.2168  1.4392
14528TIP3    H265000   3.261   1.917  14.800  0.1510 -1.2917  3.4069
14529TIP3   OH265001   5.877   4.275  12.314  0.1500  0.3476 -0.3050
14529TIP3    H165002   5.807   4.311  12.368  0.6857 -0.8721  1.2844
14529TIP3    H265003   5.958   4.294  12.362  0.5503 -1.8347  0.0253
14530TIP3   OH265004   5.743   0.894  10.161 -0.4071 -0.0998 -0.5656
14530TIP3    H165005   5.798   0.969  10.184  0.2495 -1.0462  1.1582
14530TIP3    H265006   5.734   0.845  10.243 -3.9588  0.0583 -0.7096
14531TIP3   OH265007   2.024   2.194   0.127  0.3793 -0.1684  0.5492
14531TIP3    H165008   2.077   2.245   0.065 -0.9302  0.9911  0.3233
14531TIP3    H265009   2.011   2.110   0.084  0.2090  0.3155 -0.3672
14532TIP3   OH265010   0.660   2.613  14.696 -0.1292 -0.2934 -0.0167
14532TIP3    H165011   0.706   2.579  14.773  1.5999 -0.5238 -1.1105
14532TIP3    H265012   0.626   2.698  14.725  1.3241  0.0663  0.7534
14533TIP3   OH265013   1.551   3.439   4.721  0.4738 -0.2218  0.5154
14533TIP3    H165014   1.495   3.470   4.650  2.6227  3.6045  0.2024
14533TIP3    H265015   1.553   3.344   4.711 -2.9302 -0.2205 -1.6323
14534TIP3   OH265016   5.028   4.089  14.037 -0.0578 -0.4587  0.2608
14534TIP3    H165017   5.044   4.155  14.104 -0.5997 -2.1286  2.1457
14534TIP3    H265018   5.104   4.096  13.978  0.9572  0.4257  1.6069
14535TIP3   OH265019   0.876   5.531  16.360  0.0712  0.3934  0.1846
14535TIP3    H165020   0.855   5.567  16.446 -2.3043  0.2021 -0.2587
14535TIP3    H265021   0.858   5.438  16.368 -2.1783  0.6585 -1.0203
14536TIP3   OH265022   1.467   0.769   2.154  0.5100 -0.1669  0.0099
14536TIP3    H165023   1.500   0.786   2.243  0.5254 -0.8231  0.1345
14536TIP3    H265024   1.486   0.677   2.139 -2.0895 -0.8407  0.4484
14537TIP3   OH265025   2.297   5.097  14.885 -0.2546  0.0363  0.8094
14537TIP3    H165026   2.371   5.038  14.871  0.5970  1.4556 -1.0112
14537TIP3    H265027   2.220   5.043  14.870  0.4732 -0.8441  0.1397
14538TIP3   OH265028   5.955   0.631  16.794  0.4335 -0.2327 -0.5847
14538TIP3    H165029   5.915   0.570  16.856  0.7338  1.5925  1.5141
14538TIP3    H265030   5.886   0.694  16.775  0.8098  0.0820 -0.9134
14539TIP3   OH265031   6.057   4.325   3.564 -0.1328 -0.1774 -0.3183
14539TIP3    H165032   6.132   4.336   3.623  0.7910  1.2813 -1.7049
14539TIP3    H265033   5.985   4.369   3.609  0.6055  1.0751 -0.2986
14540TIP3   OH265034   3.650   3.499   3.861  0.6091  0.0856 -0.2719
14540TIP3    H165035   3.692   3.550   3.791 -2.3326  1.6216 -1.0516
14540TIP3    H265036   3.628   3.564   3.928  1.4670 -1.0524  1.1944
14541TIP3   OH265037   3.448   0.353   2.570  0.8152 -0.2248  0.2575
14541TIP3    H165038   3.401   0.429   2.605  0.9558  0.5762 -1.1809
14541TIP3    H265039   3.412   0.342   2.482  2.8722  0.0619 -0.6728
14542TIP3   OH265040   3.684   5.474   5.225 -0.6892  0.0955 -0.6814
14542TIP3    H165041   3.699   5.391   5.178 -0.0583 -0.4894  0.4998
14542TIP3    H265042   3.768   5.493   5.267 -1.4727  0.0976  0.9604
14543TIP3   OH265043   5.075   3.037   5.344 -0.6140  0.4053  0.2990
14543TIP3    H165044   5.161   2.998   5.360 -0.4891  0.1140 -0.9972
14543TIP3    H265045   5.013   2.968   5.368 -0.5340  0.7767  1.6884
14544TIP3   OH265046   4.164   0.907   1.674  0.0430 -0.1093  0.1728
14544TIP3    H165047   4.138   0.995   1.649  0.9370  0.1366  0.0685
14544TIP3    H265048   4.144   0.902   1.768  1.4137  0.7646  0.5453
14545TIP3   OH265049   6.672   5.390  12.148 -0.9900  0.5833  0.0156
14545TIP3    H165050   6.695   5.481  12.133 -1.4377  0.5140 -1.2099
14545TIP3    H265051   6.656   5.384  12.242  1.9627  1.0788  0.6239
14546TIP3   OH265052   4.439   0.416  16.693  0.2156 -0.5610  0.1570
14546TIP3    H165053   4.372   0.449  16.754 -1.0110  2.4142 -2.5141
14546TIP3    H265054   4.391   0.355  16.636  0.1880  0.1030 -0.5550
14547TIP3   OH265055   5.057   6.231   0.224 -0.1699  0.3699 -0.0856
14547TIP3    H165056   5.002   6.171   0.274  0.3459  0.5777  0.7563
14547TIP3    H265057   4.996   6.276   0.165 -0.7183 -0.2153  0.0172
14548TIP3   OH265058   4.871   1.995   2.524 -0.6977  0.3881 -0.3100
14548TIP3    H165059   4.846   2.007   2.432 -0.8842  1.7331 -0.1072
14548TIP3    H265060   4.960   2.028   2.529 -0.3464 -0.5560 -0.1833
14549TIP3   OH265061   4.286   2.963  16.071 -0.5200 -1.0827  0.1362
14549TIP3    H165062   4.262   2.993  15.983 -0.6660 -2.2875 -0.2575
14549TIP3    H265063   4.333   3.037  16.110 -0.1648 -0.6522 -1.0741
14550TIP3   OH265064   5.208   3.278  10.685  0.5387 -0.4437 -0.0017
14550TIP3    H165065   5.283   3.257  10.740 -1.2100 -1.0992  2.2706
14550TIP3    H265066   5.133   3.241  10.731 -1.4093  1.6235 -1.2984
14551TIP3   OH265067   1.512   5.137   1.242 -0.8476 -0.1957 -0.1563
14551TIP3    H165068   1.446   5.165   1.178 -1.0570 -1.6867 -0.6145
14551TIP3    H265069   1.541   5.051   1.212  0.6515  0.0223  0.5568
14552TIP3   OH265070   2.497   3.286   1.977  0.4936 -0.0891  0.1869
14552TIP3    H165071   2.472   3.347   2.046 -0.3529  1.6559 -1.5773
14552TIP3    H265072   2.576   3.243   2.010  0.3557  0.9852  2.0352
14553TIP3   OH265073   0.170   0.118   3.346 -0.1613  0.6828  0.7264
14553TIP3    H165074   0.117   0.068   3.284  1.8312  0.8327 -1.2371
14553TIP3    H265075   0.113   0.190   3.374 -1.0177  0.8498 -1.2732
14554TIP3   OH265076   0.048   0.655  11.209  0.1102 -0.1471 -0.0415
14554TIP3    H165077  -0.018   0.611  11.262 -0.9468 -0.4076 -1.5200
14554TIP3    H265078   0.116   0.589  11.196 -0.2886 -0.5405 -0.1664
14555TIP3   OH265079   4.564   6.216  16.981  0.0844  0.0774  0.1923
14555TIP3    H165080   4.649   6.211  16.938  0.6322 -2.5665  1.3951
14555TIP3    H265081   4.582   6.199  17.073 -1.7517 -0.7896  0.4431
14556TIP3   OH265082   5.095   2.820   0.465  0.1742 -0.3550 -0.1115
14556TIP3    H165083   5.028   2.821   0.397 -1.3064  1.1303  1.2830
14556TIP3    H265084   5.176   2.843   0.420 -0.3947 -1.2685 -1.6638
14557TIP3   OH265085   3.332   6.294   3.213 -0.8605  0.5499 -0.0211
14557TIP3    H165086   3.424   6.320   3.208 -0.6532 -0.3029 -0.9980
14557TIP3    H265087   3.322   6.228   3.144 -2.0640  0.1979  0.4652
14558TIP3   OH265088   6.566   0.360  14.617  0.1950 -0.0997  0.3793
14558TIP3    H165089   6.651   0.403  14.630  0.4337 -0.6615  0.7184
14558TIP3    H265090   6.510   0.400  14.684  0.7714 -1.2345  1.5860
14559TIP3   OH265091   4.689   5.554  13.451 -0.3179  0.0303 -0.0204
14559TIP3    H165092   4.672   5.648  13.437 -0.9955  0.0139  0.6128
14559TIP3    H265093   4.758   5.533  13.388  0.9513  1.2974  0.8804
14560TIP3   OH265094   2.657   1.470   0.623 -0.0362  0.0885 -0.0754
14560TIP3    H165095   2.692   1.382   0.611  0.2459 -0.1339  2.0936
14560TIP3    H265096   2.720   1.527   0.579 -0.7602 -0.7946 -2.4327
14561TIP3   OH265097   0.191   5.106   3.228 -0.0655  0.1678  0.1922
14561TIP3    H165098   0.270   5.057   3.205  1.3259  1.3876  2.0696
14561TIP3    H265099   0.215   5.198   3.214 -1.2285  0.5389  0.5714
14562TIP3   OH265100   4.930   3.541  14.269  0.6186 -0.5808 -0.2423
14562TIP3    H165101   4.859   3.570  14.326 -0.0574 -0.0929 -1.3002
14562TIP3    H265102   5.005   3.594  14.296  0.0251  0.4380 -0.5219
14563TIP3   OH265103   1.489   5.028   1.502 -0.0018 -0.3951  0.0663
14563TIP3    H165104   1.482   5.066   1.415  2.3538 -0.1859 -0.0878
14563TIP3    H265105   1.544   5.088   1.551 -0.2854 -1.1306  1.3447
14564TIP3   OH265106   0.020   3.988  10.856  0.0806  0.3221  0.6548
14564TIP3    H165107   0.084   4.054  10.884 -1.1031  1.8834 -0.1469
14564TIP3    H265108  -0.064   4.035  10.856 -1.4230 -2.0393  3.1930
14565TIP3   OH265109   2.820   4.190  15.486  0.2060  0.3157 -0.1428
14565TIP3    H165110   2.822   4.286  15.478 -1.7886  0.3721 -0.3609
14565TIP3    H265111   2.758   4.162  15.419 -0.3801 -1.0053  0.9135
14566TIP3   OH265112   4.978   3.528  14.607  0.0630 -0.0280 -0.0608
14566TIP3    H165113   5.023   3.466  14.550 -0.8313 -0.5152 -0.2525
14566TIP3    H265114   5.048   3.575  14.652  0.8247  0.8001 -1.9911
14567TIP3   OH265115   5.515   3.673  12.303  0.3738  0.3368  0.7863
14567TIP3    H165116   5.608   3.664  12.282  0.4575  2.7548 -0.2969
14567TIP3    H265117   5.470   3.648  12.223  0.2217  0.9805  0.6602
14568TIP3   OH265118   6.496   0.724  10.868 -0.5079  0.1913  0.0086
14568TIP3    H165119   6.575   0.669  10.862  0.3969  1.3549  0.8025
14568TIP3    H265120   6.456   0.718  10.781  0.3079 -0.6329 -0.3283
14569TIP3   OH265121   0.895   0.635   1.902  0.3342 -0.1003  0.4236
14569TIP3    H165122   0.811   0.598   1.928  0.8779  0.0767  2.6155
14569TIP3    H265123   0.893   0.634   1.806 -2.3285  0.3051  0.4058
14570TIP3   OH265124   3.630   6.717  13.045 -0.2082 -0.0284 -0.0985
14570TIP3    H165125   3.655   6.717  13.138  1.1413 -0.3753 -0.4423
14570TIP3    H265126   3.555   6.658  13.040  1.4039 -2.2245  0.3724
14571TIP3   OH265127   1.092   2.134   0.903 -0.0603 -0.2461  0.2468
14571TIP3    H165128   1.066   2.052   0.861 -0.7048 -0.2632  0.6703
14571TIP3    H265129   1.099   2.197   0.831  0.4751 -0.6727 -0.0872
14572TIP3   OH265130   4.600   4.712  11.853  0.4809  0.3774 -0.7002
14572TIP3    H165131   4.694   4.720  11.839  0.7051  0.2235  0.6082
14572TIP3    H265132   4.587   4.737  11.944 -0.6989  0.0131 -0.7519
14573TIP3   OH265133   4.235   3.842   1.171 -0.7336  0.4387  0.0823
14573TIP3    H165134   4.181   3.892   1.110 -0.6112  1.3548  0.7149
14573TIP3    H265135   4.282   3.780   1.115 -0.6873  1.2036 -0.7492
14574TIP3   OH265136   0.390   0.948  15.836  0.0464  0.2986 -0.4966
14574TIP3    H165137   0.340   0.870  15.859  0.2945  0.0768 -0.7107
14574TIP3    H265138   0.327   1.006  15.794 -0.4135  0.6897  0.6758
14575TIP3   OH265139   1.101   4.084   2.214 -0.0347 -0.4102 -0.4008
14575TIP3    H165140   1.053   4.047   2.140 -0.6664 -0.5986  0.0814
14575TIP3    H265141   1.179   4.124   2.176  0.0673 -1.2195 -1.0709
14576TIP3   OH265142   0.099   3.205  15.833 -0.1698  0.4731 -0.2130
14576TIP3    H165143   0.159   3.279  15.830  4.4828 -2.7661  1.0139
14576TIP3    H265144   0.071   3.201  15.925  1.1665 -0.2279  0.2035
14577TIP3   OH265145   5.112   3.416  16.250 -0.0080  0.1406 -0.3020
14577TIP3    H165146   5.082   3.327  16.269  4.3008 -1.6873 -0.8689
14577TIP3    H265147   5.122   3.418  16.155 -2.2588  2.2001 -0.5984
14578TIP3   OH265148   5.889   5.882   3.107  0.0382 -0.2578 -0.3564
14578TIP3    H165149   5.969   5.865   3.158  0.7345  3.0183 -0.0796
14578TIP3    H265150   5.919   5.938   3.035 -1.9893  1.2011 -0.1548
14579TIP3   OH265151   6.496   1.874  12.442 -0.0030  0.6967 -0.2738
14579TIP3    H165152   6.412   1.902  12.405 -0.6641  1.0938  1.4257
14579TIP3    H265153   6.476   1.854  12.534  0.9426 -2.9849 -0.7098
14580TIP3   OH265154   4.613   2.876  13.817 -0.3828  0.6786 -0.1108
14580TIP3    H165155   4.683   2.939  13.830 -0.4893  0.6275  0.7960
14580TIP3    H265156   4.657   2.797  13.785 -0.2731  1.2562 -1.4406
14581TIP3   OH265157   1.012   2.388  16.862 -0.0473 -0.4177 -0.3895
14581TIP3    H165158   0.985   2.456  16.801 -0.9759  1.9109  2.3918
14581TIP3    H265159   0.931   2.358  16.903  0.7116  1.0869  2.5276
14582TIP3   OH265160   4.163   1.976  12.062  0.6386  0.3861  0.6313
14582TIP3    H165161   4.185   1.904  12.004  1.0671 -0.8235  2.2126
14582TIP3    H265162   4.155   2.052  12.005  0.9856 -0.7476 -0.9836
14583TIP3   OH265163   0.942   1.289   1.310 -0.3550  0.5715  0.5866
14583TIP3    H165164   0.871   1.324   1.365 -1.4961 -0.1346 -0.3707
14583TIP3    H265165   0.929   1.333   1.226 -0.7868 -0.8761 -0.1296
14584TIP3   OH265166   2.280   4.420  14.704  0.1055  0.0068 -0.3811
14584TIP3    H165167   2.304   4.335  14.667  1.9466  0.3099  0.0298
14584TIP3    H265168   2.200   4.403  14.753  1.1806 -1.8306  0.8448
14585TIP3   OH265169   2.755   1.224   0.588  0.5528  0.6979  0.5558
14585TIP3    H165170   2.740   1.208   0.495  1.7848 -0.6474  0.5368
14585TIP3    H265171   2.849   1.242   0.594  0.3723  1.4006  1.4748
14586TIP3   OH265172   3.576   5.432   0.338  0.3459 -0.5543  0.4284
14586TIP3    H165173   3.628   5.407   0.262  0.3071  0.5093  0.0243
14586TIP3    H265174   3.605   5.521   0.358 -0.3783 -0.4416  1.0196
14587TIP3   OH265175   0.230   2.711  14.887  0.1577 -0.6485 -0.1192
14587TIP3    H165176   0.192   2.649  14.824  0.3254 -0.7228 -0.1457
14587TIP3    H265177   0.234   2.662  14.969  0.0113 -0.5759 -0.0676
14588TIP3   OH265178   3.315   2.910  11.085  0.5999  0.1436 -0.3162
14588TIP3    H165179   3.289   3.000  11.102  0.3867  0.4861 -2.2378
14588TIP3    H265180   3.411   2.914  11.075  0.6996 -0.0217  0.4724
14589TIP3   OH265181   5.677   1.831   3.876  0.2716  0.3501 -0.0868
14589TIP3    H165182   5.616   1.786   3.818  1.6203 -0.1854 -1.1481
14589TIP3    H265183   5.695   1.767   3.945  0.6396 -0.0074 -0.5030
14590TIP3   OH265184   1.231   6.017   5.410  0.4768 -0.3257  0.3213
14590TIP3    H165185   1.211   6.018   5.316 -0.8953 -2.4141  0.5331
14590TIP3    H265186   1.319   5.980   5.415  0.5216 -0.2846 -0.1451
14591TIP3   OH265187   3.425   2.990  15.601  0.1810  0.6456 -0.3985
14591TIP3    H165188   3.444   3.054  15.670 -0.3238 -0.7718  1.1414
14591TIP3    H265189   3.498   2.928  15.605  0.5910  0.9998 -1.7701
14592TIP3   OH265190   2.527   4.751   3.765 -0.1640  0.5865 -0.2670
14592TIP3    H165191   2.541   4.699   3.685  0.0944  1.0454 -0.5296
14592TIP3    H265192   2.523   4.841   3.733  2.1238  1.0060  0.4542
14593TIP3   OH265193   3.835   2.517  16.823  0.2656 -0.1237 -0.3845
14593TIP3    H165194   3.754   2.567  16.806 -1.8039 -3.3412 -0.8909
14593TIP3    H265195   3.891   2.536  16.748  0.6100  3.1056  0.5404
14594TIP3   OH265196   4.233   4.646   0.080 -0.5779  0.2375 -0.2953
14594TIP3    H165197   4.228   4.552   0.058 -1.1563  0.0081  0.7626
14594TIP3    H265198   4.159   4.685   0.032 -1.7538 -0.2390  1.0521
14595TIP3   OH265199   5.694   5.214   3.711 -0.0893 -0.0251 -0.1296
14595TIP3    H165200   5.673   5.215   3.805 -0.2268 -2.3550 -0.0902
14595TIP3    H265201   5.613   5.242   3.669 -0.1275  0.7272  0.4172
14596TIP3   OH265202   6.642   3.860   6.364 -0.0104 -0.2786  0.3443
14596TIP3    H165203   6.615   3.858   6.272  1.7405 -0.5822 -0.2148
14596TIP3    H265204   6.662   3.952   6.381 -1.1040 -0.0905  0.6897
14597TIP3   OH265205   1.397   0.849   3.546 -0.1935  0.6410 -0.1481
14597TIP3    H165206   1.381   0.922   3.606 -0.4656  0.0202  0.5566
14597TIP3    H265207   1.420   0.776   3.604 -0.7846 -0.0602 -0.7752
14598TIP3   OH265208   2.464   1.333   3.804  0.0458 -0.0391 -0.0093
14598TIP3    H165209   2.434   1.273   3.736  0.8669  0.1199 -0.5128
14598TIP3    H265210   2.558   1.320   3.809  0.1813  0.9080  0.1677
14599TIP3   OH265211   4.172   0.663   1.547  0.2298 -0.1642  0.4523
14599TIP3    H165212   4.140   0.629   1.630  2.2189  0.0754  1.3709
14599TIP3    H265213   4.184   0.757   1.562  1.7519 -0.3148  0.3081
14600TIP3   OH265214   4.024   2.345   4.731  0.3110  0.2557 -0.4244
14600TIP3    H165215   4.085   2.407   4.691 -1.0989  0.7237 -1.9449
14600TIP3    H265216   4.053   2.259   4.700  1.5519  0.2168  0.7387
14601TIP3   OH265217   0.924   2.831  11.191 -0.0659 -0.0698  0.2112
14601TIP3    H165218   1.012   2.860  11.214  0.1837 -0.4477 -0.2371
14601TIP3    H265219   0.872   2.911  11.189  0.1699  0.1031  0.8985
14602TIP3   OH265220   5.210   5.410  15.109 -0.0221  0.4244 -0.2954
14602TIP3    H165221   5.299   5.385  15.085 -0.2374  0.3642 -1.0653
14602TIP3    H265222   5.183   5.343  15.172 -0.0469 -0.4174 -1.1779
14603TIP3   OH265223   5.128   6.234   5.641 -0.3812 -0.3863 -0.3388
14603TIP3    H165224   5.220   6.214   5.621 -0.7521 -1.9810 -0.5555
14603TIP3    H265225   5.115   6.203   5.730 -0.3476  1.2085  0.2581
14604TIP3   OH265226   1.321   0.166  11.037 -0.2826  0.3975 -0.4255
14604TIP3    H165227   1.256   0.104  11.005  1.3953 -1.6156 -0.1187
14604TIP3    H265228   1.291   0.188  11.125 -0.8206 -0.1085 -0.4778
14605TIP3   OH265229   2.233   4.244   4.560 -0.4144 -0.1687 -0.2667
14605TIP3    H165230   2.317   4.206   4.533 -0.2274 -0.3209  0.4914
14605TIP3    H265231   2.181   4.247   4.480  0.0773 -0.6994 -0.6171
14606TIP3   OH265232   1.170   4.250   3.894  0.4746 -0.1933 -0.0590
14606TIP3    H165233   1.205   4.194   3.963 -0.0822 -0.9020 -0.3394
14606TIP3    H265234   1.245   4.265   3.836  0.6883 -0.4376  0.1527
14607TIP3   OH265235   3.563   3.256   2.825 -0.2681 -0.3596 -0.1819
14607TIP3    H165236   3.543   3.295   2.911  0.8480 -3.4657  1.6333
14607TIP3    H265237   3.486   3.204   2.804 -0.6006  0.5073 -1.2246
14608TIP3   OH265238   1.100   1.364  12.154 -0.6687 -0.0598 -0.7091
14608TIP3    H165239   1.055   1.405  12.227 -1.9173 -0.9327 -0.9592
14608TIP3    H265240   1.133   1.437  12.102 -2.5809  0.6461 -0.9825
14609TIP3   OH265241   6.364   1.476  13.895  0.3165 -0.3271 -0.1470
14609TIP3    H165242   6.370   1.522  13.979  1.1269  0.3665 -0.5650
14609TIP3    H265243   6.291   1.416  13.906 -0.1160  0.3331  0.7757
14610TIP3   OH265244   5.639   2.735  13.830 -0.2193  0.2683  0.4413
14610TIP3    H165245   5.719   2.717  13.880 -1.2432 -1.2404  1.6493
14610TIP3    H265246   5.575   2.675  13.867 -1.4894  0.2709 -1.6387
14611TIP3   OH265247   6.125   3.587   3.819 -0.0283 -0.0296 -0.4558
14611TIP3    H165248   6.194   3.523   3.802  0.2566  0.0804  0.2506
14611TIP3    H265249   6.044   3.536   3.823  0.2835 -0.4677  0.8128
14612TIP3   OH265250   3.584   3.790   6.062  0.5795 -0.3924 -0.2907
14612TIP3    H165251   3.536   3.751   5.988  0.1632 -1.7170  0.6327
14612TIP3    H265252   3.524   3.855   6.098  0.9524  0.5682 -1.3609
14613TIP3   OH265253   5.562   2.225  16.571  0.5208  0.3063 -0.4165
14613TIP3    H165254   5.511   2.241  16.492  0.5911  0.3494 -0.4533
14613TIP3    H265255   5.652   2.214  16.539  0.4293 -0.4787 -0.4281
14614TIP3   OH265256   4.338   5.722  17.099 -0.4690 -0.0950  0.0882
14614TIP3    H165257   4.374   5.702  17.186  1.0282  1.4783 -0.1078
14614TIP3    H265258   4.260   5.774  17.117  0.3330  0.9886  0.5148
14615TIP3   OH265259   4.000   2.243  15.021  0.1053  0.1171  0.5181
14615TIP3    H165260   4.013   2.230  14.927 -1.9321  0.3573  0.1532
14615TIP3    H265261   4.040   2.167  15.062  0.9967 -0.0075 -0.5352
14616TIP3   OH265262   4.469   3.075   2.340 -0.0856  0.1694  0.3411
14616TIP3    H165263   4.376   3.073   2.316  0.0185 -2.3033 -0.1915
14616TIP3    H265264   4.484   2.990   2.381  1.4978  1.3637  2.4043
14617TIP3   OH265265   1.603   5.719  16.658 -0.0745  0.0764  0.1064
14617TIP3    H165266   1.654   5.770  16.721 -1.4641  0.3459  1.0408
14617TIP3    H265267   1.515   5.756  16.662 -0.4983 -0.7463 -1.0718
14618TIP3   OH265268   5.608   4.724  12.698  0.1606 -0.0934 -0.5146
14618TIP3    H165269   5.544   4.794  12.688 -0.1714 -0.2554  0.3735
14618TIP3    H265270   5.670   4.758  12.763  0.1708 -0.4968 -0.3132
14619TIP3   OH265271   0.160   5.156   6.244 -0.1684  0.1583  0.1605
14619TIP3    H165272   0.172   5.062   6.253 -0.5613  0.1947  1.2912
14619TIP3    H265273   0.219   5.182   6.173 -0.7952 -1.0742 -0.8280
14620TIP3   OH265274   6.024   5.575   6.313  0.1530  0.1972  0.2251
14620TIP3    H165275   5.936   5.587   6.276  0.5832 -0.5894 -1.1421
14620TIP3    H265276   6.069   5.658   6.295  0.3585 -0.1710 -1.1080
14621TIP3   OH265277   0.123   1.996   3.183  0.3802  0.0496  0.2653
14621TIP3    H165278   0.060   2.023   3.250  2.3591  0.2606  2.1579
14621TIP3    H265279   0.120   2.066   3.118  0.1318  1.0818  1.3577
14622TIP3   OH265280   3.004   3.164   1.471 -0.0186  0.1170  0.1860
14622TIP3    H165281   3.071   3.170   1.403  0.5726 -1.7272  0.5447
14622TIP3    H265282   2.923   3.149   1.422  0.4343 -1.4023 -0.1572
14623TIP3   OH265283   3.999   6.649  11.389 -0.4916 -0.4619 -0.0918
14623TIP3    H165284   4.057   6.584  11.428 -2.1697 -1.6934  0.4544
14623TIP3    H265285   4.047   6.681  11.312  0.8885 -1.4305  0.3334
14624TIP3   OH265286   0.028   4.744   4.881 -0.6748  0.3558  0.7484
14624TIP3    H165287   0.007   4.670   4.938 -2.0240  0.7108  0.7547
14624TIP3    H265288   0.118   4.728   4.853 -1.2858 -1.9267 -0.1886
14625TIP3   OH265289   3.597   5.041   5.764  0.6385  0.1486 -0.3842
14625TIP3    H165290   3.530   5.108   5.752  1.3819  0.6590 -2.0376
14625TIP3    H265291   3.657   5.077   5.829 -0.4290 -0.1345  0.7998
14626TIP3   OH265292   4.777   2.354  13.899 -0.1788  0.0284  0.0346
14626TIP3    H165293   4.780   2.272  13.848  2.6966 -0.4705  0.8035
14626TIP3    H265294   4.860   2.398  13.877  0.9566  0.0557  3.7730
14627TIP3   OH265295   2.519   5.641  15.719 -0.7856 -0.5777 -0.2137
14627TIP3    H165296   2.550   5.667  15.632  0.8168 -3.4746 -0.6365
14627TIP3    H265297   2.489   5.723  15.759  2.6165  1.6859 -1.7824
14628TIP3   OH265298   0.724   2.596  13.572 -0.0486  0.1586 -0.1867
14628TIP3    H165299   0.636   2.577  13.604 -0.6633  0.2504 -1.7227
14628TIP3    H265300   0.712   2.672  13.514  1.4936  1.9806  1.7478
14629TIP3   OH265301   3.380   4.360   0.692 -0.1192 -0.6274  0.0972
14629TIP3    H165302   3.467   4.320   0.695  1.4361  2.4883  0.6129
14629TIP3    H265303   3.381   4.426   0.762 -2.2297  0.7369 -1.0405
14630TIP3   OH265304   6.022   5.140   1.872 -0.1610 -0.1697 -0.5212
14630TIP3    H165305   5.942   5.168   1.917 -0.6454  0.8003 -1.9285
14630TIP3    H265306   6.068   5.087   1.937 -0.5652  1.6085  1.3282
14631TIP3   OH265307   2.254   6.526   2.182  0.0399 -0.2237  0.0333
14631TIP3    H165308   2.327   6.516   2.243 -1.6672 -1.9517  1.9106
14631TIP3    H265309   2.217   6.439   2.172 -1.6261  0.5403 -1.0949
14632TIP3   OH265310   0.958   2.184   2.594 -0.6920  0.1566  0.0257
14632TIP3    H165311   0.953   2.235   2.675  1.7723  2.5446 -1.1733
14632TIP3    H265312   1.034   2.126   2.607 -1.0589 -0.3597 -0.1156
14633TIP3   OH265313   1.741   5.893   6.604  0.2840 -0.2211  0.0841
14633TIP3    H165314   1.758   5.848   6.687 -0.3032 -1.0607 -0.2476
14633TIP3    H265315   1.819   5.947   6.590  0.8022 -0.7959  0.7096
14634TIP3   OH265316   5.866   0.857   5.570 -0.0638 -0.7561 -0.5651
14634TIP3    H165317   5.959   0.859   5.546  0.1549  2.4843  0.1531
14634TIP3    H265318   5.855   0.930   5.631 -2.8113 -2.0142  0.6330
14635TIP3   OH265319   1.057   1.900   3.284 -0.5003 -0.1543  0.7789
14635TIP3    H165320   1.071   1.968   3.219 -0.2168 -1.3691 -0.4757
14635TIP3    H265321   1.102   1.823   3.249  0.3102 -0.6678  2.7646
14636TIP3   OH265322   0.255   3.370  14.623  0.4421  0.2232 -0.5920
14636TIP3    H165323   0.176   3.335  14.665  0.0234  2.0378  0.2359
14636TIP3    H265324   0.311   3.396  14.695  1.2401  0.1691 -1.1802
14637TIP3   OH265325   1.934   2.085  16.829 -0.1544  0.4057  0.4427
14637TIP3    H165326   2.020   2.111  16.864  0.3954 -0.4095 -0.2554
14637TIP3    H265327   1.923   2.138  16.750 -0.8921  1.4351  1.2060
14638TIP3   OH265328   1.389   2.283  14.559 -0.6867 -0.9977 -0.0282
14638TIP3    H165329   1.462   2.232  14.525 -1.3255 -1.1724 -1.1659
14638TIP3    H265330   1.430   2.347  14.617  0.7543  0.9783 -3.0026
14639TIP3   OH265331   2.010   4.330   4.739  0.4076 -0.6191  0.1237
14639TIP3    H165332   1.944   4.261   4.734 -2.0957  1.6810 -0.9180
14639TIP3    H265333   2.085   4.295   4.691 -1.4462 -1.9385 -1.9910
14640TIP3   OH265334   1.400   1.556   5.464 -0.2619 -0.5630 -0.4503
14640TIP3    H165335   1.331   1.610   5.427  0.4979 -1.1231 -2.8947
14640TIP3    H265336   1.360   1.513   5.539 -2.0902  0.2446 -0.9143
14641TIP3   OH265337   1.371   6.166  16.624 -0.4260 -0.0254  0.2362
14641TIP3    H165338   1.464   6.180  16.638 -0.1993  0.3472 -1.4043
14641TIP3    H265339   1.334   6.254  16.619 -0.7121 -0.1535  0.0447
14642TIP3   OH265340   0.009   4.445  13.346 -0.4031 -0.0659 -0.1629
14642TIP3    H165341   0.062   4.486  13.414 -0.5324 -0.7260  0.3443
14642TIP3    H265342   0.021   4.351  13.359 -1.4374 -0.2251 -0.2421
14643TIP3   OH265343   1.072   0.544  13.332 -0.3729 -0.5013  0.2839
14643TIP3    H165344   1.066   0.616  13.270 -0.9313  0.4565  1.4002
14643TIP3    H265345   1.080   0.465  13.278 -3.0813  0.0470 -1.1071
14644TIP3   OH265346   4.178   5.072   0.862 -0.1562  0.1670  0.9254
14644TIP3    H165347   4.144   5.157   0.834  1.3801  0.5524  0.1288
14644TIP3    H265348   4.270   5.089   0.881  0.5578 -1.6066 -0.6863
14645TIP3   OH265349   1.061   3.823   0.065  0.0743  0.2382 -0.3445
14645TIP3    H165350   0.996   3.856   0.003 -0.2949  0.5208  0.1840
14645TIP3    H265351   1.139   3.808   0.012 -0.0725  0.9717 -0.7852
14646TIP3   OH265352   4.439   6.147  15.209  0.0487  0.1574 -0.4188
14646TIP3    H165353   4.401   6.223  15.164  0.2203  0.1090 -0.6464
14646TIP3    H265354   4.372   6.079  15.201  0.0582  0.1643 -0.5593
14647TIP3   OH265355   1.502   5.887  16.327  0.5555 -0.2824 -0.3772
14647TIP3    H165356   1.463   5.858  16.245  0.0016  0.6149 -0.4495
14647TIP3    H265357   1.554   5.812  16.357 -1.0045 -1.4227 -0.4139
14648TIP3   OH265358   4.681   6.679  16.781 -0.0111  0.2428  0.1240
14648TIP3    H165359   4.622   6.630  16.838  1.5163  0.5678  2.0899
14648TIP3    H265360   4.624   6.723  16.719 -1.6372 -1.4593  0.3259
14649TIP3   OH265361   5.538   3.269  13.659 -0.0571  0.1011  0.2459
14649TIP3    H165362   5.496   3.276  13.573  1.0894  0.3592 -0.3181
14649TIP3    H265363   5.479   3.214  13.710  0.4601 -2.2516 -1.5090
14650TIP3   OH265364   4.920   3.954  15.866 -0.2909 -0.2998  0.0992
14650TIP3    H165365   4.965   4.011  15.803 -0.4970 -0.9946 -0.6875
14650TIP3    H265366   4.827   3.964  15.846 -0.6315  1.7054  2.1971
14651TIP3   OH265367   2.728   1.792   5.959 -0.3031 -0.0172  0.0928
14651TIP3    H165368   2.732   1.886   5.976 -1.2330  0.1723 -0.6527
14651TIP3    H265369   2.793   1.776   5.891 -0.5020  0.1791 -0.1448
14652TIP3   OH265370   3.880   3.096   3.127  0.0208  0.3807  0.0355
14652TIP3    H165371   3.972   3.075   3.111  0.0595 -1.0314  1.7806
14652TIP3    H265372   3.839   3.095   3.041  1.8375  2.3486 -0.9645
14653TIP3   OH265373   5.781   6.483  11.177  0.0615  0.1276 -0.1597
14653TIP3    H165374   5.819   6.395  11.181 -0.3030  0.0104  1.0017
14653TIP3    H265375   5.807   6.516  11.091 -0.7875 -1.5643 -1.1242
14654TIP3   OH265376   1.991   0.960   0.004  0.8858 -0.5347  0.2682
14654TIP3    H165377   2.010   0.928   0.092  0.7651 -0.0940  0.4608
14654TIP3    H265378   1.918   1.021   0.017  3.0272  2.2413  0.4334
14655TIP3   OH265379   0.969   0.793  13.251  0.0846  0.4191  0.2010
14655TIP3    H165380   1.033   0.834  13.309  0.7226  0.1626 -0.2996
14655TIP3    H265381   0.937   0.865  13.196 -0.7550  0.7211  1.0618
14656TIP3   OH265382   3.282   1.193   2.685  0.1818  0.1467  0.1646
14656TIP3    H165383   3.312   1.157   2.768 -0.3209 -0.7535 -0.0318
14656TIP3    H265384   3.236   1.273   2.709 -0.0680 -0.1740  0.7730
14657TIP3   OH265385   0.668   1.984  16.452  0.0006  0.2747 -0.6007
14657TIP3    H165386   0.762   1.998  16.441  0.3549 -0.4493  1.2099
14657TIP3    H265387   0.660   1.890  16.466 -0.6559  0.6236  1.8423
14658TIP3   OH265388   0.876   3.803   3.336 -0.3284 -0.0316  0.2934
14658TIP3    H165389   0.899   3.806   3.243 -0.4348  0.8808  0.2872
14658TIP3    H265390   0.820   3.880   3.350  0.7588  0.6002  1.3828
14659TIP3   OH265391   0.018   2.196   5.649 -0.3505  0.1589  0.6001
14659TIP3    H165392   0.072   2.269   5.680 -0.7259  1.0827 -0.8097
14659TIP3    H265393   0.079   2.122   5.645  0.0910  0.4281  1.8496
14660TIP3   OH265394   4.500   2.682  15.505  0.5029  0.1614 -0.0775
14660TIP3    H165395   4.458   2.666  15.420  0.6085  0.2818 -0.1530
14660TIP3    H265396   4.444   2.638  15.568  0.7447 -0.4380 -0.2746
14661TIP3   OH265397   6.587   0.214  10.918 -0.4262  0.3682  0.0416
14661TIP3    H165398   6.529   0.261  10.858 -0.7612 -0.3120 -0.1710
14661TIP3    H265399   6.657   0.277  10.937 -1.5246  1.4214  0.7819
14662TIP3   OH265400   6.336   1.405   1.519 -0.1744 -0.2673 -0.2163
14662TIP3    H165401   6.310   1.325   1.473 -0.8890  0.1703 -0.6045
14662TIP3    H265402   6.257   1.432   1.566  0.0016  0.3089 -0.2441
14663TIP3   OH265403   4.007   3.716   0.119  0.1859 -0.3654  0.3211
14663TIP3    H165404   4.028   3.653   0.188  2.2860 -0.9567 -0.7698
14663TIP3    H265405   4.004   3.664   0.039  2.5779  0.9337 -0.7008
14664TIP3   OH265406   3.256   4.261  14.513  0.2042 -0.1834  0.2579
14664TIP3    H165407   3.224   4.334  14.460 -0.8272 -1.0916 -0.3989
14664TIP3    H265408   3.339   4.236  14.471  0.3976  0.3928  0.2916
14665TIP3   OH265409   4.423   1.375   3.052 -0.3649  0.0468 -0.3837
14665TIP3    H165410   4.437   1.281   3.042 -1.1750 -0.0927 -0.3122
14665TIP3    H265411   4.499   1.416   3.011  1.1330 -0.6577  1.5453
14666TIP3   OH265412   4.520   3.912  16.410 -0.1454 -0.6748  0.0476
14666TIP3    H165413   4.551   3.952  16.328  1.6899  1.3774  1.6168
14666TIP3    H265414   4.556   3.824  16.409 -0.5135 -0.8408 -1.5122
14667TIP3   OH265415   2.811   3.746   1.981  1.2242 -0.6221 -0.3067
14667TIP3    H165416   2.902   3.718   1.972  0.8082 -3.4324  2.6119
14667TIP3    H265417   2.768   3.714   1.901  2.4323 -0.6498 -0.9736
14668TIP3   OH265418   4.405   1.040  11.307 -0.2521  0.4868  0.4568
14668TIP3    H165419   4.421   1.120  11.258 -0.6340  0.4171  0.2165
14668TIP3    H265420   4.478   1.035  11.369 -0.6877  1.4769  1.0768
14669TIP3   OH265421   4.735   3.088  16.844  0.5512 -0.1629  0.5259
14669TIP3    H165422   4.726   3.006  16.795 -0.4069  0.6844 -0.7496
14669TIP3    H265423   4.816   3.126  16.811  1.2443 -0.7880  1.4515
14670TIP3   OH265424   1.245   1.911   4.981 -0.2877  0.0154  0.0449
14670TIP3    H165425   1.278   1.895   5.069  1.9959  1.6765 -0.4041
14670TIP3    H265426   1.155   1.943   4.995  0.3325  1.1570  1.8744
14671TIP3   OH265427   5.858   1.764  12.243  0.7699 -0.6690 -0.1908
14671TIP3    H165428   5.801   1.687  12.251  0.4444 -0.7533 -2.5337
14671TIP3    H265429   5.845   1.812  12.324 -0.3383 -2.2056  0.6074
14672TIP3   OH265430   2.493   5.952   1.528  0.1962 -0.2117  0.3808
14672TIP3    H165431   2.436   5.876   1.535  0.5125 -0.6586 -1.3519
14672TIP3    H265432   2.581   5.918   1.548  0.3039 -0.2591 -0.1579
14673TIP3   OH265433   2.350   4.654   3.984  0.0424  0.3650  0.0712
14673TIP3    H165434   2.407   4.658   3.907  0.0637  0.1715  0.0757
14673TIP3    H265435   2.379   4.727   4.039  0.3019  0.2549  0.0829
14674TIP3   OH265436   0.898   5.382  13.569  0.3067 -0.0366  0.2224
14674TIP3    H165437   0.921   5.413  13.656 -2.8776 -0.2214  1.2387
14674TIP3    H265438   0.896   5.461  13.515 -1.0373  0.5930  1.1616
14675TIP3   OH265439   4.801   2.266  14.486  0.2866 -0.7368  0.0881
14675TIP3    H165440   4.805   2.350  14.441  0.5244 -1.1578 -0.6781
14675TIP3    H265441   4.892   2.240  14.499  0.2594 -0.0827  1.8508
14676TIP3   OH265442   4.074   5.114   0.369  0.0155  0.4052  0.3635
14676TIP3    H165443   4.134   5.057   0.417 -0.5786  0.6868  1.4748
14676TIP3    H265444   4.061   5.070   0.285 -0.9489 -1.4606  1.4277
14677TIP3   OH265445   4.342   2.958   5.223 -0.0572  0.2017  0.0038
14677TIP3    H165446   4.397   3.034   5.204 -0.1345  0.1325 -0.5127
14677TIP3    H265447   4.397   2.902   5.278  0.5947 -0.1053 -0.9209
14678TIP3   OH265448   5.794   6.130   5.595 -0.0871  0.3058 -0.2759
14678TIP3    H165449   5.856   6.195   5.560  0.0866  1.8706  2.6175
14678TIP3    H265450   5.759   6.171   5.674 -1.5750 -2.3408  0.5507
14679TIP3   OH265451   2.969   6.543  13.040  0.3901 -0.6232  0.2079
14679TIP3    H165452   2.882   6.579  13.054  0.4539 -0.3059 -0.1791
14679TIP3    H265453   3.026   6.594  13.098  0.4686 -0.1319 -0.2843
14680TIP3   OH265454   3.725   2.937   4.304 -0.0285  0.2601  0.3618
14680TIP3    H165455   3.664   3.007   4.326 -0.9881  0.3656 -2.3167
14680TIP3    H265456   3.706   2.915   4.213  1.6042 -2.1233  0.4813
14681TIP3   OH265457   5.900   6.441   2.622 -0.3580 -0.6949  0.4762
14681TIP3    H165458   5.911   6.514   2.683  0.0484  0.7887 -1.2979
14681TIP3    H265459   5.849   6.477   2.549 -1.6982 -2.6846  0.3342
14682TIP3   OH265460   5.467   6.662   3.233 -0.2355  0.5792 -0.1817
14682TIP3    H165461   5.559   6.649   3.257 -0.4997 -0.7236  0.2241
14682TIP3    H265462   5.424   6.685   3.315 -0.7523 -1.7120  0.2692
14683TIP3   OH265463   3.098   6.012   0.593 -0.0580  0.5310 -0.1084
14683TIP3    H165464   3.066   5.960   0.667  0.4407 -0.1626 -0.3664
14683TIP3    H265465   3.027   6.011   0.530  0.1496 -0.3386 -0.3490
14684TIP3   OH265466   4.174   1.486   2.968  0.2450 -0.0923 -0.0674
14684TIP3    H165467   4.176   1.558   2.905 -0.4472 -0.4613 -0.5288
14684TIP3    H265468   4.264   1.477   2.999  0.2076  1.4761  0.5811
14685TIP3   OH265469   6.693   6.081   5.546  0.6999 -0.0750 -0.0404
14685TIP3    H165470   6.658   6.071   5.634  0.0304  1.8062 -0.0432
14685TIP3    H265471   6.677   5.997   5.504  0.3003 -0.7302  1.3765
14686TIP3   OH265472   1.513   1.973  15.794  0.2175  0.4939  0.6583
14686TIP3    H165473   1.420   1.981  15.777  0.4663  2.1982 -0.1037
14686TIP3    H265474   1.552   1.951  15.709  0.6682  1.5448  0.5693
14687TIP3   OH265475   4.238   5.510   1.528 -0.0513 -0.0230 -0.2894
14687TIP3    H165476   4.332   5.503   1.545  0.0370  2.9228  0.8452
14687TIP3    H265477   4.210   5.591   1.571 -2.9989 -0.4223 -1.1766
14688TIP3   OH265478   0.813   0.968  11.542  0.1369  0.0739  0.2462
14688TIP3    H165479   0.724   0.944  11.570  0.8260  0.6497  3.2788
14688TIP3    H265480   0.800   1.046  11.488 -1.2317 -0.1830  0.1520
14689TIP3   OH265481   5.727   4.222   3.039  0.0016 -0.0474  0.5148
14689TIP3    H165482   5.671   4.173   2.978  1.2246  0.0907 -0.7505
14689TIP3    H265483   5.814   4.185   3.029  0.8309  1.8917  0.0386
14690TIP3   OH265484   2.319   3.580  13.100 -0.2144  0.6106 -0.3466
14690TIP3    H165485   2.304   3.552  13.010  0.1977  0.2901 -0.3194
14690TIP3    H265486   2.232   3.585  13.138 -0.2811 -2.0425  0.0594
14691TIP3   OH265487   1.425   3.965  16.316 -0.4161  0.0616 -0.5670
14691TIP3    H165488   1.332   3.968  16.337 -0.3219  0.6920 -0.2127
14691TIP3    H265489   1.440   4.040  16.259 -0.2169 -0.3218 -1.0304
14692TIP3   OH265490   3.323   2.720   4.721 -0.4006  0.4385  0.1947
14692TIP3    H165491   3.415   2.727   4.696 -0.3928  2.1820  0.5656
14692TIP3    H265492   3.314   2.777   4.797 -1.7799  0.2309  0.2189
14693TIP3   OH265493   3.072   4.555   0.560  0.0494 -0.0467  0.3548
14693TIP3    H165494   3.080   4.461   0.546 -1.4057 -0.0056 -1.1914
14693TIP3    H265495   3.074   4.566   0.655  1.0019 -1.5407  0.5391
14694TIP3   OH265496   4.059   5.873  13.357 -0.0872 -0.1153 -0.0888
14694TIP3    H165497   3.969   5.879  13.325 -0.5429 -1.3800  0.8489
14694TIP3    H265498   4.050   5.840  13.447  1.2572  1.0639  0.5139
14695TIP3   OH265499   1.651   6.745   2.601 -0.2590  0.0095 -0.4152
14695TIP3    H165500   1.561   6.775   2.612  0.3563  1.3257  1.8065
14695TIP3    H265501   1.647   6.651   2.614 -1.2045  0.1973  0.9748
14696TIP3   OH265502   3.683   0.131   4.721  0.4292  0.6638 -0.0523
14696TIP3    H165503   3.599   0.170   4.746  0.3598  0.9393 -0.6861
14696TIP3    H265504   3.663   0.038   4.709  1.0168 -0.0680  3.4483
14697TIP3   OH265505   5.804   0.918  14.522 -0.1441 -0.2470  0.3155
14697TIP3    H165506   5.722   0.903  14.475  0.1914  0.9926 -0.7241
14697TIP3    H265507   5.865   0.856  14.483 -0.5235 -1.0615  0.9829
14698TIP3   OH265508   1.142   4.350   3.481 -0.1671 -0.2175 -0.2812
14698TIP3    H165509   1.155   4.289   3.408 -3.1005 -0.1147 -1.0066
14698TIP3    H265510   1.069   4.406   3.453  1.4626  2.7481  0.9692
14699TIP3   OH265511   2.272   0.418  13.339 -0.6914 -0.0630 -0.5394
14699TIP3    H165512   2.313   0.344  13.384 -1.2904 -0.2421 -0.2736
14699TIP3    H265513   2.323   0.494  13.367  0.2539 -0.4347 -1.2291
14700TIP3   OH265514   5.180   2.413   3.733 -0.0234 -0.6350 -0.3377
14700TIP3    H165515   5.092   2.382   3.756 -0.3399  0.2240 -0.3635
14700TIP3    H265516   5.213   2.348   3.671 -0.9051 -0.6183 -0.8441
14701TIP3   OH265517   3.899   2.978   0.917 -0.5033  0.0264 -0.6480
14701TIP3    H165518   3.839   2.975   0.991 -0.9808 -3.1967 -1.0242
14701TIP3    H265519   3.843   2.989   0.840  0.0094  3.7156 -0.7072
14702TIP3   OH265520   0.319   4.484  12.364  0.0668  0.4036 -0.6765
14702TIP3    H165521   0.269   4.559  12.397 -1.5645 -0.8334 -0.1852
14702TIP3    H265522   0.377   4.459  12.436 -0.7506  0.0531 -0.1232
14703TIP3   OH265523   1.422   6.631  17.201 -0.2865 -0.1435 -0.2613
14703TIP3    H165524   1.509   6.651  17.237 -0.0090  0.0872 -1.0482
14703TIP3    H265525   1.413   6.536  17.213 -0.5353  0.0310  1.1268
14704TIP3   OH265526   2.203   3.034  16.211 -0.2371  0.4598  0.5488
14704TIP3    H165527   2.252   3.086  16.148  0.2572 -0.4328  0.1678
14704TIP3    H265528   2.242   3.055  16.296  0.3914  0.2375  0.3220
14705TIP3   OH265529   5.173   6.268   3.425 -0.2927  0.3529 -0.2097
14705TIP3    H165530   5.113   6.197   3.445 -0.1106 -0.1241 -1.2820
14705TIP3    H265531   5.122   6.348   3.441 -0.9698 -0.0363 -0.4095
14706TIP3   OH265532   2.251   3.533  14.468 -0.3671 -0.3623  0.0071
14706TIP3    H165533   2.330   3.528  14.414  0.3311 -3.0572  1.1276
14706TIP3    H265534   2.281   3.508  14.556 -2.7627 -3.9207  0.0128
14707TIP3   OH265535   5.852   3.810   6.185  0.2998  0.2439  0.1048
14707TIP3    H165536   5.797   3.735   6.205  0.3739  0.2155  0.1974
14707TIP3    H265537   5.934   3.794   6.231 -0.6461  1.7360  2.4920
14708TIP3   OH265538   5.275   1.300  16.622 -0.3866 -0.0359 -0.5721
14708TIP3    H165539   5.334   1.243  16.671 -1.9638  0.1802  1.7470
14708TIP3    H265540   5.314   1.386  16.628 -0.0825 -0.1778 -0.5073
14709TIP3   OH265541   3.572   6.155   5.007  0.5708 -0.0707  0.5190
14709TIP3    H165542   3.490   6.184   5.046 -0.0860 -0.3651 -0.5852
14709TIP3    H265543   3.550   6.071   4.966  1.3691 -0.0431  0.0185
14710TIP3   OH265544   4.377   5.406   0.738  0.0180 -0.2757 -0.4925
14710TIP3    H165545   4.342   5.487   0.776 -0.9625 -0.2977 -1.2886
14710TIP3    H265546   4.472   5.417   0.741 -0.0929  1.3650 -1.5008
14711TIP3   OH265547   0.873   5.115   5.173  1.1061  0.0470  0.1598
14711TIP3    H165548   0.778   5.129   5.170  1.1787  1.0536  1.6474
14711TIP3    H265549   0.910   5.200   5.151  1.7360 -0.8156 -2.4476
14712TIP3   OH265550   2.910   2.177   5.515 -0.2684 -0.3375 -0.1203
14712TIP3    H165551   2.949   2.161   5.601 -1.5162 -0.6256  0.4159
14712TIP3    H265552   2.951   2.113   5.457  0.1777 -0.5125  0.3829
14713TIP3   OH265553   6.578   4.537   2.763 -0.3323 -0.2944 -0.1282
14713TIP3    H165554   6.604   4.445   2.755  0.0606 -0.1628 -0.3958
14713TIP3    H265555   6.635   4.573   2.831  0.9378  0.2584 -1.4441
14714TIP3   OH265556   1.113   4.254   5.159  0.0248 -0.4161 -0.4817
14714TIP3    H165557   1.141   4.193   5.226  1.6719  1.5840  0.7868
14714TIP3    H265558   1.027   4.284   5.188  0.2765 -0.3447  0.2203
14715TIP3   OH265559   3.357   6.472   6.067 -0.6124 -0.0688  0.2610
14715TIP3    H165560   3.447   6.440   6.072 -0.4853  0.4470  1.7342
14715TIP3    H265561   3.366   6.567   6.059 -1.0379 -0.0535 -0.1096
14716TIP3   OH265562   5.578   1.050   2.558 -0.0149 -0.1037  0.3698
14716TIP3    H165563   5.598   1.039   2.651 -0.8439  0.5954  0.6424
14716TIP3    H265564   5.656   1.017   2.512  0.9781  0.8430  1.3364
14717TIP3   OH265565   4.793   5.341   1.693  0.1768 -0.2321 -0.0609
14717TIP3    H165566   4.863   5.388   1.737  1.6016 -3.0547  0.9165
14717TIP3    H265567   4.829   5.254   1.676 -2.7951 -1.5212 -0.3448
14718TIP3   OH265568   0.182   3.032  11.529  0.0425 -0.4223  0.8239
14718TIP3    H165569   0.176   3.027  11.434 -0.9035 -0.5683  0.8780
14718TIP3    H265570   0.231   2.953  11.554  1.2004  0.1440  0.3999
14719TIP3   OH265571   6.078   3.622  17.000 -0.1281 -0.0302  0.0154
14719TIP3    H165572   6.117   3.701  16.962 -0.4936  0.9229  1.5594
14719TIP3    H265573   6.133   3.602  17.075 -0.9190 -0.3511  0.5166
14720TIP3   OH265574   5.347   3.144  13.815 -0.6509  0.2605  0.2843
14720TIP3    H165575   5.344   3.180  13.904 -0.7981 -0.3477  0.5285
14720TIP3    H265576   5.262   3.167  13.777  0.0431  2.0072 -0.3008
14721TIP3   OH265577   3.032   2.531  10.779  0.3006  0.4829 -0.3504
14721TIP3    H165578   3.064   2.461  10.723 -3.5057 -0.8110 -1.1893
14721TIP3    H265579   2.994   2.486  10.855 -0.4841  1.7599  0.0548
14722TIP3   OH265580   6.480   3.156  13.611 -0.0327 -0.3120  0.1498
14722TIP3    H165581   6.471   3.246  13.578  1.0688 -0.3248 -0.2484
14722TIP3    H265582   6.428   3.103  13.551 -1.5190  0.1583  0.9777
14723TIP3   OH265583   0.216   0.205  11.955 -0.2446 -0.1013 -0.2937
14723TIP3    H165584   0.132   0.250  11.961  0.0383  0.2803  1.2780
14723TIP3    H265585   0.276   0.271  11.921 -0.4866 -0.2484 -1.0152
14724TIP3   OH265586   4.766   0.594  12.604 -0.2513 -0.6216  0.1098
14724TIP3    H165587   4.687   0.615  12.556 -0.0862 -0.6174 -0.1601
14724TIP3    H265588   4.837   0.626  12.549 -0.0160 -1.4318 -0.0604
14725TIP3   OH265589   3.251   2.564  11.916  0.3063 -0.0312  0.1230
14725TIP3    H165590   3.269   2.629  11.985  0.4070  0.1286 -0.0502
14725TIP3    H265591   3.156   2.568  11.904  0.4274  0.9205 -0.6850
14726TIP3   OH265592   5.787   6.098  15.629 -0.2602 -0.5089  0.5192
14726TIP3    H165593   5.732   6.022  15.611 -1.6313  0.4155  0.6688
14726TIP3    H265594   5.837   6.111  15.548 -2.4810  0.4181 -0.7821
14727TIP3   OH265595   6.435   5.771  11.748  0.0997 -0.6939  0.1102
14727TIP3    H165596   6.531   5.769  11.754  0.2306 -2.2978 -1.6489
14727TIP3    H265597   6.417   5.795  11.657 -1.1926 -0.4164  0.4158
14728TIP3   OH265598   3.348   4.532  16.493 -0.1347  0.1082 -0.4566
14728TIP3    H165599   3.331   4.440  16.508  0.6260 -0.0899 -0.7635
14728TIP3    H265600   3.262   4.571  16.481 -0.4713 -0.5231 -0.1079
14729TIP3   OH265601   4.941   0.877   0.393  0.2730 -0.2623  0.2244
14729TIP3    H165602   4.965   0.854   0.482 -1.4652  0.8161  1.0226
14729TIP3    H265603   4.989   0.814   0.338  1.2114 -1.0711  1.9094
14730TIP3   OH265604   4.908   0.053  16.897 -0.5486 -0.2741 -0.2867
14730TIP3    H165605   4.844   0.019  16.835 -0.4113  0.5861 -0.9174
14730TIP3    H265606   4.982  -0.008  16.892  0.1636  0.6767 -2.2365
14731TIP3   OH265607   3.715   0.317   1.401 -0.1106 -0.2191  0.3918
14731TIP3    H165608   3.709   0.368   1.320 -1.4469  0.4801  0.9117
14731TIP3    H265609   3.672   0.371   1.467 -1.0322 -1.7401  1.0885
14732TIP3   OH265610   6.751   5.401   6.234 -0.5735 -0.2278  0.8925
14732TIP3    H165611   6.762   5.495   6.219 -0.5605 -0.1337  1.4488
14732TIP3    H265612   6.679   5.376   6.176  1.3567 -0.5024 -1.5257
14733TIP3   OH265613   0.477   1.058   3.533 -1.1367  0.3134 -0.2073
14733TIP3    H165614   0.459   1.027   3.621 -1.3282  0.1099 -0.3186
14733TIP3    H265615   0.532   1.135   3.546 -0.7610  0.0028  0.0723
14734TIP3   OH265616   3.520   4.037   4.354 -0.6797  0.1474  0.2205
14734TIP3    H165617   3.540   4.082   4.436 -2.0503  1.8308 -0.3183
14734TIP3    H265618   3.434   3.998   4.368  0.0649 -1.5468  0.3323
14735TIP3   OH265619   1.485   3.238   3.389  0.0863 -0.0843 -0.2504
14735TIP3    H165620   1.492   3.250   3.294 -1.1778  1.5007 -0.1780
14735TIP3    H265621   1.516   3.321   3.426 -1.9780  0.3500  0.6038
14736TIP3   OH265622   6.682   2.062  15.403 -0.3677 -0.5378 -0.2443
14736TIP3    H165623   6.717   2.035  15.488 -1.4494  1.7348  0.9902
14736TIP3    H265624   6.746   2.124  15.369 -1.8973  1.7813  0.9135
14737TIP3   OH265625   6.448   2.902  11.642 -0.2406  0.1672 -0.6694
14737TIP3    H165626   6.477   2.937  11.726 -0.9815 -0.7570 -0.0121
14737TIP3    H265627   6.445   2.978  11.584 -0.3608  0.9361  0.3206
14738TIP3   OH265628   4.146   3.499  14.662  0.3835 -0.3498 -0.1522
14738TIP3    H165629   4.158   3.586  14.625  2.0816 -0.1839  0.6808
14738TIP3    H265630   4.218   3.447  14.626  0.1047 -1.0835  0.3191
14739TIP3   OH265631   6.095   4.942  13.347  0.3766 -0.1645  0.1797
14739TIP3    H165632   6.156   4.880  13.306 -1.4360 -1.6949 -0.3900
14739TIP3    H265633   6.088   5.013  13.284 -0.8826 -1.5661 -1.3644
14740TIP3   OH265634   4.928   3.610   4.281  0.5240  0.1983 -0.2142
14740TIP3    H165635   4.955   3.605   4.373 -0.4675 -2.9708  0.0337
14740TIP3    H265636   4.865   3.682   4.278  0.2671  0.1048  1.7189
14741TIP3   OH265637   3.124   5.151   0.281  0.1906  0.1590  0.2378
14741TIP3    H165638   3.083   5.138   0.195  0.4335  0.0035  0.1446
14741TIP3    H265639   3.206   5.196   0.262  1.0111 -1.3006  0.2319
14742TIP3   OH265640   3.417   0.890   4.359  0.0454  0.3178 -0.7965
14742TIP3    H165641   3.400   0.949   4.433 -0.2778 -0.3801 -0.3050
14742TIP3    H265642   3.365   0.926   4.288 -0.2783  0.5381 -0.4516
14743TIP3   OH265643   5.271   1.638   3.158  1.1103 -0.8260  0.5231
14743TIP3    H165644   5.276   1.603   3.247 -1.5703 -0.9595  0.7240
14743TIP3    H265645   5.186   1.607   3.126  1.1479  0.8516 -1.3679
14744TIP3   OH265646   1.463   5.950   3.916 -0.3000  0.5213  0.8009
14744TIP3    H165647   1.535   5.978   3.973  0.5798  0.0609 -0.0531
14744TIP3    H265648   1.401   6.023   3.919  0.4635  1.1797  1.1208
14745TIP3   OH265649   3.922   1.188   5.034 -0.2789  0.4112  0.1130
14745TIP3    H165650   3.899   1.101   5.066 -0.6305  0.2826 -0.4742
14745TIP3    H265651   3.868   1.248   5.086 -0.3591  0.2507  0.2151
14746TIP3   OH265652   1.721   6.618  13.379  0.2505  0.3259 -0.1497
14746TIP3    H165653   1.665   6.549  13.345 -0.8894  1.0675  0.1615
14746TIP3    H265654   1.685   6.699  13.343  0.3966  0.9213  0.9898
14747TIP3   OH265655   6.705   1.667   5.888 -0.2138  0.5956 -0.1150
14747TIP3    H165656   6.766   1.621   5.945  0.9017 -0.1373 -1.8100
14747TIP3    H265657   6.680   1.602   5.822 -0.9136  1.5938 -0.8728
14748TIP3   OH265658   4.213   6.506   3.185  0.0640  0.2233 -0.0317
14748TIP3    H165659   4.195   6.414   3.203  2.2207 -0.3268 -0.3706
14748TIP3    H265660   4.150   6.531   3.118 -0.0448 -1.2353 -0.4952
14749TIP3   OH265661   0.721   1.694  16.415 -0.0120  0.6940  0.0047
14749TIP3    H165662   0.783   1.639  16.366  0.4248  0.8214  0.4040
14749TIP3    H265663   0.765   1.710  16.498 -1.3009 -0.6043  0.9769
14750TIP3   OH265664   4.119   2.546   5.060 -0.2825 -0.1454  0.4938
14750TIP3    H165665   4.030   2.573   5.079  0.1458  0.6270  1.4971
14750TIP3    H265666   4.112   2.451   5.046 -1.4965  0.1431 -1.1695
14751TIP3   OH265667   5.743   4.256   1.980  0.1938  0.2014 -0.5250
14751TIP3    H165668   5.694   4.267   2.061 -1.1093 -0.6432 -1.1618
14751TIP3    H265669   5.826   4.216   2.008 -0.1724  0.0624  0.4108
14752TIP3   OH265670   3.240   3.270   5.384  0.1982  0.3092  0.8644
14752TIP3    H165671   3.155   3.231   5.405  0.2797 -0.0371  0.5533
14752TIP3    H265672   3.304   3.210   5.422  0.3819 -0.7554 -1.0001
14753TIP3   OH265673   1.896   5.884  12.543 -0.0769 -0.1292  0.1219
14753TIP3    H165674   1.815   5.914  12.501 -0.5009 -3.0694 -1.4445
14753TIP3    H265675   1.871   5.868  12.634 -0.9716  0.0432 -0.0781
14754TIP3   OH265676   3.662   2.901  16.935 -0.1988 -0.1953  0.2377
14754TIP3    H165677   3.568   2.912  16.947 -0.2379  0.5147 -0.6965
14754TIP3    H265678   3.680   2.935  16.848  0.9999  0.1109  0.5831
14755TIP3   OH265679   6.347   1.530  16.870 -0.1668 -0.0869 -0.1896
14755TIP3    H165680   6.270   1.479  16.895 -0.1198  0.2489  0.7144
14755TIP3    H265681   6.421   1.471  16.884 -0.3393 -0.9580 -2.6204
14756TIP3   OH265682   2.919   5.255  14.660 -0.5166 -0.1874 -0.1412
14756TIP3    H165683   2.915   5.168  14.619  0.7037 -0.5010  0.3856
14756TIP3    H265684   3.006   5.287  14.640 -1.4010  1.5434 -1.5249
14757TIP3   OH265685   1.715   3.436  16.272 -0.0851  0.3530  0.2756
14757TIP3    H165686   1.689   3.420  16.181 -0.8688  0.9635  0.3824
14757TIP3    H265687   1.808   3.459  16.267 -0.0752  0.1850 -0.3515
14758TIP3   OH265688   2.312   6.551   4.017  0.0145  0.3906  0.7318
14758TIP3    H165689   2.408   6.553   4.008  0.3195 -0.8303  3.1164
14758TIP3    H265690   2.294   6.472   4.067 -2.3297  0.3131 -0.1204
14759TIP3   OH265691   3.857   0.671  14.017 -0.0411  0.2733  0.0683
14759TIP3    H165692   3.779   0.662  14.074 -0.1536  0.9785  0.0337
14759TIP3    H265693   3.907   0.742  14.057  0.6853 -0.3060  0.1936
14760TIP3   OH265694   2.407   0.822  14.740  0.6439 -0.1924 -0.0867
14760TIP3    H165695   2.438   0.736  14.711  1.4623 -0.3560  1.2294
14760TIP3    H265696   2.389   0.811  14.833 -1.6069  0.4160 -0.3909
14761TIP3   OH265697   5.204   1.335   2.930  0.7386  0.4729 -0.6783
14761TIP3    H165698   5.126   1.331   2.875 -0.6837 -1.0314  1.3091
14761TIP3    H265699   5.207   1.426   2.960  0.4090  0.8168 -1.6425
14762TIP3   OH265700   2.340   3.034  10.239  0.5868 -0.0525  0.0447
14762TIP3    H165701   2.327   2.943  10.265 -0.7282 -0.0817 -0.6658
14762TIP3    H265702   2.276   3.084  10.289  0.1971  0.2739 -0.7568
14763TIP3   OH265703   6.302   5.156   5.992 -0.2894  0.5677 -0.7041
14763TIP3    H165704   6.320   5.077   6.042 -0.4237  1.0956  0.1967
14763TIP3    H265705   6.216   5.140   5.952 -0.7187  0.6097  0.1915
14764TIP3   OH265706   1.922   6.126   4.301 -0.0029 -0.2115  0.2608
14764TIP3    H165707   1.907   6.032   4.311 -1.3742  0.0947  1.4146
14764TIP3    H265708   1.906   6.143   4.208  0.4687 -1.1293 -0.0100
14765TIP3   OH265709   2.800   3.685   6.255 -0.1240  0.6682 -0.3101
14765TIP3    H165710   2.858   3.619   6.219 -1.5524  0.1765 -1.8368
14765TIP3    H265711   2.779   3.653   6.343  0.0967 -0.3213 -0.6063
14766TIP3   OH265712   0.964   0.669   0.135 -0.1862  0.1627 -0.4764
14766TIP3    H165713   1.006   0.599   0.184 -0.3890  1.2264  1.2915
14766TIP3    H265714   0.896   0.702   0.193 -0.4848  1.4514 -1.4992
14767TIP3   OH265715   1.937   3.631  10.679 -0.1784  0.2117  0.1629
14767TIP3    H165716   1.897   3.618  10.593  1.1497  1.0770 -0.6192
14767TIP3    H265717   1.863   3.640  10.739 -1.1308 -1.1420 -0.7539
14768TIP3   OH265718   2.757   5.022   2.598  0.1372 -0.0037 -0.3101
14768TIP3    H165719   2.754   4.928   2.578  0.9019 -0.0032 -0.4815
14768TIP3    H265720   2.850   5.040   2.611  0.1380  0.9759 -1.5003
14769TIP3   OH265721   5.476   5.971   2.109  0.3004 -0.0725  0.6953
14769TIP3    H165722   5.555   6.008   2.070  0.1767 -0.0179  0.4971
14769TIP3    H265723   5.430   5.930   2.036 -0.3009  0.6686  0.6436
14770TIP3   OH265724   4.532   4.561  12.212 -0.4188 -0.4816 -0.1698
14770TIP3    H165725   4.491   4.476  12.196 -1.0997 -0.3951  1.0054
14770TIP3    H265726   4.590   4.546  12.286  0.9107 -0.3451 -1.1430
14771TIP3   OH265727   6.091   6.159  16.914 -0.4132 -0.0556  0.7864
14771TIP3    H165728   6.069   6.179  16.823  2.6238  1.2262  0.2137
14771TIP3    H265729   6.166   6.100  16.909  0.7794  1.2253  2.3852
14772TIP3   OH265730   3.375   6.008  12.797  0.8727 -0.0057  0.0633
14772TIP3    H165731   3.405   5.968  12.715 -2.8701  1.2666 -2.1815
14772TIP3    H265732   3.350   5.934  12.852  2.5008 -0.8533 -0.2496
14773TIP3   OH265733   3.474   3.763   2.136  0.2310 -0.4029 -0.1009
14773TIP3    H165734   3.401   3.735   2.080  0.2622 -0.2684 -0.2097
14773TIP3    H265735   3.547   3.777   2.076 -0.0567  0.8575 -0.1765
14774TIP3   OH265736   3.166   3.462  10.944 -0.1076 -0.0898  0.5331
14774TIP3    H165737   3.226   3.527  10.979  0.6295 -1.1945  1.4118
14774TIP3    H265738   3.088   3.512  10.920  0.6822  1.1957  0.5455
14775TIP3   OH265739   1.918   5.643  12.983 -0.3614 -0.2125 -0.1811
14775TIP3    H165740   1.899   5.670  13.073  0.1566  0.8036 -0.3689
14775TIP3    H265741   1.884   5.715  12.929  0.0797 -0.4283 -0.7517
14776TIP3   OH265742   5.473   4.559  11.445 -0.2535  0.9126  0.1665
14776TIP3    H165743   5.428   4.643  11.440 -0.2000  0.8737 -2.8568
14776TIP3    H265744   5.561   4.580  11.475 -0.4707  1.8306  0.1752
14777TIP3   OH265745   0.383   0.393   4.230  0.0414 -0.2385  0.0435
14777TIP3    H165746   0.403   0.418   4.140  0.4409  0.3911  0.2984
14777TIP3    H265747   0.398   0.473   4.281 -0.3400 -0.5420  0.6459
14778TIP3   OH265748   2.098   5.011   0.164  0.2102 -0.1481  0.2992
14778TIP3    H165749   2.149   4.933   0.186  0.3363 -0.3660 -0.7141
14778TIP3    H265750   2.075   4.999   0.072 -3.9354 -1.3725  1.2944
14779TIP3   OH265751   4.354   3.595   0.650  0.2932  0.1695 -0.2350
14779TIP3    H165752   4.266   3.610   0.615  0.4607  0.1981 -0.6560
14779TIP3    H265753   4.350   3.623   0.741 -0.3688 -0.6255 -0.0070
14780TIP3   OH265754   4.770   6.334  14.040  0.5717  0.0708  0.0168
14780TIP3    H165755   4.750   6.345  14.133  0.2172 -1.2504  0.1169
14780TIP3    H265756   4.860   6.364  14.031 -0.2873  2.9351  0.2058
14781TIP3   OH265757   2.876   2.914  12.829  0.3874 -0.0149 -0.5147
14781TIP3    H165758   2.839   2.826  12.820  0.2358  0.0532 -0.5666
14781TIP3    H265759   2.922   2.912  12.912 -1.0457  0.3600  0.3329
14782TIP3   OH265760   6.288   1.272  16.081  0.5158  0.1403 -0.0677
14782TIP3    H165761   6.352   1.321  16.132  0.3217  0.1989  0.1257
14782TIP3    H265762   6.304   1.298  15.990  0.3945  0.5891  0.0345
14783TIP3   OH265763   6.640   3.184  16.115 -0.0615  0.7971  0.1525
14783TIP3    H165764   6.587   3.185  16.035 -0.6625  1.3669  0.5470
14783TIP3    H265765   6.580   3.156  16.184  0.6216 -0.3596  0.3079
14784TIP3   OH265766   5.739   0.064   1.787  0.0701 -0.3764  0.5042
14784TIP3    H165767   5.797   0.132   1.754  0.3717 -0.9594 -0.2161
14784TIP3    H265768   5.650   0.098   1.774  0.2144 -0.2001 -0.0286
14785TIP3   OH265769   3.354   3.190   5.141  0.1794  0.2418  0.1809
14785TIP3    H165770   3.291   3.222   5.205  0.3038  0.0972  0.3774
14785TIP3    H265771   3.420   3.144   5.193 -0.6310 -1.3983 -0.1762
14786TIP3   OH265772   0.282   3.900   3.570 -0.7308 -0.1882  0.0917
14786TIP3    H165773   0.228   3.825   3.544 -0.2947 -0.2954 -0.5280
14786TIP3    H265774   0.309   3.882   3.660  0.2984 -1.3166 -0.4276
14787TIP3   OH265775   1.031   4.341  13.715 -0.1885 -0.2982  0.4694
14787TIP3    H165776   1.053   4.270  13.654 -1.3105 -1.6874  1.6158
14787TIP3    H265777   0.942   4.321  13.744 -0.2766  1.2369  1.3214
14788TIP3   OH265778   4.797   4.702   1.083  0.1492  1.0739 -0.1689
14788TIP3    H165779   4.816   4.715   0.990  0.6411 -0.9660 -0.4056
14788TIP3    H265780   4.743   4.777   1.107  0.8974  2.2040 -1.8184
14789TIP3   OH265781   3.648   3.500   1.932  0.3006 -0.1908 -0.5981
14789TIP3    H165782   3.694   3.583   1.942 -0.1502 -0.1037  1.1237
14789TIP3    H265783   3.595   3.493   2.011 -1.4538 -1.0353 -1.7960
14790TIP3   OH265784   6.676   6.358   3.936  0.4126  0.2189  0.6599
14790TIP3    H165785   6.618   6.365   3.860  0.4339 -2.6962  0.2757
14790TIP3    H265786   6.634   6.414   4.002 -0.1667  1.9905 -1.1189
14791TIP3   OH265787   5.163   5.027  17.032 -0.0323  0.2559 -0.1532
14791TIP3    H165788   5.075   4.992  17.048  0.9012 -1.3161  2.0656
14791TIP3    H265789   5.163   5.113  17.073 -0.5815  0.3186 -0.2810
14792TIP3   OH265790   0.261   3.181  14.942  0.9218 -0.2558  0.0209
14792TIP3    H165791   0.237   3.175  14.850  0.7393  1.7982 -0.1106
14792TIP3    H265792   0.177   3.183  14.988  0.9095  1.6292 -0.0265
14793TIP3   OH265793   4.539   2.683  15.953 -0.7283  0.4810  0.5106
14793TIP3    H165794   4.549   2.772  15.988 -1.1028  1.6350 -2.0942
14793TIP3    H265795   4.585   2.628  16.016  1.9793  2.8384  0.8229
14794TIP3   OH265796   3.284   4.739  10.778  0.1107  0.3279 -0.1891
14794TIP3    H165797   3.242   4.750  10.693 -0.3870 -0.2475 -0.0263
14794TIP3    H265798   3.227   4.679  10.825  2.5043 -2.7830 -0.9476
14795TIP3   OH265799   2.827   3.445  16.755  0.2491 -0.0827  0.1354
14795TIP3    H165800   2.810   3.353  16.735 -0.9254 -0.2969  1.8763
14795TIP3    H265801   2.814   3.452  16.850  0.9949  1.7398  0.1458
14796TIP3   OH265802   2.238   5.647   5.183 -0.2549 -0.3732  0.0107
14796TIP3    H165803   2.307   5.666   5.119 -0.7898 -0.4095 -0.5897
14796TIP3    H265804   2.275   5.580   5.240 -0.2724 -1.3982 -1.1527
14797TIP3   OH265805   4.753   5.428   6.644  0.2827 -0.0279  0.3020
14797TIP3    H165806   4.758   5.479   6.724 -0.2984  0.5324 -0.0106
14797TIP3    H265807   4.748   5.337   6.673  0.1869  0.1660  0.8901
14798TIP3   OH265808   2.255   5.904   6.043 -0.3087 -0.5050  0.4898
14798TIP3    H165809   2.349   5.908   6.063  0.1293 -3.5891 -0.4293
14798TIP3    H265810   2.230   5.996   6.029  2.8218  0.3520 -0.3885
14799TIP3   OH265811   5.238   1.533  12.685  0.3583  0.1739 -0.3606
14799TIP3    H165812   5.203   1.453  12.726  0.3349  1.1482  1.6542
14799TIP3    H265813   5.168   1.597  12.693  1.2102  1.0712  0.3123
14800TIP3   OH265814   2.198   6.765   5.962  0.7080  0.1520 -0.2593
14800TIP3    H165815   2.196   6.671   5.982  1.4340  0.1339 -0.2316
14800TIP3    H265816   2.226   6.806   6.044 -0.9475  0.5364  0.1463
14801TIP3   OH265817   0.019   3.423  14.869 -1.1355 -0.2257  0.0054
14801TIP3    H165818  -0.026   3.443  14.787 -1.8919  2.3751  0.9675
14801TIP3    H265819  -0.041   3.365  14.917 -3.1524  2.3777  0.8346
14802TIP3   OH265820   1.792   1.455  12.888 -0.5425  0.3199 -0.0281
14802TIP3    H165821   1.723   1.500  12.937  0.8244  1.5963  0.7967
14802TIP3    H265822   1.840   1.524  12.844  0.9158 -0.4198  0.3358
14803TIP3   OH265823   1.058   5.445   4.142  0.1404  0.1302  0.2046
14803TIP3    H165824   1.047   5.520   4.201  1.1915 -0.7660  1.5754
14803TIP3    H265825   1.138   5.465   4.093  0.7596 -0.3467  0.9976
14804TIP3   OH265826   4.025   6.187  12.219  0.2930 -0.0110 -0.5439
14804TIP3    H165827   4.009   6.170  12.126 -0.7390  1.5657 -0.6943
14804TIP3    H265828   4.087   6.259  12.220 -1.3306  1.4548 -0.0871
14805TIP3   OH265829   3.097   0.583  17.192  0.1481  0.1692 -0.3263
14805TIP3    H165830   3.033   0.512  17.184  0.7495 -0.3334 -0.8302
14805TIP3    H265831   3.058   0.655  17.142  0.3850 -0.4471 -1.4394
14806TIP3   OH265832   3.119   5.247   0.987 -0.5491 -0.0732  0.4410
14806TIP3    H165833   3.039   5.196   0.996  0.2511 -1.5047 -0.1373
14806TIP3    H265834   3.090   5.332   0.955 -1.8975 -0.2810  1.0394
14807TIP3   OH265835   5.469   1.153  16.993 -0.4558  0.0882 -0.3182
14807TIP3    H165836   5.505   1.221  16.937  0.7149 -1.4193 -1.4922
14807TIP3    H265837   5.502   1.173  17.080  1.3116  0.0871 -0.9550
14808TIP3   OH265838   4.927   2.874  10.689  0.0170 -0.3466 -0.3041
14808TIP3    H165839   5.012   2.871  10.646  1.6244 -0.9603  2.6193
14808TIP3    H265840   4.894   2.785  10.683 -0.1260 -0.2566 -0.8893
14809TIP3   OH265841   3.495   0.916  16.492 -0.1270 -0.0143  0.1167
14809TIP3    H165842   3.541   0.887  16.570 -0.6295 -0.7320  0.1495
14809TIP3    H265843   3.505   0.845  16.429 -1.6087 -0.4111  0.2961
14810TIP3   OH265844   4.276   5.853   0.446  0.3463 -0.1302  0.3820
14810TIP3    H165845   4.368   5.836   0.428 -0.0820 -0.9614 -1.2741
14810TIP3    H265846   4.240   5.879   0.361 -0.8423  0.7147  1.1171
14811TIP3   OH265847   4.314   3.068   1.630 -0.0091  0.0118  0.2927
14811TIP3    H165848   4.232   3.079   1.582  0.1245 -0.6605 -0.0996
14811TIP3    H265849   4.381   3.101   1.570  0.2282 -1.4149 -0.2673
14812TIP3   OH265850   3.366   2.193   4.995 -0.0349 -0.0492 -0.3619
14812TIP3    H165851   3.339   2.271   4.946  0.0925 -0.0561 -0.4434
14812TIP3    H265852   3.448   2.165   4.954 -1.3432 -1.7119 -2.0151
14813TIP3   OH265853   5.088   1.305  12.484 -0.7468  0.1528 -0.3638
14813TIP3    H165854   5.066   1.328  12.575  0.7692  0.7724 -0.1138
14813TIP3    H265855   5.096   1.390  12.440 -1.8160 -0.1498 -1.1985
14814TIP3   OH265856   3.606   2.959  13.990  0.1226 -0.8906  0.2654
14814TIP3    H165857   3.609   2.864  13.979 -1.3638 -0.7926 -1.3065
14814TIP3    H265858   3.632   2.972  14.081  1.1497 -2.7326  0.2922
14815TIP3   OH265859   5.245   1.266   1.202  0.5608  0.7964 -0.7668
14815TIP3    H165860   5.276   1.327   1.268  1.5247  0.9907 -1.3729
14815TIP3    H265861   5.152   1.256   1.219  0.9030  0.3525  0.9914
14816TIP3   OH265862   4.721   6.339  11.326  0.3974 -0.7184  0.2683
14816TIP3    H165863   4.699   6.246  11.326 -0.1526 -0.6146  1.6623
14816TIP3    H265864   4.640   6.383  11.301  0.2801 -0.5563  0.9217
14817TIP3   OH265865   2.978   5.048   5.126  0.5165  0.3611  0.6704
14817TIP3    H165866   3.035   4.983   5.084  2.2135  1.6936  0.8156
14817TIP3    H265867   2.945   5.005   5.205  1.0134 -0.5701  0.3777
14818TIP3   OH265868   4.784   5.322  14.456  0.2195  0.2307  1.0894
14818TIP3    H165869   4.716   5.273  14.410  0.4761  1.5375 -0.7962
14818TIP3    H265870   4.765   5.414  14.437  2.0611  0.6594  1.1276
14819TIP3   OH265871   4.241   5.639   2.333 -0.2946  0.1951 -0.2503
14819TIP3    H165872   4.292   5.698   2.389 -1.2088  1.3229 -0.5585
14819TIP3    H265873   4.297   5.563   2.320  0.6004  0.6443  0.8251
14820TIP3   OH265874   0.631   4.830  13.980 -0.5835 -0.1758  0.1325
14820TIP3    H165875   0.689   4.831  13.904 -2.0904  0.5437 -1.0580
14820TIP3    H265876   0.646   4.745  14.021 -0.6275 -1.1207 -1.7080
14821TIP3   OH265877   0.539   4.429   0.745  0.4393 -0.0489  0.9260
14821TIP3    H165878   0.603   4.461   0.681 -2.5686 -0.2545 -2.5580
14821TIP3    H265879   0.532   4.499   0.809  1.1601  1.8514 -0.9373
14822TIP3   OH265880   2.940   0.842   1.377 -0.3161 -0.1390  0.7970
14822TIP3    H165881   2.918   0.781   1.306 -3.9394  2.1029 -0.2761
14822TIP3    H265882   2.858   0.887   1.396  1.7776  3.3316  2.5709
14823TIP3   OH265883   1.251   5.706  11.682  0.2235 -0.2321  0.8254
14823TIP3    H165884   1.253   5.784  11.626  0.6837 -0.5097  0.4390
14823TIP3    H265885   1.316   5.648  11.643 -0.1127 -0.8076  1.1126
14824TIP3   OH265886   5.584   1.055  12.395 -0.3419 -0.6244  0.0688
14824TIP3    H165887   5.607   1.143  12.365 -1.0538 -0.3797  0.2008
14824TIP3    H265888   5.493   1.064  12.425  0.3476 -0.8335  2.3963
14825TIP3   OH265889   5.505   0.379  11.580 -0.9991 -0.1862 -0.1384
14825TIP3    H165890   5.557   0.449  11.541  0.2816 -2.6805 -3.3952
14825TIP3    H265891   5.418   0.390  11.541 -1.2875  0.5324  0.6826
14826TIP3   OH265892   6.103   1.699  12.995  0.2306  0.5105 -0.5130
14826TIP3    H165893   6.157   1.751  12.936 -0.2394  0.6182 -0.8589
14826TIP3    H265894   6.047   1.763  13.038 -0.5086  0.2874 -1.1065
14827TIP3   OH265895   3.655   5.026  13.218 -0.0332  0.3242  0.2029
14827TIP3    H165896   3.635   5.048  13.309 -0.4857  0.9532 -0.0379
14827TIP3    H265897   3.599   4.951  13.198  0.7326 -0.4007  0.7087
14828TIP3   OH265898   4.855   5.073   1.658  0.5902  0.0308  0.3002
14828TIP3    H165899   4.941   5.046   1.690  0.7301  0.0562 -0.0519
14828TIP3    H265900   4.850   5.037   1.569 -0.2022 -0.9153  0.7026
14829TIP3   OH265901   5.302   1.760  14.989  0.0399  0.2448  0.1160
14829TIP3    H165902   5.215   1.740  15.023  1.1638 -0.7102  2.6802
14829TIP3    H265903   5.317   1.852  15.012  0.3556 -0.0787  1.2260
14830TIP3   OH265904   2.870   1.370   5.726 -0.1778 -0.4404 -0.6859
14830TIP3    H165905   2.816   1.434   5.773  1.3382  0.4053 -0.0392
14830TIP3    H265906   2.855   1.288   5.773 -2.1588 -0.6207 -1.5364
14831TIP3   OH265907   2.687   3.293   0.279  0.0539 -0.5207  0.4967
14831TIP3    H165908   2.690   3.295   0.184 -0.9490  1.1996  0.4569
14831TIP3    H265909   2.627   3.222   0.300 -0.7131 -0.0969 -0.2127
14832TIP3   OH265910   6.418   3.541  16.654  0.0847  0.5847 -0.3005
14832TIP3    H165911   6.412   3.560  16.560 -1.3351  0.3664 -0.2755
14832TIP3    H265912   6.460   3.618  16.692  1.0535  0.5090 -1.1451
14833TIP3   OH265913   3.453   0.899   5.789 -0.3126 -0.2943  0.0201
14833TIP3    H165914   3.480   0.822   5.739  1.1954 -0.2356  0.6899
14833TIP3    H265915   3.408   0.955   5.725 -1.9205 -1.9351 -0.3550
14834TIP3   OH265916   3.197   2.137   1.634 -0.1715 -0.3626  0.4373
14834TIP3    H165917   3.164   2.048   1.644  2.4321 -1.6012 -1.0148
14834TIP3    H265918   3.273   2.128   1.577 -0.0387  2.8722 -0.0621
14835TIP3   OH265919   4.188   6.447  11.138  0.3602 -0.0483 -0.1362
14835TIP3    H165920   4.185   6.537  11.169 -1.7960  0.1779 -0.8543
14835TIP3    H265921   4.210   6.455  11.045 -2.5396  0.0227 -0.9064
14836TIP3   OH265922   5.964   2.647  14.574 -0.4580  0.3010  0.2774
14836TIP3    H165923   5.969   2.699  14.494 -2.1961 -0.4751 -0.3821
14836TIP3    H265924   6.024   2.690  14.635  0.5870  1.1550 -1.2921
14837TIP3   OH265925   3.692   5.797  12.699  0.7107  0.2637  0.7128
14837TIP3    H165926   3.736   5.846  12.768  2.0495 -1.7249  1.3579
14837TIP3    H265927   3.759   5.737  12.665 -0.3526  0.0824 -1.2401
14838TIP3   OH265928   2.938   1.695  15.346  0.1590 -0.1470 -0.1714
14838TIP3    H165929   3.019   1.645  15.331  1.4757  2.4906 -3.1209
14838TIP3    H265930   2.868   1.633  15.328  1.5122 -2.1406  1.0465
14839TIP3   OH265931   6.141   5.286  14.092 -0.3025 -0.2294 -0.0336
14839TIP3    H165932   6.127   5.367  14.043 -1.7868 -0.2069  0.3996
14839TIP3    H265933   6.104   5.303  14.178 -0.0241 -1.1494  0.2808
14840TIP3   OH265934   5.806   2.131  16.205  0.6651 -0.1799 -0.2289
14840TIP3    H165935   5.885   2.181  16.184  0.7159 -0.7176 -1.3566
14840TIP3    H265936   5.838   2.043  16.224  0.4777 -0.0291  0.8385
14841TIP3   OH265937   5.051   3.478   0.807  0.5016 -0.0110  0.0631
14841TIP3    H165938   4.960   3.465   0.779  0.0074  0.5540  1.3293
14841TIP3    H265939   5.081   3.390   0.831 -0.4454  0.0715  1.6955
14842TIP3   OH265940   0.303   0.889   3.914  0.8190 -0.0865 -0.6122
14842TIP3    H165941   0.266   0.814   3.868 -0.1788  0.8471 -1.3807
14842TIP3    H265942   0.395   0.891   3.886  0.9208 -1.1587 -0.3841
14843TIP3   OH265943   4.110   6.429   1.364  0.2011  0.2421  0.4463
14843TIP3    H165944   4.159   6.363   1.414 -1.0065 -0.8984  0.1704
14843TIP3    H265945   4.119   6.509   1.416  3.0085  0.3312  0.0181
14844TIP3   OH265946   5.862   0.972  12.901  0.0409 -0.1875  0.0911
14844TIP3    H165947   5.871   1.062  12.932 -0.5991 -0.3922  0.8802
14844TIP3    H265948   5.777   0.970  12.857  1.3727  0.3963 -2.7837
14845TIP3   OH265949   1.614   5.047   4.637 -0.0713 -0.6753 -0.3494
14845TIP3    H165950   1.632   5.099   4.559 -1.9498 -0.6034 -0.7779
14845TIP3    H265951   1.681   4.978   4.636  1.4190  0.7281 -0.6651
14846TIP3   OH265952   6.124   4.458   4.287 -0.3332  0.0173  0.0137
14846TIP3    H165953   6.129   4.552   4.306 -0.1783 -0.3846  2.2175
14846TIP3    H265954   6.205   4.422   4.323 -0.9267 -1.1237  0.2452
14847TIP3   OH265955   2.565   2.861  11.918 -0.3785  0.0262  0.1762
14847TIP3    H165956   2.511   2.933  11.883 -0.0175 -0.0723 -0.5903
14847TIP3    H265957   2.507   2.785  11.913 -0.2886 -0.0145 -0.3425
14848TIP3   OH265958   4.471   1.520  15.825  0.1713 -0.3215  0.1596
14848TIP3    H165959   4.462   1.483  15.912 -0.8740 -1.4210 -0.3852
14848TIP3    H265960   4.480   1.614  15.840 -3.1958 -0.0627  1.3703
14849TIP3   OH265961   5.863   3.796  11.890  0.4622 -0.2935 -0.1185
14849TIP3    H165962   5.957   3.793  11.873  0.3603  0.7347 -0.9680
14849TIP3    H265963   5.823   3.761  11.811  0.1336 -1.9140  0.7218
14850TIP3   OH265964   3.478   5.559   4.745  0.1266  0.0644 -0.0414
14850TIP3    H165965   3.574   5.558   4.745  0.1285  0.1378 -0.2789
14850TIP3    H265966   3.455   5.547   4.653 -0.1025 -1.3355  0.1694
14851TIP3   OH265967   1.665   1.732   0.260 -0.3591  0.2332  0.0639
14851TIP3    H165968   1.635   1.742   0.169  1.1007 -0.6846 -0.5445
14851TIP3    H265969   1.650   1.640   0.280  0.4894  0.1435  0.3155
14852TIP3   OH265970   1.575   1.609  14.128  0.1027  0.2278 -1.0297
14852TIP3    H165971   1.506   1.642  14.070  1.2148  0.3254 -2.3351
14852TIP3    H265972   1.549   1.640  14.215 -0.1757  2.4993 -1.8493
14853TIP3   OH265973   5.225   3.352   2.921 -0.2737 -0.4968  0.5497
14853TIP3    H165974   5.130   3.349   2.935 -0.2823  0.0854  0.6544
14853TIP3    H265975   5.236   3.411   2.846  0.1948  2.5168  2.7840
14854TIP3   OH265976   0.478   0.986  11.952  0.0660 -0.0391 -0.8987
14854TIP3    H165977   0.563   0.971  11.992 -0.3236 -0.5019 -0.2072
14854TIP3    H265978   0.419   0.929  12.001 -0.5072 -0.2882 -1.8692
14855TIP3   OH265979   0.199   2.324   2.006 -0.2211 -0.0928 -0.4922
14855TIP3    H165980   0.128   2.374   1.966  1.0179  1.2359 -1.0990
14855TIP3    H265981   0.178   2.323   2.100 -2.8125 -2.7054 -0.9565
14856TIP3   OH265982   3.158   5.259   2.166  0.1287 -0.2384 -0.0031
14856TIP3    H165983   3.220   5.205   2.215  0.8422 -1.3148 -1.9841
14856TIP3    H265984   3.076   5.253   2.216  0.8861 -1.0285  1.1899
14857TIP3   OH265985   3.809   5.228  16.712 -0.3000 -0.4290  0.7108
14857TIP3    H165986   3.882   5.167  16.699 -0.2896 -1.0202  3.1907
14857TIP3    H265987   3.848   5.304  16.755 -0.6819  0.4993 -0.5233
14858TIP3   OH265988   4.780   3.769  12.662  0.5204 -0.3669 -0.2223
14858TIP3    H165989   4.733   3.798  12.583 -0.0278 -0.2380  0.1486
14858TIP3    H265990   4.861   3.730  12.628  0.1815 -0.5330 -0.8689
14859TIP3   OH265991   1.017   5.232  16.583  0.0838  0.4471  0.0598
14859TIP3    H165992   0.997   5.219  16.676 -1.4384  0.8500 -0.1985
14859TIP3    H265993   0.933   5.223  16.538  0.9459 -0.8545 -1.4247
14860TIP3   OH265994   2.494   3.410   4.193 -0.3097 -0.5454  0.3063
14860TIP3    H165995   2.556   3.451   4.252  1.6231 -1.9730 -0.6138
14860TIP3    H265996   2.450   3.343   4.246  0.1165 -0.6120  0.5794
14861TIP3   OH265997   0.797   1.787   1.112 -0.1509 -0.0157  0.0257
14861TIP3    H165998   0.738   1.797   1.037 -0.0300  0.3866 -0.0168
14861TIP3    H265999   0.836   1.873   1.124 -0.9395  0.2017  1.1939
14862TIP3   OH266000   1.550   1.011  14.002 -0.4807 -0.0385  0.5354
14862TIP3    H166001   1.631   0.964  14.025 -1.2723 -0.4545  2.6635
14862TIP3    H266002   1.529   0.979  13.914  0.4904 -1.5949  0.8179
14863TIP3   OH266003   1.337   2.230   0.452 -0.2744 -0.2234  0.2033
14863TIP3    H166004   1.370   2.297   0.393 -0.4505  0.5841  1.0061
14863TIP3    H266005   1.242   2.241   0.451 -0.2190  0.6425  1.5863
14864TIP3   OH266006   4.621   4.675   0.410 -0.1154 -0.0316  0.0908
14864TIP3    H166007   4.589   4.591   0.376  0.4214 -0.2986  0.2364
14864TIP3    H266008   4.546   4.734   0.400  0.0933 -0.0265 -1.7793
14865TIP3   OH266009   5.785   6.139   4.303  0.5471 -0.0285  0.7605
14865TIP3    H166010   5.719   6.203   4.330  2.0086  3.3007 -2.6251
14865TIP3    H266011   5.849   6.139   4.375  0.0523  1.6817  1.2491
14866TIP3   OH266012   0.385   1.727   1.677 -0.4553  0.0185  0.4128
14866TIP3    H166013   0.368   1.685   1.592  2.8371 -0.6874 -0.0076
14866TIP3    H266014   0.366   1.819   1.662 -1.4895 -0.3197 -0.5716
14867TIP3   OH266015   4.836   5.478  15.711  0.7077  0.5116  0.1279
14867TIP3    H166016   4.745   5.449  15.705  1.0532 -0.6813  0.4275
14867TIP3    H266017   4.830   5.573  15.709 -0.7468  0.5511  2.3816
14868TIP3   OH266018   2.506   0.941  13.700  0.0190  0.3567  0.1807
14868TIP3    H166019   2.420   0.908  13.725 -0.1058 -0.6897 -1.4801
14868TIP3    H266020   2.487   1.019  13.648  0.1850  1.1284  1.2272
14869TIP3   OH266021   3.623   0.910   0.254  0.4137  0.3596 -1.0933
14869TIP3    H166022   3.605   0.826   0.211  2.0522  0.6547 -2.5009
14869TIP3    H266023   3.600   0.976   0.188 -1.4090  1.0830  0.2088
14870TIP3   OH266024   5.991   6.387   1.137 -0.4962 -0.1656 -0.4938
14870TIP3    H166025   5.958   6.460   1.189 -3.1868 -3.0373  2.2899
14870TIP3    H266026   6.031   6.428   1.061 -2.4574  4.1293  0.4738
14871TIP3   OH266027   0.561   4.385   2.720  0.1412 -0.1952 -0.8197
14871TIP3    H166028   0.582   4.338   2.801 -0.5927  0.8538  0.0196
14871TIP3    H266029   0.467   4.404   2.727  0.6543  2.7367 -0.3268
14872TIP3   OH266030   4.950   5.219   3.904 -0.6176  0.0937 -0.3080
14872TIP3    H166031   5.019   5.241   3.968  1.2751 -0.6956 -1.9754
14872TIP3    H266032   4.916   5.304   3.876 -1.0027  0.4718  1.2241
14873TIP3   OH266033   5.529   0.244   1.747  0.3776  0.3138  0.2118
14873TIP3    H166034   5.470   0.196   1.689 -1.5192 -1.9228  3.6390
14873TIP3    H266035   5.521   0.335   1.719 -0.2496 -0.6229 -3.0474
14874TIP3   OH266036   1.996   3.294  17.070  0.2244 -0.4658  0.1854
14874TIP3    H166037   1.978   3.253  16.985  1.2888  0.3503 -0.4648
14874TIP3    H266038   2.071   3.351  17.053  1.8163 -1.8398  2.1652
14875TIP3   OH266039   0.700   6.572   0.655 -0.1365  0.2835 -0.4546
14875TIP3    H166040   0.732   6.628   0.585 -0.8619 -0.5541 -1.5026
14875TIP3    H266041   0.774   6.516   0.677  0.0485  0.4403 -0.6687
14876TIP3   OH266042   1.669   2.134   0.272 -0.0111  0.3003  0.8945
14876TIP3    H166043   1.650   2.225   0.249  0.3929  0.3195  0.6140
14876TIP3    H266044   1.743   2.140   0.333 -0.5573  0.2034  1.5729
14877TIP3   OH266045   1.810   5.878  14.254 -0.1401 -0.4446 -0.1914
14877TIP3    H166046   1.870   5.903  14.324 -0.5982  0.8723 -0.2472
14877TIP3    H266047   1.750   5.953  14.245  0.1857 -0.3801 -2.2834
14878TIP3   OH266048   6.495   2.273  11.569  0.1297  0.4400  0.1463
14878TIP3    H166049   6.451   2.309  11.646  2.9078  0.9326  1.6597
14878TIP3    H266050   6.532   2.350  11.525  0.4215 -0.0293 -0.4365
14879TIP3   OH266051   2.842   2.197   2.329 -0.0446 -0.2266 -0.4345
14879TIP3    H166052   2.882   2.140   2.395  0.4346  0.5511 -0.0356
14879TIP3    H266053   2.887   2.281   2.339 -3.0836  1.3772  1.4424
14880TIP3   OH266054   0.051   1.822   0.567  0.2679 -0.0301  0.4880
14880TIP3    H166055   0.102   1.750   0.529 -0.7130 -0.2623 -0.4222
14880TIP3    H266056  -0.014   1.844   0.500  0.4143  1.5705  0.8444
14881TIP3   OH266057   0.726   1.319  16.386 -0.6141  0.5706  0.0345
14881TIP3    H166058   0.694   1.368  16.311  1.0270  0.9604 -0.4545
14881TIP3    H266059   0.798   1.266  16.352 -0.3946  0.1036  1.1601
14882TIP3   OH266060   0.541   1.585  14.610  0.0215  0.2659 -0.0530
14882TIP3    H166061   0.563   1.651  14.676  1.2715  0.1813 -0.3471
14882TIP3    H266062   0.514   1.508  14.659  0.1276  0.4805  0.3424
14883TIP3   OH266063   4.374   3.845  16.887  0.1919 -0.5504  0.1281
14883TIP3    H166064   4.349   3.809  16.802 -0.0100 -0.0705 -0.0163
14883TIP3    H266065   4.340   3.782  16.950  1.0950 -1.3619 -0.1692
14884TIP3   OH266066   2.469   2.512   4.768 -0.1799  0.2101  0.0801
14884TIP3    H166067   2.511   2.596   4.787  0.7171 -0.2728  0.2359
14884TIP3    H266068   2.540   2.449   4.765 -0.7745 -0.4414 -0.7304
14885TIP3   OH266069   6.393   1.778  16.808 -0.7018  0.3480  0.1936
14885TIP3    H166070   6.382   1.696  16.855 -1.6586  0.2684 -0.1548
14885TIP3    H266071   6.371   1.757  16.717  0.2137  0.7178 -0.1312
14886TIP3   OH266072   0.817   5.716  10.860 -0.4074 -0.1234  0.3363
14886TIP3    H166073   0.913   5.720  10.851 -0.5719 -0.0365 -1.8342
14886TIP3    H266074   0.794   5.627  10.835 -0.9556  0.1327 -0.1111
14887TIP3   OH266075   4.241   4.983   5.621 -0.2665 -0.9900  0.2318
14887TIP3    H166076   4.163   5.035   5.599 -0.1525 -1.0205 -0.2387
14887TIP3    H266077   4.212   4.928   5.694 -0.0832  0.4993  1.4956
14888TIP3   OH266078   5.064   5.015  16.228 -0.5021 -0.1732 -0.7081
14888TIP3    H166079   5.069   4.998  16.322  1.1672 -0.9709 -0.9032
14888TIP3    H266080   5.091   5.106  16.219 -1.0294  0.0177 -0.3928
14889TIP3   OH266081   3.639   6.770  16.374  0.0703  0.2918 -0.1103
14889TIP3    H166082   3.665   6.716  16.449  0.6254  1.0022  0.2309
14889TIP3    H266083   3.546   6.788  16.388 -0.4597 -1.6351 -0.9243
14890TIP3   OH266084   3.329   5.707   6.817 -0.1730 -0.2783  0.1549
14890TIP3    H166085   3.310   5.801   6.823 -0.7509 -0.3671 -0.1645
14890TIP3    H266086   3.398   5.701   6.751  0.3206 -0.0266  0.6426
14891TIP3   OH266087   4.963   4.028   1.054  0.5313  0.1383 -0.9639
14891TIP3    H166088   4.954   3.982   1.138 -2.3640  1.8722 -0.1923
14891TIP3    H266089   5.015   4.105   1.074  0.0074  0.4502 -0.7926
14892TIP3   OH266090   0.745   1.230  11.460 -0.0792 -0.1778 -0.0006
14892TIP3    H166091   0.753   1.319  11.428  3.8109  0.3297  1.8129
14892TIP3    H266092   0.672   1.233  11.522  0.3552  1.9139  0.4744
14893TIP3   OH266093   4.879   6.758  13.152  0.0935 -0.0392  0.4298
14893TIP3    H166094   4.819   6.685  13.171  0.4200 -0.1319  1.1404
14893TIP3    H266095   4.947   6.751  13.220  0.9873 -0.0196 -0.4460
14894TIP3   OH266096   3.549   2.274  13.240 -0.4692 -0.2874  0.4174
14894TIP3    H166097   3.521   2.243  13.154  3.2961 -1.3822 -0.5700
14894TIP3    H266098   3.606   2.205  13.274  0.5376  1.4256  2.4353
14895TIP3   OH266099   5.733   0.780   2.550 -0.5381  0.1617 -0.0774
14895TIP3    H166100   5.677   0.742   2.483 -1.8745  1.6114  0.1733
14895TIP3    H266101   5.699   0.746   2.632  0.3176 -0.6293 -0.0341
14896TIP3   OH266102   3.934   0.416   4.085 -0.0718  0.0741  0.1103
14896TIP3    H166103   3.953   0.332   4.043 -3.9522 -0.4641 -0.9376
14896TIP3    H266104   3.888   0.393   4.166  0.7478  1.1998  0.9243
14897TIP3   OH266105   2.134   0.781   4.049 -0.0242  0.5012 -0.2668
14897TIP3    H166106   2.070   0.710   4.051  1.7064 -1.1035  0.1098
14897TIP3    H266107   2.099   0.842   3.983 -2.5138  0.3041  0.7585
14898TIP3   OH266108   5.316   1.993  15.317  0.0522 -0.4509 -0.4909
14898TIP3    H166109   5.276   2.032  15.239  0.5906 -1.3940 -1.2704
14898TIP3    H266110   5.326   1.901  15.294  0.3243 -0.7181  0.6689
14899TIP3   OH266111   5.628   4.093   5.762 -0.4152 -0.0438 -0.3656
14899TIP3    H166112   5.686   4.044   5.820  0.1007  1.7081  0.6662
14899TIP3    H266113   5.544   4.047   5.768 -0.0346 -0.6368  0.7642
14900TIP3   OH266114   1.456   5.175  16.210  0.0752 -0.7401 -0.0792
14900TIP3    H166115   1.476   5.089  16.174  0.2733 -1.0577  0.7593
14900TIP3    H266116   1.363   5.187  16.194  0.0378 -1.1306 -0.1596
14901TIP3   OH266117   5.730   5.194  13.721 -0.6803 -0.4098 -0.6797
14901TIP3    H166118   5.644   5.167  13.688 -1.0859  0.8514 -0.7293
14901TIP3    H266119   5.721   5.189  13.816 -2.2408  3.4975 -0.4361
14902TIP3   OH266120   1.209   0.851  12.069  0.0426  0.4859 -0.4255
14902TIP3    H166121   1.282   0.844  12.131  1.3186  0.8155 -1.8294
14902TIP3    H266122   1.173   0.939  12.084 -0.3462  0.1671  0.5577
14903TIP3   OH266123   5.845   0.314  14.264 -0.0230 -0.2154 -0.0718
14903TIP3    H166124   5.931   0.354  14.251 -0.2024  0.4307  0.6297
14903TIP3    H266125   5.852   0.227  14.225  0.5679  0.2831 -1.1155
14904TIP3   OH266126   4.126   1.016  11.366 -0.0329 -0.7882 -0.1672
14904TIP3    H166127   4.214   1.038  11.334 -0.6640 -0.6370 -1.9079
14904TIP3    H266128   4.140   0.938  11.420  1.3199 -0.0910  0.5467
14905TIP3   OH266129   1.198   6.169   1.094  0.0492  0.7119  0.1365
14905TIP3    H166130   1.126   6.118   1.058 -0.0180  0.2033  0.9845
14905TIP3    H266131   1.260   6.177   1.021 -1.0510  1.5664 -0.7574
14906TIP3   OH266132   5.114   6.007  11.580  0.3769 -0.1164  0.4426
14906TIP3    H166133   5.153   5.983  11.496  0.6812  2.1814 -0.1229
14906TIP3    H266134   5.094   5.923  11.621  3.3423 -1.3715 -0.4396
14907TIP3   OH266135   5.461   2.295   0.178  0.7683  0.2948  0.0094
14907TIP3    H166136   5.406   2.373   0.181 -0.0931 -0.3318  1.6954
14907TIP3    H266137   5.551   2.329   0.174  0.3793  1.3513 -0.1029
14908TIP3   OH266138   2.120   4.602   4.621 -0.0209  0.5025 -0.2409
14908TIP3    H166139   2.083   4.630   4.537  0.5379 -0.7711 -0.9429
14908TIP3    H266140   2.207   4.641   4.624  0.3576 -0.2640 -0.7489
14909TIP3   OH266141   4.304   1.195  16.172 -0.0153 -0.1249  0.0929
14909TIP3    H166142   4.265   1.169  16.089  0.6427  0.0102 -0.2708
14909TIP3    H266143   4.374   1.256  16.147  0.1475 -0.0335  0.7503
14910TIP3   OH266144   6.723   2.312   1.032 -0.0312  0.2979 -0.2000
14910TIP3    H166145   6.644   2.277   1.072 -0.5402  1.7706  0.1558
14910TIP3    H266146   6.753   2.380   1.093  0.6812  0.7510 -1.0322
14911TIP3   OH266147   5.994   4.068   2.976  0.1331 -0.3135  0.3037
14911TIP3    H166148   6.070   4.103   2.928  0.1002 -0.6052  0.0385
14911TIP3    H266149   6.028   4.049   3.064  0.5640 -1.1819 -0.0466
14912TIP3   OH266150   2.414   1.158  15.713 -0.7014  0.3059  0.2631
14912TIP3    H166151   2.425   1.090  15.779 -1.0611 -0.6126 -0.6081
14912TIP3    H266152   2.449   1.119  15.632 -1.8580  0.7688 -0.4785
14913TIP3   OH266153   2.276   5.799   2.820  0.8898 -0.9142  0.1478
14913TIP3    H166154   2.353   5.853   2.835  0.0411  0.1088  0.8954
14913TIP3    H266155   2.257   5.760   2.905  0.3630 -0.8695  0.0512
14914TIP3   OH266156   0.215   2.144  16.108  1.1074 -0.5032  0.4471
14914TIP3    H166157   0.200   2.052  16.131 -0.0491 -0.1725  1.0827
14914TIP3    H266158   0.159   2.193  16.167  0.1290  0.5279 -1.2610
14915TIP3   OH266159   4.990   0.995  11.205  0.2027 -0.1350  0.0761
14915TIP3    H166160   4.914   1.030  11.158 -0.2072  0.9565  1.4737
14915TIP3    H266161   5.047   1.070  11.219 -0.1656 -0.1792  2.1625
14916TIP3   OH266162   2.486   2.981   5.647 -0.6873 -0.0481  0.2621
14916TIP3    H166163   2.466   2.891   5.673  1.5100 -1.2528 -1.8161
14916TIP3    H266164   2.575   2.995   5.678 -0.0969  0.4767 -1.5523
14917TIP3   OH266165   3.895   3.502  16.709 -0.5429  0.4858  0.0743
14917TIP3    H166166   3.828   3.480  16.773 -0.0569 -0.1784  0.3635
14917TIP3    H266167   3.975   3.515  16.760 -0.2734  0.5108 -0.3429
14918TIP3   OH266168   2.653   2.359   4.219  0.6630  0.0749  0.0793
14918TIP3    H166169   2.606   2.425   4.270  0.7672 -0.2002  0.5470
14918TIP3    H266170   2.651   2.281   4.275  1.1263 -0.1174 -0.1679
14919TIP3   OH266171   4.161   5.142   1.217  0.4144 -0.0960  0.2152
14919TIP3    H166172   4.143   5.215   1.159 -0.5414 -0.1263  0.4533
14919TIP3    H266173   4.251   5.116   1.196 -0.5223 -1.4777 -2.8136
14920TIP3   OH266174   3.877   1.588  14.762 -0.2436 -0.3331  0.0299
14920TIP3    H166175   3.852   1.671  14.720 -0.6806 -0.7363 -0.5214
14920TIP3    H266176   3.850   1.598  14.853  0.0853  0.2860  0.0704
14921TIP3   OH266177   4.853   5.211   0.978  0.4814 -0.3612 -0.2891
14921TIP3    H166178   4.920   5.275   0.953  0.7789  0.4066  2.2482
14921TIP3    H266179   4.902   5.140   1.020 -0.2027  0.1349  1.4453
14922TIP3   OH266180   4.005   6.656  14.495  0.7229 -0.1083 -0.2221
14922TIP3    H166181   4.086   6.679  14.450  1.0773  1.2369  1.0238
14922TIP3    H266182   3.955   6.738  14.496  0.5859 -0.1838  1.4883
14923TIP3   OH266183   6.231   3.924   3.745  0.1712  0.5844  0.3342
14923TIP3    H166184   6.244   3.861   3.816  1.8487  0.2441 -0.2380
14923TIP3    H266185   6.178   3.993   3.784 -0.7749 -0.6364  1.2874
14924TIP3   OH266186   4.845   5.969   4.189  0.0642 -0.1457  0.4088
14924TIP3    H166187   4.911   5.905   4.218  0.7084  0.9942  1.5999
14924TIP3    H266188   4.822   5.941   4.101  1.1573 -1.3683  0.4689
14925TIP3   OH266189   1.504   6.513   2.828  0.3514  0.1930 -0.2651
14925TIP3    H166190   1.593   6.536   2.855 -0.2754  2.6437 -0.1394
14925TIP3    H266191   1.447   6.573   2.877 -1.2908 -0.3653 -1.4155
14926TIP3   OH266192   4.476   3.800  15.822  0.1252 -0.2349 -0.2050
14926TIP3    H166193   4.560   3.760  15.842  1.4331  2.7812  1.0196
14926TIP3    H266194   4.433   3.810  15.907  0.4277  1.9651 -0.2495
14927TIP3   OH266195   5.883   5.611   1.616 -0.4993 -0.2209 -0.3325
14927TIP3    H166196   5.875   5.527   1.661 -3.6227 -0.4079 -1.0011
14927TIP3    H266197   5.910   5.589   1.527 -0.0528 -0.3971 -0.1526
14928TIP3   OH266198   5.240   6.768   5.487  0.1996  0.0602  0.2861
14928TIP3    H166199   5.213   6.855   5.514  1.8017  0.4846  0.6543
14928TIP3    H266200   5.191   6.708   5.544 -1.6282  0.6475 -0.6178
14929TIP3   OH266201   4.487   1.446   3.667  0.5076  0.3947  0.4737
14929TIP3    H166202   4.410   1.391   3.682  0.7398  0.2511  1.1976
14929TIP3    H266203   4.463   1.532   3.702 -0.0472  0.9304 -1.1334
14930TIP3   OH266204   1.144   5.391  12.123 -0.4265  0.2162 -0.0322
14930TIP3    H166205   1.221   5.428  12.081  0.4882  0.5517  1.8059
14930TIP3    H266206   1.152   5.296  12.110 -1.3535  0.4211 -2.4463
14931TIP3   OH266207   0.412   5.698  15.768 -0.1024  0.2447  0.6282
14931TIP3    H166208   0.421   5.693  15.673 -0.2075  0.7307  0.5908
14931TIP3    H266209   0.493   5.740  15.798 -0.4227  0.8452  0.6734
14932TIP3   OH266210   4.211   6.439  17.223  0.4942 -0.2953  0.1522
14932TIP3    H166211   4.151   6.381  17.270  0.1016  0.8255  1.0843
14932TIP3    H266212   4.170   6.526  17.228 -0.9228 -0.4573 -4.5260
14933TIP3   OH266213   5.891   5.455   4.729  0.5241  0.3803  0.1627
14933TIP3    H166214   5.942   5.384   4.769 -0.3564 -0.2403  0.2011
14933TIP3    H266215   5.933   5.535   4.762  0.2982 -0.1063  1.7359
14934TIP3   OH266216   4.682   4.664  17.194  0.6546 -0.2086 -0.2869
14934TIP3    H166217   4.634   4.581  17.199  0.4350 -0.0917 -0.4590
14934TIP3    H266218   4.631   4.717  17.133  0.7231  0.1005 -0.0723
14935TIP3   OH266219   6.726   5.312  12.893 -0.1843 -0.1183 -0.4550
14935TIP3    H166220   6.813   5.347  12.873 -0.5241  0.5301 -0.8177
14935TIP3    H266221   6.696   5.364  12.968 -0.4038 -0.1017 -0.5547
14936TIP3   OH266222   1.406   1.036  11.146  0.4380 -0.1719 -0.0511
14936TIP3    H166223   1.401   0.985  11.065 -2.5278  0.3391 -0.2791
14936TIP3    H266224   1.380   0.975  11.214 -1.8112  0.5846 -0.1590
14937TIP3   OH266225   2.476   1.186   4.747  0.6523 -0.9357 -0.4789
14937TIP3    H166226   2.537   1.260   4.743  0.1992 -0.5980 -2.4308
14937TIP3    H266227   2.392   1.223   4.720 -0.0991 -1.7035  0.7452
14938TIP3   OH266228   6.068   5.838   3.871 -0.8711  0.0540  0.1585
14938TIP3    H166229   6.091   5.817   3.780 -2.1810 -1.5224  0.1464
14938TIP3    H266230   6.067   5.933   3.874  0.6912  0.1455 -1.0739
14939TIP3   OH266231   1.377   5.551   2.260 -1.0076  0.2294  1.0655
14939TIP3    H166232   1.322   5.579   2.187 -1.7138 -0.4831  1.3080
14939TIP3    H266233   1.432   5.627   2.279 -1.0428  0.5318  0.0124
14940TIP3   OH266234   4.085   5.625   6.273  0.9701  0.4143 -0.1465
14940TIP3    H166235   4.044   5.645   6.357  1.2558 -1.4523  0.4784
14940TIP3    H266236   4.132   5.706   6.249 -0.6427  1.6092  0.5290
14941TIP3   OH266237   6.154   3.216  11.822  0.0471 -0.2391  0.0184
14941TIP3    H166238   6.181   3.305  11.801 -0.9796  0.2006  0.4856
14941TIP3    H266239   6.080   3.227  11.882 -1.7880 -1.3648 -1.9265
14942TIP3   OH266240   3.619   6.360  15.500  0.2105 -0.4755  0.9014
14942TIP3    H166241   3.616   6.360  15.595 -1.3516 -1.2705  0.8812
14942TIP3    H266242   3.534   6.396  15.473  0.5180 -0.5200 -0.1983
14943TIP3   OH266243   6.093   3.008  14.743 -0.0876  0.2472 -0.4385
14943TIP3    H166244   6.107   3.086  14.797 -1.9233 -0.1901  0.7552
14943TIP3    H266245   6.147   3.023  14.666  1.3878  1.6403  0.7775
14944TIP3   OH266246   1.011   0.552   5.892  0.0761 -0.2157 -0.0766
14944TIP3    H166247   1.018   0.487   5.822 -0.3200 -0.4488  0.0989
14944TIP3    H266248   1.051   0.510   5.968 -2.2248 -1.1813  0.6731
14945TIP3   OH266249   1.464   2.819  15.835  0.2647  0.4997 -0.4828
14945TIP3    H166250   1.534   2.806  15.898  0.6744  0.0564 -1.0143
14945TIP3    H266251   1.435   2.909  15.849  1.0111  0.7215 -0.3232
14946TIP3   OH266252   6.532   2.253   0.301  0.1362  0.2437 -0.3166
14946TIP3    H166253   6.505   2.226   0.213  1.4673  0.5764 -0.8562
14946TIP3    H266254   6.598   2.189   0.326 -0.0761  0.2858  0.3515
14947TIP3   OH266255   3.491   0.556   3.880 -0.0812 -0.4842  0.6564
14947TIP3    H166256   3.493   0.650   3.899 -0.1901 -0.1738 -0.7987
14947TIP3    H266257   3.583   0.530   3.881  0.2462  0.3064 -1.9423
14948TIP3   OH266258   4.998   5.774   4.439 -0.2955  0.5750  0.1405
14948TIP3    H166259   5.023   5.737   4.524 -0.1805 -1.8287 -0.8654
14948TIP3    H266260   4.919   5.826   4.458 -0.4892 -0.2243  1.6492
14949TIP3   OH266261   3.520   2.856   1.557 -0.6296  0.9086  0.5790
14949TIP3    H166262   3.525   2.773   1.510 -0.3967  1.2454  0.0006
14949TIP3    H266263   3.470   2.913   1.498 -0.1880  1.3845  0.6582
14950TIP3   OH266264   1.437   1.329  13.015  0.5070  0.0915 -0.0157
14950TIP3    H166265   1.346   1.341  13.041  0.6612  2.5266 -0.3484
14950TIP3    H266266   1.434   1.268  12.941 -0.6608 -1.1166  1.0025
14951TIP3   OH266267   0.043   0.246  11.325  0.1409 -0.0544  0.0200
14951TIP3    H166268  -0.050   0.258  11.345  0.5395  1.5867  1.0834
14951TIP3    H266269   0.078   0.200  11.401  0.5974  1.3354  0.6927
14952TIP3   OH266270   4.362   4.292  13.617 -0.0871 -0.4655 -0.6792
14952TIP3    H166271   4.290   4.251  13.664  1.4056 -2.7460 -0.2152
14952TIP3    H266272   4.419   4.219  13.592  2.8198  1.3077  0.2958
14953TIP3   OH266273   5.624   0.389  12.320 -0.4527  0.4384  0.0847
14953TIP3    H166274   5.669   0.473  12.309  0.3635  0.0485  0.3071
14953TIP3    H266275   5.686   0.336  12.371 -1.0872 -0.1904  0.2114
14954TIP3   OH266276   6.189   6.394   2.623 -0.1375  0.2331 -0.2820
14954TIP3    H166277   6.263   6.353   2.579 -0.2649  1.2752 -1.5221
14954TIP3    H266278   6.128   6.322   2.640  0.5122 -0.3978 -0.5841
14955TIP3   OH266279   0.567   5.138   2.407 -0.1437  0.3600  0.5873
14955TIP3    H166280   0.546   5.204   2.473 -1.2412  0.4078  0.2141
14955TIP3    H266281   0.499   5.148   2.340 -0.6378 -1.4499  0.7428
14956TIP3   OH266282   5.751   4.387   4.018  0.2750  0.1057  0.4150
14956TIP3    H166283   5.679   4.367   3.957  0.9074  1.1990 -0.7498
14956TIP3    H266284   5.799   4.458   3.975  0.9605  0.6791  2.0528
14957TIP3   OH266285   4.066   2.529  17.045  0.0600 -0.2187  0.5867
14957TIP3    H166286   4.010   2.551  16.971  1.0918  0.1506 -0.1106
14957TIP3    H266287   4.024   2.570  17.121 -0.4105  0.3525  0.0227
14958TIP3   OH266288   4.735   3.821  16.137  0.0947  0.5067 -0.2816
14958TIP3    H166289   4.809   3.768  16.167  0.6431  1.3606 -0.0912
14958TIP3    H266290   4.772   3.878  16.070 -0.7222 -0.0709 -1.2459
14959TIP3   OH266291   6.774   3.706   5.880  0.1601 -0.3905 -0.0096
14959TIP3    H166292   6.855   3.725   5.926 -0.0833  0.5064  0.0756
14959TIP3    H266293   6.768   3.775   5.813 -1.4584  0.7248  1.2088
14960TIP3   OH266294   3.242   2.277  15.801 -0.1862 -0.0210  0.0700
14960TIP3    H166295   3.309   2.335  15.839 -1.5779  0.0772  2.6511
14960TIP3    H266296   3.246   2.294  15.707  0.8701  2.7456  0.5149
14961TIP3   OH266297   1.530   2.945   0.805  0.2648  0.4376 -0.1630
14961TIP3    H166298   1.465   2.927   0.738 -2.1914  1.2259  1.8748
14961TIP3    H266299   1.558   2.858   0.835 -2.1368 -0.0218  0.9599
14962TIP3   OH266300   3.440   4.142  11.729  0.4821 -0.1881  0.1439
14962TIP3    H166301   3.490   4.110  11.804  1.2232 -1.4838 -0.8731
14962TIP3    H266302   3.355   4.098  11.736  0.2217  0.3653  0.6704
14963TIP3   OH266303   6.599   2.739   4.983 -0.3793  0.3046 -0.2253
14963TIP3    H166304   6.533   2.725   4.916 -0.8193  1.0037  0.0599
14963TIP3    H266305   6.574   2.680   5.054 -0.0192 -0.2958 -0.5781
14964TIP3   OH266306   0.338   3.448   4.684 -0.1872  0.1694 -0.0596
14964TIP3    H166307   0.265   3.421   4.740 -1.2260  0.9718 -0.9968
14964TIP3    H266308   0.333   3.389   4.608 -0.8236  1.2000 -0.8438
14965TIP3   OH266309   6.326   6.674   1.760  0.1379  0.1594  0.1821
14965TIP3    H166310   6.292   6.587   1.738 -0.0018  0.2103  0.1923
14965TIP3    H266311   6.421   6.664   1.758  0.1439  0.3785 -1.2841
14966TIP3   OH266312   6.447   2.778  14.125 -0.1065  0.2223  0.2280
14966TIP3    H166313   6.519   2.797  14.064  0.7645 -1.3853  0.6998
14966TIP3    H266314   6.398   2.707  14.083 -0.6286  0.3991  0.5293
14967TIP3   OH266315   5.445   2.656  13.412 -0.1131 -0.5880 -0.5645
14967TIP3    H166316   5.532   2.640  13.449 -0.4788 -0.5669  0.3416
14967TIP3    H266317   5.461   2.693  13.326  0.8105  1.3934  0.4148
14968TIP3   OH266318   1.087   5.398  13.819  0.2325 -0.5192  0.3061
14968TIP3    H166319   1.154   5.353  13.768 -0.8417 -2.1791  0.3083
14968TIP3    H266320   1.103   5.372  13.910 -0.2811 -0.7584  0.3307
14969TIP3   OH266321   1.709   5.237  14.378 -0.1339 -0.3081  0.0681
14969TIP3    H166322   1.705   5.326  14.344 -1.7282 -1.2754 -2.6170
14969TIP3    H266323   1.803   5.217  14.382  0.2009  1.0635 -0.5039
14970TIP3   OH266324   4.864   2.117   0.428  0.5364  0.1685 -0.2675
14970TIP3    H166325   4.822   2.035   0.455 -0.2650  0.7699  0.3469
14970TIP3    H266326   4.843   2.179   0.497  0.8545  0.9926 -0.8922
14971TIP3   OH266327   2.411   5.184  12.904 -0.4135  0.0291  0.3807
14971TIP3    H166328   2.489   5.225  12.944 -0.8154  1.2162  0.0033
14971TIP3    H266329   2.349   5.256  12.894 -0.2846 -0.1301 -2.5301
14972TIP3   OH266330   4.577   2.421  10.379  0.0868  0.7800  0.2992
14972TIP3    H166331   4.554   2.363  10.452  0.2267  0.2009 -0.1089
14972TIP3    H266332   4.581   2.508  10.418  2.4310  0.2133  1.4986
14973TIP3   OH266333   6.473   4.402  16.087 -0.8149 -0.1750 -0.0750
14973TIP3    H166334   6.564   4.410  16.114 -1.1163 -1.2457  1.4450
14973TIP3    H266335   6.423   4.439  16.160 -1.6006 -0.1107 -0.6327
14974TIP3   OH266336   4.733   0.493   1.246 -0.6150 -0.1818  0.2549
14974TIP3    H166337   4.677   0.570   1.249  0.0398  0.5519 -3.1115
14974TIP3    H266338   4.674   0.419   1.260 -1.7425  0.7743  0.6140
14975TIP3   OH266339   1.769   3.384  10.909  0.5245  0.3111  0.5633
14975TIP3    H166340   1.746   3.476  10.917  1.3323  0.6908 -1.0572
14975TIP3    H266341   1.862   3.383  10.887  1.0262 -1.0011  2.4439
14976TIP3   OH266342   0.842   1.004   0.705  0.5687  0.6869  0.2313
14976TIP3    H166343   0.877   1.078   0.655 -0.8368  1.2526  0.0231
14976TIP3    H266344   0.800   0.949   0.639  0.6018  0.2967  0.5340
14977TIP3   OH266345   3.374   1.612  16.783 -0.5846 -0.0135 -0.2710
14977TIP3    H166346   3.345   1.658  16.704 -1.1371  0.1915  0.0465
14977TIP3    H266347   3.468   1.599  16.770 -1.1344 -2.9406 -2.5058
14978TIP3   OH266348   4.106   2.653  11.936 -0.4060 -0.1162  0.2214
14978TIP3    H166349   4.042   2.691  11.997 -0.1224 -1.9321  1.7297
14978TIP3    H266350   4.053   2.623  11.862 -0.7866  1.8731 -0.3886
14979TIP3   OH266351   0.877   1.768  15.126  0.3845  0.4743  0.6817
14979TIP3    H166352   0.893   1.767  15.031  1.1481  0.1501  0.8101
14979TIP3    H266353   0.784   1.790  15.134  0.5992  1.8005 -0.1128
14980TIP3   OH266354   0.278   5.361  12.174  0.2218 -0.3406 -0.1726
14980TIP3    H166355   0.237   5.291  12.225  0.3491 -0.3482 -0.0819
14980TIP3    H266356   0.285   5.434  12.236 -1.5406  0.3535 -0.7373
14981TIP3   OH266357   4.420   2.584   4.126  0.3348 -0.2700 -0.4087
14981TIP3    H166358   4.493   2.538   4.085  1.9935  1.0326  0.9476
14981TIP3    H266359   4.458   2.664   4.161 -1.8780  0.7599 -0.1429
14982TIP3   OH266360   4.337   5.470  16.982 -0.5459  0.3614 -0.4984
14982TIP3    H166361   4.358   5.556  17.017 -2.5425  0.0040  1.8433
14982TIP3    H266362   4.275   5.433  17.045 -0.5695 -2.3699 -1.9834
14983TIP3   OH266363   5.479   0.511   1.676  0.5204  0.3164  0.6498
14983TIP3    H166364   5.517   0.559   1.749 -0.3874 -0.6516  1.8152
14983TIP3    H266365   5.490   0.568   1.600  0.8992  1.6339  1.6687
14984TIP3   OH266366   0.938   5.642   1.873 -0.4688 -0.0890  0.8656
14984TIP3    H166367   0.923   5.548   1.881 -0.6558 -0.0034  1.6682
14984TIP3    H266368   0.858   5.677   1.834 -0.8610 -0.1214  1.6225
14985TIP3   OH266369   1.313   6.065   0.513 -0.6736 -0.6131 -0.2673
14985TIP3    H166370   1.307   5.969   0.509 -0.4549 -0.5998 -1.3214
14985TIP3    H266371   1.404   6.084   0.489  0.4486 -0.2808  3.6856
14986TIP3   OH266372   5.125   4.540  16.691  0.2452  0.0380  0.2463
14986TIP3    H166373   5.161   4.489  16.763 -0.9905 -2.1326 -0.5811
14986TIP3    H266374   5.196   4.546  16.627  0.5268 -0.3266  0.5188
14987TIP3   OH266375   5.016   2.128   4.704  0.0529 -0.1631 -0.1627
14987TIP3    H166376   4.990   2.133   4.795  0.4196  1.4720 -0.1040
14987TIP3    H266377   4.978   2.206   4.664 -0.3726 -1.0144 -1.4961
14988TIP3   OH266378   3.092   1.319  12.050  0.1992 -0.4504 -0.1637
14988TIP3    H166379   3.128   1.357  11.969  0.4635  0.3424  0.3110
14988TIP3    H266380   3.133   1.233  12.056  0.3866 -0.4091 -0.7287
14989TIP3   OH266381   0.571   4.313   4.118 -0.5488  0.1483 -0.2489
14989TIP3    H166382   0.563   4.283   4.027 -0.9483  0.1144 -0.2033
14989TIP3    H266383   0.481   4.333   4.145 -0.6665 -1.5030  0.7089
14990TIP3   OH266384   6.462   0.818  16.330  1.1520 -0.5558 -0.4601
14990TIP3    H166385   6.388   0.774  16.371 -0.2321  1.2866 -0.8250
14990TIP3    H266386   6.519   0.842  16.403  0.4189 -0.3410  0.0548
14991TIP3   OH266387   3.135   4.383  11.674 -0.1341  0.2472  0.2305
14991TIP3    H166388   3.109   4.331  11.597 -0.1066  0.7174 -0.0988
14991TIP3    H266389   3.189   4.324  11.725  1.7591  0.6172 -1.2397
14992TIP3   OH266390   3.206   1.490   5.750 -0.1879 -0.2902 -0.0945
14992TIP3    H166391   3.202   1.537   5.833  0.5752  0.3490 -0.4112
14992TIP3    H266392   3.178   1.401   5.772  0.4835 -0.2610  0.9544
14993TIP3   OH266393   5.961   5.469   1.375  0.4288 -0.0129  0.1960
14993TIP3    H166394   6.013   5.549   1.364 -0.2467  0.4346  0.1966
14993TIP3    H266395   5.934   5.446   1.286  2.8718 -1.8212 -0.2039
14994TIP3   OH266396   1.341   1.088   5.067  0.5178  0.0464  0.1109
14994TIP3    H166397   1.245   1.092   5.064  0.5942  1.6076 -0.8113
14994TIP3    H266398   1.360   0.994   5.063 -0.9077 -0.2315 -2.2577
14995TIP3   OH266399   0.820   5.310   3.534  0.0108  0.3865 -0.0972
14995TIP3    H166400   0.734   5.306   3.575  0.3466  1.3401  0.7283
14995TIP3    H266401   0.818   5.390   3.481  0.3264  0.3018 -0.2399
14996TIP3   OH266402   0.609   6.554  12.275 -0.1558  0.6277 -0.0463
14996TIP3    H166403   0.638   6.624  12.334  2.5099 -0.3857  0.0047
14996TIP3    H266404   0.559   6.599  12.207 -0.3953  2.2719  1.1610
14997TIP3   OH266405   3.830   0.158  13.228 -0.3050  0.3123  0.1003
14997TIP3    H166406   3.782   0.095  13.282 -0.8795  0.8095  0.1852
14997TIP3    H266407   3.762   0.219  13.196  0.1317  0.4606 -0.5731
14998TIP3   OH266408   5.179   1.754  15.308 -0.4849  0.0073 -0.0503
14998TIP3    H166409   5.118   1.823  15.282 -0.6451  0.4083  1.2904
14998TIP3    H266410   5.136   1.673  15.282 -1.8667  0.2511  1.3079
14999TIP3   OH266411   0.951   0.385  14.978 -0.0454  0.4175  0.7857
14999TIP3    H166412   0.970   0.291  14.968 -1.1594  0.1436  1.0434
14999TIP3    H266413   0.910   0.409  14.895  0.7053  0.8068  0.5247
15000TIP3   OH266414   6.143   3.787  13.305  0.2262  0.0500 -0.3800
15000TIP3    H166415   6.087   3.774  13.381  1.0039 -0.3968  0.1298
15000TIP3    H266416   6.103   3.733  13.236 -1.6293  1.9945 -0.9365
15001TIP3   OH266417   4.047   4.671  16.577 -0.3008  0.2257 -0.0590
15001TIP3    H166418   4.086   4.613  16.642 -0.4958  1.3375  1.0889
15001TIP3    H266419   4.114   4.737  16.561 -0.6083  0.4846 -0.2911
15002TIP3   OH266420   2.451   0.599  13.963  0.2323  0.0896  0.5829
15002TIP3    H166421   2.532   0.597  13.911  0.8982  0.8160  1.5604
15002TIP3    H266422   2.425   0.691  13.963 -0.1865 -0.0258  0.9006
15003TIP3   OH266423   3.055   2.451   3.917  0.5281 -0.0347 -0.4421
15003TIP3    H166424   3.110   2.499   3.979 -0.7563 -0.8649  1.4361
15003TIP3    H266425   2.976   2.428   3.967  0.9973 -3.9959 -1.1872
15004TIP3   OH266426   0.478   4.881   4.240  0.1670 -0.3418 -0.0263
15004TIP3    H166427   0.486   4.816   4.170  1.8110  1.1956 -1.3810
15004TIP3    H266428   0.385   4.900   4.245 -0.1119 -1.3670 -0.9663
15005TIP3   OH266429   3.396   0.789   3.291 -0.5532 -0.0190  0.0349
15005TIP3    H166430   3.407   0.756   3.381 -1.2031  1.9509  0.8888
15005TIP3    H266431   3.364   0.713   3.242 -0.0414 -1.1857  1.4114
15006TIP3   OH266432   2.889   4.477  11.955 -0.2364  0.0552  0.4109
15006TIP3    H166433   2.800   4.461  11.985 -0.4279 -0.0656 -0.2021
15006TIP3    H266434   2.910   4.401  11.902  0.1692  0.1648  0.4127
15007TIP3   OH266435   3.708   1.135  15.581 -0.5761 -0.5118  0.1593
15007TIP3    H166436   3.748   1.177  15.505  1.7314 -0.0369  1.5342
15007TIP3    H266437   3.728   1.042  15.571 -0.4273 -0.4727  0.0911
15008TIP3   OH266438   2.352   1.162  14.114  0.1201 -0.1413  0.5855
15008TIP3    H166439   2.269   1.168  14.162 -0.1517 -0.1927  0.1300
15008TIP3    H266440   2.346   1.230  14.048  0.2803 -0.3983  0.3067
15009TIP3   OH266441   3.998   3.768   0.831  0.1785 -0.4954 -0.0461
15009TIP3    H166442   3.954   3.738   0.910 -1.1311 -0.6906 -0.8179
15009TIP3    H266443   4.092   3.756   0.849 -0.0011  0.6500  1.9256
15010TIP3   OH266444   6.013   3.856  12.216 -0.3735 -0.1529 -0.0938
15010TIP3    H166445   6.041   3.851  12.125  0.2034  1.0748 -0.0167
15010TIP3    H266446   6.068   3.926  12.254 -1.0867 -0.1571  1.0007
15011TIP3   OH266447   4.661   4.056  12.716 -0.2327 -0.2906  0.5488
15011TIP3    H166448   4.613   4.124  12.669  0.2188 -0.7945 -0.6640
15011TIP3    H266449   4.744   4.097  12.740 -0.4345 -0.0561  0.8598
15012TIP3   OH266450   5.061   0.316   1.565 -0.0140 -0.1494 -0.9093
15012TIP3    H166451   5.054   0.349   1.654 -0.9747 -1.1826 -0.5735
15012TIP3    H266452   5.021   0.384   1.511 -0.2524  0.0740 -0.4584
15013TIP3   OH266453   1.520   4.313   1.747  0.3737 -0.0725  0.7554
15013TIP3    H166454   1.536   4.351   1.833  0.3867  2.4923 -0.2914
15013TIP3    H266455   1.432   4.277   1.752 -0.6817  2.3980  1.1207
15014TIP3   OH266456   1.749   2.374   2.914 -0.0386 -0.5138 -0.2547
15014TIP3    H166457   1.818   2.331   2.864 -0.6868 -1.7900 -0.0967
15014TIP3    H266458   1.785   2.383   3.002  0.5942  0.4869 -0.6096
15015TIP3   OH266459   0.817   0.507   5.240 -0.4187  0.1966  0.1827
15015TIP3    H166460   0.805   0.432   5.182 -1.2122  1.3142 -1.1873
15015TIP3    H266461   0.846   0.470   5.323  2.0202 -1.4020 -1.2575
15016TIP3   OH266462   5.287   2.087  11.896 -0.1588 -0.1758 -0.4577
15016TIP3    H166463   5.253   2.016  11.950 -0.7428 -1.6215 -2.6148
15016TIP3    H266464   5.382   2.075  11.897 -0.1254  0.0706  0.5331
15017TIP3   OH266465   2.802   3.362  11.137  0.3141  0.2388 -0.0141
15017TIP3    H166466   2.733   3.356  11.203 -0.2349  1.0689 -0.4853
15017TIP3    H266467   2.864   3.424  11.174  0.9088 -0.6379  0.4844
15018TIP3   OH266468   1.862   5.165  12.566 -0.4674 -0.3365 -0.3421
15018TIP3    H166469   1.810   5.231  12.521 -2.1033  0.8114  2.9196
15018TIP3    H266470   1.926   5.215  12.617 -0.8488 -1.2812  1.1301
15019TIP3   OH266471   4.047   0.915  12.501  0.0606  0.3426  0.1070
15019TIP3    H166472   4.143   0.921  12.499  0.0831  0.1604  0.5235
15019TIP3    H266473   4.022   0.895  12.411  0.4725 -0.3601  0.1386
15020TIP3   OH266474   3.045   2.063  16.301  0.7009 -0.1474  0.3008
15020TIP3    H166475   3.116   2.122  16.327  1.4571 -0.3882 -1.1031
15020TIP3    H266476   2.989   2.116  16.245  0.5127 -0.3255  0.3200
15021TIP3   OH266477   6.565   4.449   3.079  0.5251  0.0466  0.2000
15021TIP3    H166478   6.625   4.523   3.069  0.7981 -0.2696 -0.5874
15021TIP3    H266479   6.478   4.486   3.063  0.6780  0.1621 -0.3770
15022TIP3   OH266480   2.516   1.640  10.919 -0.6775  0.1449  0.4557
15022TIP3    H166481   2.536   1.729  10.891  0.3393  0.2108  1.3196
15022TIP3    H266482   2.465   1.603  10.847  3.8336 -0.5225 -2.8603
15023TIP3   OH266483   2.384   5.435   2.273 -0.1253 -0.1395  0.5995
15023TIP3    H166484   2.351   5.484   2.349 -1.2688 -0.2685  0.1953
15023TIP3    H266485   2.324   5.362   2.263  0.4553 -0.5516  0.0114
15024TIP3   OH266486   5.731   0.063   6.213  0.1423  0.3464  0.3255
15024TIP3    H166487   5.779   0.015   6.281 -1.4853 -0.9599  0.6010
15024TIP3    H266488   5.750   0.155   6.232  1.9221 -0.0753  0.8518
15025TIP3   OH266489   4.380   0.241  16.204  0.2926  0.2307  0.3303
15025TIP3    H166490   4.411   0.175  16.143  2.2902 -1.6199  3.0975
15025TIP3    H266491   4.456   0.297  16.220 -0.2256  0.7769  0.9486
15026TIP3   OH266492   0.593   0.117   2.718  0.2062 -0.2007  0.4899
15026TIP3    H166493   0.638   0.114   2.802 -0.1950 -0.8051  0.6903
15026TIP3    H266494   0.572   0.025   2.699  1.0317 -0.1664 -0.6671
15027TIP3   OH266495   2.710   2.025  12.911 -0.2075  0.3708 -0.1884
15027TIP3    H166496   2.780   2.079  12.948  0.8817 -0.1631 -1.3946
15027TIP3    H266497   2.665   1.989  12.987 -0.0865  1.8355  0.6251
15028TIP3   OH266498   2.748   5.044  11.232  0.4036  0.0182  0.1701
15028TIP3    H166499   2.790   5.067  11.314  1.1457  0.0814 -0.2230
15028TIP3    H266500   2.728   5.128  11.190 -0.9692  0.0114  0.7716
15029TIP3   OH266501   3.342   1.281  15.995 -0.2102 -0.4647  0.2099
15029TIP3    H166502   3.416   1.264  16.053  1.0608 -1.9992 -1.7442
15029TIP3    H266503   3.381   1.295  15.909 -2.0996  0.6057 -0.5396
15030TIP3   OH266504   4.798   6.069   2.848 -0.6608 -0.4158 -0.1074
15030TIP3    H166505   4.738   6.110   2.785  0.2945 -1.7756 -2.0190
15030TIP3    H266506   4.885   6.095   2.819 -0.0954 -2.5984 -0.5887
15031TIP3   OH266507   1.706   4.217   5.270 -0.2047  0.3338  0.0676
15031TIP3    H166508   1.734   4.306   5.289 -0.6893  0.0524  2.3306
15031TIP3    H266509   1.623   4.228   5.222 -0.1641  1.0876  0.1646
15032TIP3   OH266510   4.611   0.760   2.981 -0.2440 -0.5859  0.6597
15032TIP3    H166511   4.586   0.699   2.912  2.0997 -1.1023  0.1988
15032TIP3    H266512   4.528   0.797   3.011 -1.5191 -2.1324 -0.7616
15033TIP3   OH266513   5.452   5.535   5.661  0.5068  0.1456 -0.2263
15033TIP3    H166514   5.486   5.586   5.587 -0.6028 -0.3794 -1.1171
15033TIP3    H266515   5.527   5.526   5.720  1.1850  1.2979 -0.8809
15034TIP3   OH266516   4.293   0.325  16.456 -0.0659  0.3394  0.0502
15034TIP3    H166517   4.231   0.379  16.407  1.0221  1.4620 -0.1231
15034TIP3    H266518   4.335   0.271  16.390  0.0912  0.5395 -0.0143
15035TIP3   OH266519   5.123   3.068  15.595  0.0064 -0.2469 -0.2873
15035TIP3    H166520   5.034   3.044  15.619 -0.3120 -0.3899 -1.5662
15035TIP3    H266521   5.176   3.044  15.672 -1.2167  1.1266  1.0431
15036TIP3   OH266522   4.814   4.414   2.886  1.2808  0.7488  0.0010
15036TIP3    H166523   4.855   4.497   2.862  0.7768  0.6209 -1.4292
15036TIP3    H266524   4.720   4.432   2.887  1.2126  0.4088  0.6089
15037TIP3   OH266525   1.306   6.016  11.803 -0.2702  0.1408  0.5874
15037TIP3    H166526   1.379   5.955  11.803 -0.9636 -0.7070  0.0067
15037TIP3    H266527   1.237   5.972  11.854 -1.2077 -0.1176 -0.8556
15038TIP3   OH266528   0.726   1.001  14.800  0.5027  0.9044 -0.5463
15038TIP3    H166529   0.681   0.934  14.851  0.9016  0.7085 -0.4505
15038TIP3    H266530   0.666   1.021  14.728  0.7043 -0.0810 -0.9928
15039TIP3   OH266531   1.471   5.093  11.636 -0.1178  0.1556  0.0814
15039TIP3    H166532   1.505   5.047  11.559 -0.8955 -1.1541  0.4741
15039TIP3    H266533   1.515   5.051  11.710 -1.3384 -0.4418  0.4932
15040TIP3   OH266534   1.627   0.113  13.326  0.1061 -0.1538  0.3810
15040TIP3    H166535   1.587   0.198  13.340  3.1671  1.3907  0.4955
15040TIP3    H266536   1.699   0.129  13.265 -1.1982 -3.3080 -2.3292
15041TIP3   OH266537   3.225   3.713  15.324  0.4639 -0.3551  0.5509
15041TIP3    H166538   3.232   3.693  15.418  2.4436 -0.6558  0.3964
15041TIP3    H266539   3.166   3.788  15.319 -0.0007 -0.5991  2.0027
15042TIP3   OH266540   4.750   4.220  15.034 -0.6969  0.1245  1.0007
15042TIP3    H166541   4.683   4.270  15.081  0.3559  2.5044  0.0967
15042TIP3    H266542   4.827   4.223  15.091 -1.1260 -2.2186  1.8242
15043TIP3   OH266543   2.068   1.826   3.853 -0.0031 -0.2546  0.1333
15043TIP3    H166544   2.025   1.763   3.912 -1.4647  1.8093  1.4076
15043TIP3    H266545   2.092   1.774   3.776 -0.4238 -2.5140  1.4404
15044TIP3   OH266546   1.017   4.671   3.256  0.8489  0.0609  0.2066
15044TIP3    H166547   0.993   4.651   3.165  0.2588  0.1877  0.3324
15044TIP3    H266548   1.093   4.616   3.273  0.1705 -0.9395  0.0575
15045TIP3   OH266549   3.662   0.950   5.376 -0.4793 -0.0542  0.4360
15045TIP3    H166550   3.597   1.016   5.397 -0.4995  0.0301  0.1150
15045TIP3    H266551   3.621   0.867   5.399 -0.0796  0.1069  1.7751
15046TIP3   OH266552   2.293   1.926  13.105  0.6244 -0.2679 -0.7082
15046TIP3    H166553   2.332   1.995  13.051 -0.6701  0.6278 -0.5688
15046TIP3    H266554   2.287   1.965  13.192  1.2177 -1.1104 -0.2800
15047TIP3   OH266555   1.350   2.345  15.880  0.7490  0.1713  0.1799
15047TIP3    H166556   1.399   2.277  15.926  1.0690 -0.2739 -0.8119
15047TIP3    H266557   1.376   2.426  15.923  0.7657 -0.2668  1.0252
15048TIP3   OH266558   3.803   0.779   2.305 -0.0182 -0.0513 -0.9364
15048TIP3    H166559   3.741   0.836   2.349  2.1818  0.7826  1.3215
15048TIP3    H266560   3.817   0.706   2.366  1.8313  0.2536 -0.9253
15049TIP3   OH266561   1.905   3.446   3.357 -0.5024 -0.1099 -0.1795
15049TIP3    H166562   1.968   3.470   3.289 -0.4960  2.1735  0.5709
15049TIP3    H266563   1.861   3.368   3.322  2.1597 -1.3378 -1.0527
15050TIP3   OH266564   5.675   1.484  15.379  0.3843 -0.1059  0.4229
15050TIP3    H166565   5.714   1.428  15.447 -1.0316  0.8188  2.0732
15050TIP3    H266566   5.587   1.504  15.411  0.4260  2.1289 -0.6515
15051TIP3   OH266567   4.958   1.330   5.613  0.0472 -0.6928  0.2879
15051TIP3    H166568   4.953   1.410   5.561  0.6467  2.4525  4.5943
15051TIP3    H266569   5.052   1.312   5.619  0.1254  0.1221  1.7762
15052TIP3   OH266570   2.005   4.045   3.694 -0.0686 -0.1873 -0.1873
15052TIP3    H166571   2.076   3.996   3.654 -0.3201 -0.1356 -0.6967
15052TIP3    H266572   2.037   4.067   3.782  1.7837  2.4613 -1.3907
15053TIP3   OH266573   2.901   3.008   2.677 -0.1997 -0.5120 -0.0528
15053TIP3    H166574   2.990   2.974   2.676  0.1317  0.3237 -0.2471
15053TIP3    H266575   2.909   3.096   2.639 -0.9105  0.0146  0.9572
15054TIP3   OH266576   2.474   4.701   1.250 -0.0026  0.2022  0.1389
15054TIP3    H166577   2.532   4.642   1.203  0.4934  2.4421 -2.2610
15054TIP3    H266578   2.388   4.689   1.209 -0.1537  0.3272  0.4129
15055TIP3   OH266579   0.199   1.848  12.043  0.2233  0.0999 -0.3296
15055TIP3    H166580   0.283   1.892  12.056  0.4871 -0.7033  0.7823
15055TIP3    H266581   0.222   1.759  12.015 -0.2396 -0.2749  0.4528
15056TIP3   OH266582   3.838   0.231   2.448 -0.5765 -0.1348 -0.0498
15056TIP3    H166583   3.820   0.297   2.515 -1.2862  0.8388 -1.1721
15056TIP3    H266584   3.835   0.148   2.495 -3.1079  0.3467  0.7787
15057TIP3   OH266585   3.946   2.033  15.554 -0.6344  0.2398 -0.5354
15057TIP3    H166586   3.923   2.091  15.481 -0.4979  0.7266 -0.1994
15057TIP3    H266587   3.908   2.075  15.631  1.2629  1.0571  0.0336
15058TIP3   OH266588   2.422   0.132   6.820  0.0657  0.2215 -0.7457
15058TIP3    H166589   2.513   0.102   6.817  0.3532  0.9091  0.4183
15058TIP3    H266590   2.425   0.223   6.791 -0.4942 -0.1884 -2.1764
15059TIP3   OH266591   6.062   4.828   4.839 -0.6253  0.4049 -0.6112
15059TIP3    H166592   6.141   4.869   4.875 -0.4964 -1.0956  0.9412
15059TIP3    H266593   5.990   4.865   4.891 -0.4314 -1.8239  1.4351
15060TIP3   OH266594   6.180   5.770  16.523 -0.1655  0.0404 -0.3780
15060TIP3    H166595   6.142   5.759  16.610  0.3891  0.6699 -0.0415
15060TIP3    H266596   6.148   5.695  16.472  0.0240 -0.6746  0.5467
15061TIP3   OH266597   3.460   4.852   6.486 -0.0406 -0.6948  0.3132
15061TIP3    H166598   3.399   4.926   6.483  1.7385  0.8184  0.0569
15061TIP3    H266599   3.447   4.814   6.573 -3.2518 -2.1809 -0.6306
15062TIP3   OH266600   3.171   4.652   6.234 -0.0424 -0.4847 -0.4110
15062TIP3    H166601   3.124   4.626   6.313  1.2834 -2.5883 -0.2415
15062TIP3    H266602   3.154   4.582   6.171  0.2966  0.3149 -1.4317
15063TIP3   OH266603   2.989   4.808   1.077  0.0440 -0.4046  0.0702
15063TIP3    H166604   3.058   4.766   1.127  0.8260  1.4394  0.6320
15063TIP3    H266605   2.925   4.836   1.142 -0.5949 -0.9005 -0.3205
15064TIP3   OH266606   1.574   1.600   1.143 -0.2556  0.1170 -0.1466
15064TIP3    H166607   1.483   1.570   1.143  0.1567 -1.2084 -0.2255
15064TIP3    H266608   1.571   1.686   1.101 -1.3388 -0.3541 -1.0860
15065TIP3   OH266609   0.426   1.011  13.126  0.1053  0.1430  0.5917
15065TIP3    H166610   0.444   1.036  13.216 -0.5155  1.9861  0.2354
15065TIP3    H266611   0.334   0.985  13.126 -1.2028  4.1170 -0.1960
15066TIP3   OH266612   2.708   0.162  17.153  0.4300  0.5828 -0.7799
15066TIP3    H166613   2.623   0.173  17.110 -0.0829 -0.6995 -0.1500
15066TIP3    H266614   2.772   0.182  17.085 -0.3616 -0.7593 -1.9750
15067TIP3   OH266615   6.248   1.936  13.626  0.1706  0.4329  0.1321
15067TIP3    H166616   6.342   1.951  13.635  0.3978 -0.9291  0.1971
15067TIP3    H266617   6.226   1.971  13.540  0.9477 -0.1895 -0.3291
15068TIP3   OH266618   5.958   2.844   6.289 -0.5105  0.4110 -0.2235
15068TIP3    H166619   5.934   2.752   6.298 -1.0931  0.4416 -1.2666
15068TIP3    H266620   5.914   2.887   6.362  1.1129 -0.3391  1.2720
15069TIP3   OH266621   6.343   0.495  12.723 -0.6620 -0.3335  0.3027
15069TIP3    H166622   6.330   0.584  12.757 -2.7692 -1.2720  2.2442
15069TIP3    H266623   6.329   0.502  12.629 -1.1367  1.3341  0.4737
15070TIP3   OH266624   1.524   1.518   4.511  0.5430  0.0487  0.5461
15070TIP3    H166625   1.547   1.586   4.575 -0.9072  0.0671  1.0833
15070TIP3    H266626   1.502   1.567   4.432 -2.0192  0.3795  1.3861
15071TIP3   OH266627   2.217   1.336   1.209  0.2170  0.5047  0.2010
15071TIP3    H166628   2.184   1.246   1.205  0.0735  0.5524  0.3148
15071TIP3    H266629   2.312   1.327   1.200  0.3662  0.2156  1.8572
15072TIP3   OH266630   6.063   5.789  12.421 -0.2985 -0.2196  0.1156
15072TIP3    H166631   6.030   5.725  12.358 -0.2940  0.8495 -0.9947
15072TIP3    H266632   5.985   5.826  12.461 -0.3164 -0.5409  0.3799
15073TIP3   OH266633   3.348   2.609  12.839 -0.1379 -0.3028  0.1047
15073TIP3    H166634   3.324   2.600  12.931 -0.4399 -2.0846 -0.0993
15073TIP3    H266635   3.360   2.703  12.826 -1.5257  0.1302  1.5989
15074TIP3   OH266636   2.143   2.777  14.552  0.2446  0.3810 -0.7477
15074TIP3    H166637   2.113   2.703  14.499 -0.6461  0.8812 -0.9631
15074TIP3    H266638   2.165   2.845  14.488  2.7065 -0.2395 -0.6453
15075TIP3   OH266639   1.246   2.185   2.184  1.1269  0.5690  0.1461
15075TIP3    H166640   1.185   2.216   2.251  1.4367  0.0527  0.6745
15075TIP3    H266641   1.192   2.173   2.106  0.8853  1.8362  0.0879
15076TIP3   OH266642   5.463   1.537   1.158  0.0344 -0.0483  0.0040
15076TIP3    H166643   5.430   1.584   1.235 -1.1657 -1.9835  0.7334
15076TIP3    H266644   5.555   1.519   1.179 -0.0279  0.2671  0.5626
15077TIP3   OH266645   3.356   1.540   1.741 -0.3052  0.5130  0.0794
15077TIP3    H166646   3.402   1.510   1.819  0.1927  1.2870  0.0960
15077TIP3    H266647   3.324   1.627   1.765  1.6918  1.6879 -1.2696
15078TIP3   OH266648   5.037   3.200   3.950 -1.0982 -0.1284 -0.4140
15078TIP3    H166649   5.037   3.117   3.997 -2.9828  0.5710  0.9067
15078TIP3    H266650   5.060   3.265   4.016  0.0487  0.4824 -1.3687
15079TIP3   OH266651   2.240   4.121  12.679  0.0509 -0.0804  0.2689
15079TIP3    H166652   2.192   4.065  12.739  0.1540  1.5915  2.0255
15079TIP3    H266653   2.326   4.131  12.719  0.3920  0.4689 -0.5634
15080TIP3   OH266654   3.249   4.564   4.101 -0.6201 -0.4330 -0.3632
15080TIP3    H166655   3.305   4.580   4.026  0.4562 -0.9041  0.3123
15080TIP3    H266656   3.304   4.582   4.177 -1.8015  0.4250  0.3319
15081TIP3   OH266657   3.729   6.218   6.556 -0.0646  0.0985  0.4979
15081TIP3    H166658   3.797   6.215   6.624  1.4756  0.7285 -0.9597
15081TIP3    H266659   3.680   6.136   6.568  1.7524 -0.9966  0.8036
15082TIP3   OH266660   6.118   2.757  14.912  0.5547  0.0685  0.7563
15082TIP3    H166661   6.087   2.834  14.864  0.8439  0.5305  1.3042
15082TIP3    H266662   6.211   2.773  14.925  0.7694 -0.7065  0.2638
15083TIP3   OH266663   4.682   6.111  15.095 -0.1198 -0.0176 -0.0443
15083TIP3    H166664   4.600   6.110  15.145 -0.0440 -0.6593  0.0762
15083TIP3    H266665   4.705   6.019  15.085  1.2806  0.1846  1.0606
15084TIP3   OH266666   6.182   6.015  13.659  0.2998  0.2029  0.2844
15084TIP3    H166667   6.141   6.084  13.607  0.5498 -1.0002 -1.6200
15084TIP3    H266668   6.110   5.973  13.705 -0.1502  0.3205 -0.3011
15085TIP3   OH266669   2.954   5.478   0.089 -0.3703  0.2637  0.2343
15085TIP3    H166670   2.889   5.542   0.058  0.0804  0.2597 -0.7383
15085TIP3    H266671   3.004   5.525   0.155  0.8723  1.4352 -1.4441
15086TIP3   OH266672   2.774   1.649  16.123  0.1768 -0.2786  0.2688
15086TIP3    H166673   2.813   1.660  16.210  0.1058 -2.0399  0.5602
15086TIP3    H266674   2.703   1.587  16.137 -1.2811  1.1059 -0.6793
15087TIP3   OH266675   3.062   4.730   3.965 -0.1175 -0.5254  0.6342
15087TIP3    H166676   3.017   4.658   3.921 -1.5537  0.5808  0.2436
15087TIP3    H266677   3.108   4.688   4.038 -0.6155 -1.8815  0.1936
15088TIP3   OH266678   4.685   0.101  11.978  0.2124  0.4686 -0.2883
15088TIP3    H166679   4.637   0.183  11.970 -0.4559  0.1112 -0.0569
15088TIP3    H266680   4.721   0.086  11.890  3.0705  2.5953  0.3686
15089TIP3   OH266681   6.029   6.108   0.687  0.4852  0.0709  0.6299
15089TIP3    H166682   6.100   6.046   0.705  1.1391  0.3534 -0.7967
15089TIP3    H266683   5.970   6.100   0.762  0.9725 -1.6689  0.8634
15090TIP3   OH266684   2.954   2.645  17.209  0.6740  0.1683 -0.2385
15090TIP3    H166685   3.016   2.626  17.139  1.0995  1.8021 -0.3629
15090TIP3    H266686   2.944   2.563  17.256  2.6499 -0.2476 -0.4507
15091TIP3   OH266687   0.424   3.718   4.493 -0.2591  0.7300  0.2545
15091TIP3    H166688   0.449   3.629   4.467 -0.3314  1.0164 -0.8484
15091TIP3    H266689   0.463   3.729   4.580 -0.5199 -0.4860  0.5417
15092TIP3   OH266690   1.663   0.489   3.973  0.1477 -0.0848 -0.5911
15092TIP3    H166691   1.620   0.525   3.895  1.9184  0.1112 -1.5095
15092TIP3    H266692   1.638   0.549   4.043 -1.4969 -0.2748 -0.9503
15093TIP3   OH266693   0.841   1.062  13.243  0.6394 -0.1839  0.7286
15093TIP3    H166694   0.931   1.092  13.258  0.0865  1.2803  1.2244
15093TIP3    H266695   0.786   1.137  13.265 -0.7277 -1.0962  0.5495
15094TIP3   OH266696   2.344   5.475   1.868  0.1565 -0.3831 -0.2114
15094TIP3    H166697   2.382   5.538   1.806 -0.9909  0.3481 -0.1855
15094TIP3    H266698   2.267   5.518   1.903  0.5626 -0.9438  1.4735
15095TIP3   OH266699   1.184   0.387   1.340  0.3259 -0.0017  0.3643
15095TIP3    H166700   1.185   0.333   1.261  0.1071  1.7968 -0.9230
15095TIP3    H266701   1.099   0.430   1.339  1.0484  1.5165  0.5087
15096TIP3   OH266702   2.395   5.131   0.789  0.3974 -0.0361  0.1653
15096TIP3    H166703   2.418   5.154   0.699 -0.8922 -0.0687 -0.1899
15096TIP3    H266704   2.411   5.212   0.839  0.5864  0.1453 -0.1844
15097TIP3   OH266705   3.960   4.943   3.615 -0.3274  0.3091  0.4212
15097TIP3    H166706   3.937   4.851   3.628  0.1722  0.5205  3.5055
15097TIP3    H266707   3.885   4.980   3.569 -0.9653 -1.4291 -0.0090
15098TIP3   OH266708   2.903   4.161  14.920 -0.0079  0.3582  0.2560
15098TIP3    H166709   2.955   4.241  14.916  0.2365  0.2270  0.7372
15098TIP3    H266710   2.824   4.181  14.871  0.0033  0.9303  0.4697
15099TIP3   OH266711   3.944   0.154  11.444 -0.1297  0.4660 -0.1631
15099TIP3    H166712   3.914   0.153  11.535  0.5339 -0.8008  0.0590
15099TIP3    H266713   3.968   0.064  11.425  1.1581  0.9755 -1.1191
15100TIP3   OH266714   1.886   4.071   1.565  0.5965 -0.1519  0.1699
15100TIP3    H166715   1.792   4.079   1.580  0.4147 -0.5900 -0.6767
15100TIP3    H266716   1.896   3.988   1.520  1.4016 -0.1319  0.3025
15101TIP3   OH266717   3.674   4.743   4.900  0.5213  0.1532  0.1834
15101TIP3    H166718   3.648   4.822   4.851  0.7469  0.8771  1.2050
15101TIP3    H266719   3.595   4.717   4.947  0.3673 -0.4097 -0.3830
15102TIP3   OH266720   2.815   3.812   0.534  0.3489 -0.5819  0.2179
15102TIP3    H166721   2.805   3.906   0.542  0.3273 -0.6045  0.4430
15102TIP3    H266722   2.726   3.780   0.519  0.5296 -0.3998 -1.5650
15103TIP3   OH266723   1.263   4.683   3.698  0.1709  0.3258  0.1824
15103TIP3    H166724   1.258   4.702   3.604 -0.0524 -0.0548  0.1189
15103TIP3    H266725   1.186   4.630   3.717 -1.1035  2.3749  1.0612
15104TIP3   OH266726   1.420   4.066  11.256 -0.0719 -0.3075 -0.5036
15104TIP3    H166727   1.360   4.139  11.249 -0.1152 -0.4919 -2.3347
15104TIP3    H266728   1.367   3.988  11.236 -0.5249 -1.1815  3.3083
15105TIP3   OH266729   6.265   1.769  15.962 -0.2441 -0.2672  0.2992
15105TIP3    H166730   6.219   1.829  16.020 -1.2426  0.0258 -0.7561
15105TIP3    H266731   6.245   1.682  15.996  2.3710 -0.0613  2.7034
15106TIP3   OH266732   4.478   5.066  14.891 -0.5342  0.4549  0.0325
15106TIP3    H166733   4.481   4.982  14.845  0.2203  1.9308 -2.9282
15106TIP3    H266734   4.570   5.090  14.904 -0.7304  0.1680  2.3104
15107TIP3   OH266735   2.190   4.990   2.146  0.1666  0.0905 -0.1130
15107TIP3    H166736   2.247   5.000   2.070  1.3520  1.5822  0.9111
15107TIP3    H266737   2.107   5.028   2.119  0.1255 -0.6803 -1.1064
15108TIP3   OH266738   6.615   1.503  11.206  0.0381 -0.2601 -0.1672
15108TIP3    H166739   6.542   1.441  11.205 -1.7644  1.7251  0.1182
15108TIP3    H266740   6.688   1.455  11.167 -1.4264 -2.3226 -0.5431
15109TIP3   OH266741   5.384   4.377  15.736  0.0164 -0.0322  0.6072
15109TIP3    H166742   5.300   4.369  15.781  0.4914 -0.1663  1.4796
15109TIP3    H266743   5.391   4.296  15.685 -0.3483 -0.0499  0.5828
15110TIP3   OH266744   1.326   2.651   4.693  0.0469 -0.1072  0.1365
15110TIP3    H166745   1.265   2.595   4.646  1.2431  0.0948 -1.8054
15110TIP3    H266746   1.308   2.739   4.660 -0.7957  0.4759  2.0283
15111TIP3   OH266747   0.306   4.604  13.128 -0.4050  0.3070 -0.9013
15111TIP3    H166748   0.281   4.672  13.191  0.6879  0.3650 -0.5112
15111TIP3    H266749   0.336   4.531  13.182  0.2014  0.2258 -1.3337
15112TIP3   OH266750   0.911   2.579   5.672  0.2256 -0.1219  0.4352
15112TIP3    H166751   0.882   2.643   5.738 -0.8009  0.5640 -0.6358
15112TIP3    H266752   0.926   2.499   5.722  1.6398  0.9418  1.8412
15113TIP3   OH266753   6.283   0.242  12.488 -0.1798 -0.0771 -0.5798
15113TIP3    H166754   6.344   0.266  12.558  1.7382  1.4880 -2.6193
15113TIP3    H266755   6.198   0.237  12.531  0.7321  1.8348  1.7026
15114TIP3   OH266756   5.968   2.123   3.795  0.3433  0.9546  0.5268
15114TIP3    H166757   6.036   2.190   3.794  0.8026  0.5224 -1.1092
15114TIP3    H266758   5.991   2.065   3.723 -1.6837  0.7104  0.0119
15115TIP3   OH266759   0.573   1.488   3.201 -0.1919 -0.0767  0.1382
15115TIP3    H166760   0.647   1.489   3.141  0.2220 -0.3211  0.6335
15115TIP3    H266761   0.520   1.564   3.176  0.4434  0.3421  0.0426
15116TIP3   OH266762   2.720   2.353  10.951  0.4975  0.1917  0.0919
15116TIP3    H166763   2.690   2.404  10.876  1.0667  1.8258  0.9213
15116TIP3    H266764   2.766   2.278  10.912 -0.8155  0.0001 -1.1602
15117TIP3   OH266765   4.732   3.564  14.467 -0.2650 -0.2265 -0.1146
15117TIP3    H166766   4.812   3.551  14.519 -1.0697 -2.0576  0.7918
15117TIP3    H266767   4.661   3.560  14.531 -1.2868 -2.2999 -1.2480
15118TIP3   OH266768   2.805   1.378  16.521 -0.4402 -0.4503 -0.2842
15118TIP3    H166769   2.820   1.386  16.615  1.9138 -1.5856 -0.5061
15118TIP3    H266770   2.865   1.310  16.492 -0.4737  0.4629 -2.7715
15119TIP3   OH266771   5.718   3.143   3.675 -0.4712  0.1283 -0.0673
15119TIP3    H166772   5.696   3.118   3.585 -1.6691  1.2741 -0.1143
15119TIP3    H266773   5.634   3.154   3.718  0.0441 -1.9378  1.6840
15120TIP3   OH266774   3.874   4.616   2.208 -0.4215  0.4655  0.0196
15120TIP3    H166775   3.815   4.542   2.191 -0.3491  0.1735  0.9807
15120TIP3    H266776   3.950   4.599   2.152 -2.1093  2.0038 -2.9721
15121TIP3   OH266777   5.325   0.351  17.145  0.3963  0.5884 -0.5354
15121TIP3    H166778   5.332   0.264  17.185  0.5429  1.1463  0.6821
15121TIP3    H266779   5.415   0.372  17.118  0.4558  0.5878 -0.3383
15122TIP3   OH266780   3.958   4.167  15.643 -0.2138  0.0246 -0.1580
15122TIP3    H166781   3.966   4.120  15.726 -0.9990 -1.0783 -0.6775
15122TIP3    H266782   3.964   4.099  15.576 -0.7391  0.7372 -0.9556
15123TIP3   OH266783   4.223   4.797  12.498 -0.3685  0.1587  0.5351
15123TIP3    H166784   4.232   4.735  12.426 -0.3776 -0.0182  0.6871
15123TIP3    H266785   4.213   4.882  12.455 -0.1840  0.0763  0.3322
15124TIP3   OH266786   2.446   2.043  15.043  0.1314 -0.4029 -0.0510
15124TIP3    H166787   2.469   1.955  15.071 -1.4488 -0.3388  1.6734
15124TIP3    H266788   2.510   2.100  15.086 -1.3314 -0.4417  2.3564
15125TIP3   OH266789   0.735   0.289  13.262  0.5749  0.3866  0.4696
15125TIP3    H166790   0.713   0.198  13.242  1.1839  0.5732 -1.2221
15125TIP3    H266791   0.661   0.320  13.314 -1.5868  0.0077 -2.1306
15126TIP3   OH266792   5.345   3.963   3.400 -0.2964 -0.0840 -0.2653
15126TIP3    H166793   5.358   3.985   3.308 -1.2660 -0.0812 -0.4152
15126TIP3    H266794   5.268   3.906   3.400 -0.4142  0.0669  0.5645
15127TIP3   OH266795   1.041   3.385   4.084  0.0096  0.0432  0.2812
15127TIP3    H166796   1.136   3.393   4.087 -0.0591  0.7435  0.8703
15127TIP3    H266797   1.021   3.311   4.141  0.2094 -0.1729  0.0695
15128TIP3   OH266798   6.372   3.270   1.610 -0.3352 -0.3016 -0.2376
15128TIP3    H166799   6.457   3.286   1.568 -0.0607 -1.4204 -0.1537
15128TIP3    H266800   6.326   3.211   1.550 -0.6952 -0.4125  0.1380
15129TIP3   OH266801   5.935   6.555   3.537  0.2293  0.1300 -0.1463
15129TIP3    H166802   5.994   6.544   3.611 -0.1395  1.4432  0.3760
15129TIP3    H266803   5.931   6.650   3.525 -2.2859  0.1204  0.2390
15130TIP3   OH266804   0.846   1.456   5.520 -0.7280 -0.2071  0.3924
15130TIP3    H166805   0.928   1.459   5.472 -0.0156 -0.2092  1.5723
15130TIP3    H266806   0.837   1.364   5.547 -0.6586 -0.0305  1.0280
15131TIP3   OH266807   1.160   2.576   1.095  0.3828  0.2827 -0.0788
15131TIP3    H166808   1.194   2.651   1.048 -1.2552  0.2658 -1.3752
15131TIP3    H266809   1.230   2.510   1.089  1.4282  1.3294  0.2243
15132TIP3   OH266810   5.897   3.105  12.630 -0.3344  0.1598  0.1601
15132TIP3    H166811   5.858   3.189  12.606 -1.8956 -0.2564  1.1136
15132TIP3    H266812   5.857   3.041  12.570 -0.9943 -0.2379  0.9997
15133TIP3   OH266813   4.574   5.813  17.006  0.2137  0.0612 -0.1842
15133TIP3    H166814   4.585   5.762  16.926  1.5607 -0.2623  0.1832
15133TIP3    H266815   4.494   5.778  17.046  0.4127 -0.8873 -0.5851
15134TIP3   OH266816   2.518   5.743  12.668  0.8596  0.5061 -0.0875
15134TIP3    H166817   2.524   5.801  12.592 -1.1186  0.6257 -0.2080
15134TIP3    H266818   2.554   5.660  12.638  0.2999  0.6163 -1.1197
15135TIP3   OH266819   4.139   4.900   3.119 -0.1320  0.5029 -0.2613
15135TIP3    H166820   4.115   4.853   3.199  0.3959  2.7098  1.2889
15135TIP3    H266821   4.143   4.992   3.145  0.9127  1.2233 -2.6358
15136TIP3   OH266822   5.741   1.219  16.684  0.3986 -0.2492  0.4738
15136TIP3    H166823   5.688   1.177  16.617 -1.5529  0.5373  1.4411
15136TIP3    H266824   5.772   1.300  16.642 -0.5384  0.0800  0.3843
15137TIP3   OH266825   3.787   5.301   5.028 -0.3800  0.0414 -0.7650
15137TIP3    H166826   3.841   5.242   5.080 -0.2346  0.9561  0.1625
15137TIP3    H266827   3.850   5.362   4.989 -0.4167 -1.0423 -2.6048
15138TIP3   OH266828   4.055   5.348   2.833  0.3043 -0.1632 -0.1163
15138TIP3    H166829   4.075   5.409   2.905 -0.2405 -0.2795  0.1388
15138TIP3    H266830   4.007   5.276   2.875  0.2197 -0.3671 -0.5538
15139TIP3   OH266831   4.755   6.561  15.761  0.0150  0.4571 -0.3322
15139TIP3    H166832   4.786   6.554  15.851 -0.2453 -1.2691 -0.3437
15139TIP3    H266833   4.692   6.491  15.752 -0.9587  1.4421 -1.4893
15140TIP3   OH266834   0.114   5.941   5.799  0.8429 -0.2286 -0.3816
15140TIP3    H166835   0.186   5.938   5.737  0.4652  1.0054 -0.9160
15140TIP3    H266836   0.154   5.924   5.885  2.1081  2.2310 -0.4171
15141TIP3   OH266837   6.747   0.322  13.724  0.5634  0.0351 -0.3915
15141TIP3    H166838   6.748   0.303  13.630  2.4672  0.1308 -0.4199
15141TIP3    H266839   6.727   0.237  13.765 -0.3457  0.0079 -0.8755
15142TIP3   OH266840   2.509   0.885   5.977 -0.2770  0.4575  0.1054
15142TIP3    H166841   2.450   0.919   5.909 -0.4488  1.5018  0.7580
15142TIP3    H266842   2.453   0.873   6.054 -0.1472 -1.0239 -0.0051
15143TIP3   OH266843   0.838   1.496   2.221  0.2416  0.3212  0.6849
15143TIP3    H166844   0.910   1.435   2.239  1.5836  1.1960 -1.3863
15143TIP3    H266845   0.794   1.460   2.144 -2.1267 -0.6127  2.3533
15144TIP3   OH266846   3.999   4.707  16.131 -0.3880 -0.6596 -0.3504
15144TIP3    H166847   4.001   4.783  16.073  1.8879 -0.6480 -0.3261
15144TIP3    H266848   3.997   4.744  16.219  0.3098 -0.6271 -0.3465
15145TIP3   OH266849   0.898   5.171   5.553  0.0319  0.5720  0.2170
15145TIP3    H166850   0.821   5.189   5.499  0.9942 -1.1103 -1.8593
15145TIP3    H266851   0.963   5.235   5.526  0.6574 -0.5381 -1.0238
15146TIP3   OH266852   1.841   1.400   5.962 -0.1415  0.3603 -0.1770
15146TIP3    H166853   1.933   1.424   5.949 -0.1708  0.7933  0.4101
15146TIP3    H266854   1.845   1.318   6.010 -0.0343  1.9883  2.8174
15147TIP3   OH266855   6.556   4.560   2.469 -0.0390  0.1521 -0.2812
15147TIP3    H166856   6.538   4.558   2.563  0.2661 -2.8886 -0.1829
15147TIP3    H266857   6.470   4.571   2.428 -0.7823 -2.6525  0.3568
15148TIP3   OH266858   1.606   0.886  16.194  0.0578  0.1805  0.9595
15148TIP3    H166859   1.625   0.813  16.135  1.1025  1.5063 -0.4274
15148TIP3    H266860   1.679   0.887  16.256  0.3152  0.3342  0.6603
15149TIP3   OH266861   0.631   1.550   5.053 -0.3205  0.4776 -0.1932
15149TIP3    H166862   0.625   1.552   4.957  0.6175  1.6343 -0.2443
15149TIP3    H266863   0.680   1.471   5.072 -1.4963 -0.3836 -0.5841
15150TIP3   OH266864   3.223   2.949   5.710 -0.2825  0.1876 -0.1600
15150TIP3    H166865   3.313   2.919   5.726  0.1642  1.1770 -0.7016
15150TIP3    H266866   3.226   2.986   5.622 -1.3065 -0.0539 -0.3023
15151TIP3   OH266867   0.494   5.808   1.163  0.3137 -0.2917  0.1511
15151TIP3    H166868   0.502   5.846   1.251  1.5241  0.2004 -0.1415
15151TIP3    H266869   0.451   5.876   1.111  0.9898  0.0397  0.0140
15152TIP3   OH266870   4.827   1.841  12.358  0.0922 -0.0892  0.4526
15152TIP3    H166871   4.909   1.827  12.405 -0.0766 -0.4103  0.6564
15152TIP3    H266872   4.852   1.880  12.275  0.3915  0.6314  0.8675
15153TIP3   OH266873   6.540   6.320   4.507 -0.5679 -0.2219 -0.7132
15153TIP3    H166874   6.456   6.351   4.473 -1.0502 -1.6989 -0.9445
15153TIP3    H266875   6.601   6.331   4.434 -1.0352 -1.0599 -1.2416
15154TIP3   OH266876   5.963   6.442  14.282 -0.1670  0.2667  0.0740
15154TIP3    H166877   5.924   6.469  14.199  1.4094  3.6444  0.2647
15154TIP3    H266878   5.889   6.432  14.341 -1.0760  3.3013 -0.3813
15155TIP3   OH266879   0.768   2.349   0.148 -0.3904 -0.4326  0.2047
15155TIP3    H166880   0.845   2.405   0.144 -1.7677  1.5283  0.2258
15155TIP3    H266881   0.766   2.317   0.239  1.0504 -1.5398 -0.1134
15156TIP3   OH266882   6.200   3.158   5.363 -0.1382  0.3163  0.2928
15156TIP3    H166883   6.272   3.206   5.324 -1.0974  0.6829 -1.1139
15156TIP3    H266884   6.229   3.138   5.452  2.3022 -0.8679 -0.6859
15157TIP3   OH266885   2.360   2.297   2.275 -0.2810  0.1900  0.0288
15157TIP3    H166886   2.412   2.346   2.338 -1.8454  0.3324  1.2751
15157TIP3    H266887   2.410   2.217   2.259  2.7684  2.3589 -2.6907
15158TIP3   OH266888   3.618   6.600  14.975 -0.2917 -0.0426 -0.5658
15158TIP3    H166889   3.648   6.547  15.049 -0.5445 -0.5064 -0.7932
15158TIP3    H266890   3.575   6.676  15.015 -3.4393 -1.8852 -0.1385
15159TIP3   OH266891   1.731   1.277   0.595 -0.0150  0.0562  0.4611
15159TIP3    H166892   1.778   1.279   0.678  1.8523 -0.5412 -0.5303
15159TIP3    H266893   1.799   1.288   0.528 -1.3758 -0.1605 -1.0230
15160TIP3   OH266894   2.523   0.215   0.095 -0.2214  0.1135 -0.5185
15160TIP3    H166895   2.566   0.212   0.181 -0.7722 -0.1574 -0.2509
15160TIP3    H266896   2.589   0.182   0.034  0.9764  2.3405 -0.5499
15161TIP3   OH266897   4.700   5.178  12.915 -0.4002 -0.0619 -0.5353
15161TIP3    H166898   4.748   5.182  12.998  0.1402 -0.3091 -0.8374
15161TIP3    H266899   4.760   5.135  12.854 -0.5426  0.7398 -1.2440
15162TIP3   OH266900   2.768   3.872   6.081 -0.1555  0.0892 -0.0061
15162TIP3    H166901   2.773   3.824   5.998 -2.7437  0.0490 -0.2081
15162TIP3    H266902   2.743   3.806   6.146  0.3923  0.3975  0.5318
15163TIP3   OH266903   0.218   3.890  15.110 -0.1619 -0.3442 -0.2109
15163TIP3    H166904   0.192   3.843  15.189  0.3124  0.3375  0.3587
15163TIP3    H266905   0.227   3.821  15.044 -0.8626 -0.8819  0.2379
15164TIP3   OH266906   4.794   3.412  15.589  0.2362 -0.1118  0.1662
15164TIP3    H166907   4.874   3.381  15.547  0.3480  0.4058 -0.0169
15164TIP3    H266908   4.742   3.448  15.517  0.5512  1.0375  0.4989
15165TIP3   OH266909   2.664   5.964   2.157  0.2845 -0.1489  0.0782
15165TIP3    H166910   2.736   5.909   2.124 -0.8268 -0.8319 -1.2980
15165TIP3    H266911   2.598   5.902   2.186 -0.1625  0.4749  0.4215
15166TIP3   OH266912   3.150   3.593  16.895 -0.1815 -0.1281  0.0488
15166TIP3    H166913   3.167   3.499  16.907  0.8991  0.0717  0.1675
15166TIP3    H266914   3.115   3.621  16.980  0.4410 -0.2295  0.3475
15167TIP3   OH266915   5.145   5.319  13.986  0.3241  0.1886 -0.1145
15167TIP3    H166916   5.084   5.254  13.951 -0.1481 -0.0138  1.0573
15167TIP3    H266917   5.106   5.403  13.963  1.0865  0.1043 -1.9043
15168TIP3   OH266918   3.298   3.856  12.803 -0.4744 -0.1601  0.1996
15168TIP3    H166919   3.270   3.947  12.816  3.8350  1.3770  0.3488
15168TIP3    H266920   3.310   3.848  12.708 -0.1567 -0.3134  0.2521
15169TIP3   OH266921   0.074   5.040  16.619 -0.0855  0.1221 -0.4261
15169TIP3    H166922   0.013   5.026  16.546  0.0196 -1.1074 -0.2983
15169TIP3    H266923   0.111   4.954  16.635 -0.0267  0.4031  1.0205
15170TIP3   OH266924   4.840   6.216   4.327  0.3627 -0.5737  0.4185
15170TIP3    H166925   4.930   6.237   4.353  0.5632 -0.0925 -0.6274
15170TIP3    H266926   4.849   6.144   4.265  0.2321  0.9712 -1.4723
15171TIP3   OH266927   1.136   3.194  17.204  0.2329  0.0463  0.3515
15171TIP3    H166928   1.207   3.179  17.141  0.6424  0.6278  0.6641
15171TIP3    H266929   1.058   3.162  17.160  0.2660  1.7046 -1.0356
15172TIP3   OH266930   3.605   3.244  17.164 -0.3710  0.0331  0.2847
15172TIP3    H166931   3.694   3.254  17.130  0.4364 -1.7033  1.7680
15172TIP3    H266932   3.614   3.252  17.259 -1.6476 -1.0743  0.5251
15173TIP3   OH266933   2.886   3.022   4.440  0.5334 -0.1896  0.0136
15173TIP3    H166934   2.795   3.046   4.459 -0.0810 -2.6485  0.5869
15173TIP3    H266935   2.910   2.963   4.512  1.5422 -1.9338 -1.6743
15174TIP3   OH266936   1.039   3.779   2.233  0.0899 -0.2470  0.3178
15174TIP3    H166937   0.992   3.808   2.154  0.1081 -2.7569 -0.7276
15174TIP3    H266938   1.026   3.684   2.234  1.4750 -0.4693  2.4675
15175TIP3   OH266939   5.192   4.172  13.480  0.0664 -0.1051 -0.4912
15175TIP3    H166940   5.097   4.163  13.487  0.0071 -0.5418 -1.6237
15175TIP3    H266941   5.227   4.102  13.534 -0.2375  0.4909  0.4937
15176TIP3   OH266942   6.481   3.590   3.176 -0.4009 -0.0584  0.4656
15176TIP3    H166943   6.559   3.570   3.124 -0.6632 -0.8800  0.3732
15176TIP3    H266944   6.505   3.568   3.266  0.1971  1.7682  0.7895
15177TIP3   OH266945   3.299   4.822  13.358  0.5769 -0.1457  0.2601
15177TIP3    H166946   3.233   4.824  13.427  0.4899  0.9055  0.1587
15177TIP3    H266947   3.253   4.787  13.281  0.2656  0.1449  0.3148
15178TIP3   OH266948   3.935   3.869   2.157  0.4081  0.0576  0.0545
15178TIP3    H166949   3.890   3.935   2.210 -1.0066 -0.3770 -0.5574
15178TIP3    H266950   3.928   3.789   2.209 -0.3832 -0.2187 -0.4610
15179TIP3   OH266951   2.212   5.382  12.937 -0.0487  0.1936  0.0039
15179TIP3    H166952   2.201   5.470  12.973 -0.2191 -0.2118  1.0017
15179TIP3    H266953   2.187   5.324  13.009 -0.3684 -0.6702 -0.7815
15180TIP3   OH266954   5.932   3.509   2.539 -0.0497 -0.3098  0.0202
15180TIP3    H166955   5.986   3.548   2.608  1.5279 -1.6409 -0.3881
15180TIP3    H266956   5.956   3.557   2.460  0.7195 -1.0070 -0.1913
15181TIP3   OH266957   2.118   0.030  11.462  0.1877 -0.2786  0.0276
15181TIP3    H166958   2.096   0.047  11.371  0.0311  0.2643  0.1600
15181TIP3    H266959   2.055   0.083  11.512  0.2439 -0.6010  0.4490
15182TIP3   OH266960   1.846   2.503  14.058  0.2660  0.0446  0.0993
15182TIP3    H166961   1.809   2.417  14.079  1.5568 -0.4246  0.5301
15182TIP3    H266962   1.878   2.537  14.141 -1.3954  1.5626  0.1910
15183TIP3   OH266963   6.226   5.311   0.733 -0.9824  0.2168  0.0441
15183TIP3    H166964   6.141   5.340   0.765 -1.3205 -0.7102  0.0044
15183TIP3    H266965   6.221   5.320   0.638 -1.2778 -0.4660 -0.0074
15184TIP3   OH266966   1.592   0.827  13.168 -0.3624 -0.2986 -0.3419
15184TIP3    H166967   1.660   0.876  13.213 -0.6106  0.0336 -0.3248
15184TIP3    H266968   1.527   0.892  13.143 -0.4214 -0.5370 -0.8326
15185TIP3   OH266969   4.878   4.442  11.190 -0.0095 -0.4944 -0.5295
15185TIP3    H166970   4.787   4.411  11.185  0.4839 -2.3432  0.8345
15185TIP3    H266971   4.895   4.478  11.103 -1.9653 -0.3302 -0.8963
15186TIP3   OH266972   2.122   2.059   6.344 -0.3344  0.1307  0.2469
15186TIP3    H166973   2.088   2.045   6.256  2.6667 -0.3033 -0.9481
15186TIP3    H266974   2.104   1.977   6.390  2.0384 -1.4535 -1.4353
15187TIP3   OH266975   1.648   0.759  11.215 -0.0708 -0.2866 -0.3528
15187TIP3    H166976   1.576   0.706  11.181  0.6866 -0.1141 -2.4155
15187TIP3    H266977   1.651   0.835  11.156  1.7601 -0.2830 -0.3012
15188TIP3   OH266978   0.024   3.978  11.914  0.3890 -0.2181  0.0293
15188TIP3    H166979   0.069   4.028  11.982  0.4057 -0.2727  0.0576
15188TIP3    H266980   0.002   3.894  11.955 -0.2365  0.0174  0.1884
15189TIP3   OH266981   0.619   2.128   1.008 -0.1427  0.3162  0.2204
15189TIP3    H166982   0.614   2.107   1.102 -0.9296  2.3350  0.6729
15189TIP3    H266983   0.640   2.221   1.005  0.4516  0.1548 -1.6315
15190TIP3   OH266984   5.052   4.514  15.649 -0.5407  0.0630 -0.2866
15190TIP3    H166985   4.963   4.548  15.645 -0.7616 -0.4362  0.2333
15190TIP3    H266986   5.101   4.579  15.699 -1.2621 -0.9672  1.8560
15191TIP3   OH266987   6.257   1.865  15.260 -0.2312 -0.6039  0.1197
15191TIP3    H166988   6.278   1.941  15.314 -2.0480 -1.3383  2.0000
15191TIP3    H266989   6.300   1.791  15.305 -0.9847 -1.0909  0.0595
15192TIP3   OH266990   1.092   3.664  16.405  0.1407  0.8108  0.3990
15192TIP3    H166991   1.140   3.741  16.438  0.2832  1.9911 -2.2795
15192TIP3    H266992   1.116   3.659  16.313 -2.6102 -0.3534 -0.3525
15193TIP3   OH266993   4.692   5.104   3.173 -0.1465  0.4023 -0.4823
15193TIP3    H166994   4.727   5.153   3.099  1.1376 -0.8815 -0.7580
15193TIP3    H266995   4.613   5.153   3.198  0.0402  1.5230 -1.9228
15194TIP3   OH266996   1.666   4.853  12.371  0.9696 -0.5772 -0.2556
15194TIP3    H166997   1.590   4.807  12.335  0.8261  0.1748 -0.9501
15194TIP3    H266998   1.637   4.944  12.381  0.5476 -0.9614  3.1403
15195TIP3   OH266999   0.339   1.708  14.384 -0.4968  0.3342 -0.2883
15195TIP3    H167000   0.309   1.797  14.363 -2.5481 -0.5044 -1.1617
15195TIP3    H267001   0.340   1.663  14.300  1.2719 -0.3115  0.0364
15196TIP3   OH267002   2.118   0.711  11.920 -0.2668 -0.0036 -0.1486
15196TIP3    H167003   2.148   0.695  11.830 -0.2464  0.6084 -0.2529
15196TIP3    H267004   2.198   0.729  11.969 -0.3349  0.2660 -0.1361
15197TIP3   OH267005   1.772   3.181  17.227  0.1276 -0.2307  0.3015
15197TIP3    H167006   1.727   3.244  17.284  0.4747  0.5587 -0.2911
15197TIP3    H267007   1.831   3.234  17.174 -0.2950 -0.9365 -0.9070
15198TIP3   OH267008   4.758   0.601  10.979 -0.2489 -0.4945 -0.2991
15198TIP3    H167009   4.853   0.617  10.975  0.0979 -1.8328  1.3387
15198TIP3    H267010   4.742   0.530  10.917 -0.3274  0.2245 -1.1213
15199TIP3   OH267011   3.020   2.979   3.931  0.1615 -0.0124 -0.1238
15199TIP3    H167012   2.969   2.959   3.853  0.0302 -0.9328  0.1850
15199TIP3    H267013   2.955   2.981   4.002  0.4915 -0.8151  0.2132
15200TIP3   OH267014   2.104   5.531   5.458 -0.3590  0.6359 -0.3335
15200TIP3    H167015   2.016   5.546   5.494 -1.4607 -0.7179 -2.3034
15200TIP3    H267016   2.156   5.503   5.534 -1.4873  1.8261  0.9479
15201TIP3   OH267017   6.440   1.937   5.879  0.1699 -0.5158  0.1540
15201TIP3    H167018   6.347   1.916   5.870 -0.1649  0.0741  1.8283
15201TIP3    H267019   6.451   1.956   5.972  1.4115  1.9666 -0.4049
15202TIP3   OH267020   1.019   4.910  10.726  0.2123  0.6955 -0.5220
15202TIP3    H167021   0.984   4.950  10.806 -1.1709  0.5499 -1.0291
15202TIP3    H267022   1.019   4.982  10.662  2.4988  1.1475 -0.1005
15203TIP3   OH267023   5.559   2.486  15.526 -0.0016 -0.6601 -0.2090
15203TIP3    H167024   5.643   2.459  15.563  1.6757 -0.2598 -3.4023
15203TIP3    H267025   5.540   2.420  15.459 -0.3213  1.1607 -2.0156
15204TIP3   OH267026   0.874   3.809   4.223  0.2224 -0.0758  0.4289
15204TIP3    H167027   0.798   3.864   4.242 -0.0391 -0.5470  0.7663
15204TIP3    H267028   0.915   3.850   4.147  0.4457  0.9987  1.1028
15205TIP3   OH267029   4.443   3.226  13.770 -0.0342 -0.1521  0.1702
15205TIP3    H167030   4.483   3.174  13.840  0.4628  0.1181  0.0884
15205TIP3    H267031   4.356   3.247  13.803  0.6590  1.1315  1.3123
15206TIP3   OH267032   2.614   2.051   2.367  0.8611 -0.6821 -0.1343
15206TIP3    H167033   2.685   2.111   2.346  0.9247 -0.5903  0.3414
15206TIP3    H267034   2.639   1.968   2.325  1.0927 -0.5647 -0.2306
15207TIP3   OH267035   0.067   6.414  16.721  0.6926  0.0981 -0.1601
15207TIP3    H167036   0.106   6.494  16.687  0.2959  0.5552  0.4263
15207TIP3    H267037   0.026   6.440  16.803 -1.7552 -0.0821 -1.2067
15208TIP3   OH267038   4.062   5.372   3.326  0.1375  0.2534  0.1261
15208TIP3    H167039   4.093   5.314   3.255 -0.0531  1.2640 -0.8103
15208TIP3    H267040   4.035   5.312   3.395 -1.1388 -0.8371 -1.2473
15209TIP3   OH267041   6.579   1.755   0.755  0.0108 -0.4599 -0.2084
15209TIP3    H167042   6.662   1.760   0.708  0.2440  0.7129  0.2787
15209TIP3    H267043   6.598   1.795   0.841 -0.9576 -0.4993  0.0372
15210TIP3   OH267044   1.996   3.555  15.715 -0.3244  0.7309 -1.0896
15210TIP3    H167045   1.926   3.616  15.738  1.1660  2.1033  0.0384
15210TIP3    H267046   2.076   3.609  15.714  1.0824 -1.1865  0.0340
15211TIP3   OH267047   1.896   5.159   0.740  0.1014  0.2438 -0.9913
15211TIP3    H167048   1.955   5.084   0.745 -0.7970 -0.4041  0.7241
15211TIP3    H267049   1.863   5.157   0.650  0.6153 -0.9844 -1.1791
15212TIP3   OH267050   6.043   3.036  15.339  0.1141 -0.0263 -0.8241
15212TIP3    H167051   5.970   3.011  15.283  0.4364 -0.3357 -1.1115
15212TIP3    H267052   6.036   3.131  15.346 -0.9645 -0.1490  0.0574
15213TIP3   OH267053   4.241   1.341   5.850 -0.0984  0.3285  0.4823
15213TIP3    H167054   4.211   1.409   5.911 -2.8225  0.1704 -0.5119
15213TIP3    H267055   4.282   1.276   5.906  1.2982  2.0843  1.6267
15214TIP3   OH267056   4.801   4.006  15.434 -0.1294 -0.3610  0.8878
15214TIP3    H167057   4.723   4.053  15.407  0.1086 -1.2004 -1.4431
15214TIP3    H267058   4.770   3.919  15.458  0.2562 -1.4581 -2.2478
15215TIP3   OH267059   5.717   4.725   5.764 -0.0255 -0.1589 -0.0789
15215TIP3    H167060   5.777   4.778   5.712 -1.3492 -0.8361 -2.4478
15215TIP3    H267061   5.692   4.781   5.837  1.8368  0.8750 -0.1777
15216TIP3   OH267062   0.211   1.218   4.705 -0.3030 -0.4985  0.3602
15216TIP3    H167063   0.156   1.285   4.666 -1.2326 -3.2996 -3.8169
15216TIP3    H267064   0.150   1.163   4.755 -0.3152 -0.4841  0.3613
15217TIP3   OH267065   1.181   6.190   5.625 -0.0489  0.0402  0.1354
15217TIP3    H167066   1.197   6.140   5.545 -0.5891  0.5313 -0.2805
15217TIP3    H267067   1.140   6.271   5.596 -2.2703 -0.6676  1.0470
15218TIP3   OH267068   1.114   1.402   6.391 -0.4664 -0.3551 -0.6262
15218TIP3    H167069   1.133   1.480   6.443 -1.5028 -1.3761  1.3901
15218TIP3    H267070   1.101   1.435   6.302 -1.0581  1.7909  0.1924
15219TIP3   OH267071   5.087   1.558   1.654  0.4455  0.1461  0.0243
15219TIP3    H167072   5.029   1.610   1.711  0.9460 -0.8318  1.5026
15219TIP3    H267073   5.174   1.573   1.690  0.6622 -1.2434  0.1271
15220TIP3   OH267074   1.802   2.102  12.928  0.6000  0.0242 -0.0743
15220TIP3    H167075   1.897   2.093  12.924  0.6258 -0.0945  0.7148
15220TIP3    H267076   1.772   2.024  12.974  0.1943  0.4362  0.3708
15221TIP3   OH267077   4.202   6.045   2.523  0.0693  0.1870  0.0083
15221TIP3    H167078   4.196   6.139   2.507 -0.5704  0.2198  0.3681
15221TIP3    H267079   4.275   6.036   2.584  0.5828  0.3740 -0.5749
15222TIP3   OH267080   2.278   2.589   1.500 -0.0218 -0.4767  0.0523
15222TIP3    H167081   2.183   2.603   1.494  0.0433 -0.4858 -1.8743
15222TIP3    H267082   2.287   2.495   1.519 -0.3750 -0.1393  2.0742
15223TIP3   OH267083   0.846   6.684  14.583 -0.1120 -0.5458  0.4722
15223TIP3    H167084   0.838   6.768  14.538  0.0339 -0.6207  0.3064
15223TIP3    H267085   0.825   6.703  14.674 -0.8224 -0.4656  0.3010
15224TIP3   OH267086   2.773   2.876  11.251 -0.1124  0.5817 -0.1596
15224TIP3    H167087   2.701   2.907  11.196 -0.5532  1.3144  0.7900
15224TIP3    H267088   2.761   2.923  11.334  0.2328 -0.8670  0.7399
15225TIP3   OH267089   0.859   3.365   1.504  0.3924  0.0352 -0.0191
15225TIP3    H167090   0.823   3.430   1.444 -0.0176 -0.3282 -0.1720
15225TIP3    H267091   0.783   3.332   1.552  0.7537  0.5635  0.9460
15226TIP3   OH267092   5.603   4.458   0.579 -0.6372 -0.1621 -0.4223
15226TIP3    H167093   5.676   4.493   0.630 -1.2511  0.1011  0.3005
15226TIP3    H267094   5.572   4.383   0.631 -1.4210  0.2531 -0.2805
15227TIP3   OH267095   0.091   4.710  11.977  0.7790  0.7885 -0.1624
15227TIP3    H167096   0.021   4.649  11.956 -0.6237  2.1918  0.2886
15227TIP3    H267097   0.137   4.723  11.894 -1.2610  2.0122 -1.1711
15228TIP3   OH267098   6.460   4.102  12.523  0.4823 -0.0348 -0.3568
15228TIP3    H167099   6.464   4.007  12.527  1.6249 -0.0617 -1.3865
15228TIP3    H267100   6.367   4.123  12.534 -0.1285 -1.4281 -2.2501
15229TIP3   OH267101   3.275   1.576   5.328  0.0189  0.3692  0.1423
15229TIP3    H167102   3.279   1.508   5.395  1.6275  0.5543  0.2721
15229TIP3    H267103   3.289   1.530   5.245  1.3478  0.5515  0.2517
15230TIP3   OH267104   6.161   0.072   0.957  0.0659  0.1342 -0.3404
15230TIP3    H167105   6.209   0.025   1.025 -0.3929  0.6720  0.3654
15230TIP3    H267106   6.089   0.013   0.934  0.4495 -0.2217 -0.6617
15231TIP3   OH267107   5.705   2.474   0.758 -0.0013  0.0779  0.3517
15231TIP3    H167108   5.635   2.410   0.747 -0.5163  0.8799 -1.3027
15231TIP3    H267109   5.661   2.552   0.794  0.4358 -0.1151  1.3410
15232TIP3   OH267110   4.928   0.360  16.076  0.4632 -0.2108  0.3172
15232TIP3    H167111   5.010   0.396  16.109 -0.2214  0.6660  1.1201
15232TIP3    H267112   4.877   0.340  16.154 -0.3646 -0.0892 -0.1772
15233TIP3   OH267113   3.638   1.858   4.486 -0.1893 -0.5391  0.1729
15233TIP3    H167114   3.643   1.906   4.403  0.5107 -1.6720 -0.4730
15233TIP3    H267115   3.570   1.792   4.471 -0.1733 -0.6410  0.5535
15234TIP3   OH267116   1.553   3.822  14.979 -0.4623 -0.2236 -0.6122
15234TIP3    H167117   1.568   3.896  14.920 -0.1499  0.9059  0.8079
15234TIP3    H267118   1.641   3.795  15.006 -0.6081 -0.4756 -0.3767
15235TIP3   OH267119   5.951   4.113  11.036 -0.2624  0.1389  0.2970
15235TIP3    H167120   5.884   4.180  11.047 -0.6760 -0.3663  0.9485
15235TIP3    H267121   6.014   4.151  10.975 -0.9560  0.7649 -0.0468
15236TIP3   OH267122   0.852   1.733  13.788 -0.1126 -0.5933 -0.6327
15236TIP3    H167123   0.822   1.694  13.706  0.3266 -0.2911 -0.9415
15236TIP3    H267124   0.787   1.706  13.853 -2.0700  1.4890 -1.6038
15237TIP3   OH267125   1.127   5.413  14.304 -0.1862  0.3305  0.7679
15237TIP3    H167126   1.107   5.323  14.279 -0.6821  0.7458 -0.3928
15237TIP3    H267127   1.211   5.431  14.263 -1.1976  1.1523 -1.0203
15238TIP3   OH267128   3.976   6.747   5.058 -0.0280  0.0630 -0.3074
15238TIP3    H167129   3.895   6.771   5.013 -0.1250  0.2119 -0.0545
15238TIP3    H267130   3.959   6.767   5.150 -0.1663 -1.1294 -0.0661
15239TIP3   OH267131   6.286   3.404   0.093 -0.1059  0.0257  0.0054
15239TIP3    H167132   6.304   3.312   0.113  0.8967 -0.3170 -2.1908
15239TIP3    H267133   6.324   3.418   0.006  2.6682  3.3487  1.4638
15240TIP3   OH267134   3.693   3.242   5.547 -0.1864  0.3293  0.0434
15240TIP3    H167135   3.674   3.334   5.528  2.4014  0.6511 -1.4128
15240TIP3    H267136   3.755   3.245   5.619 -0.8274 -0.3489  0.6335
15241TIP3   OH267137   2.604   5.380   4.962  0.0567 -0.2154  0.5787
15241TIP3    H167138   2.666   5.414   4.898  0.4530 -1.1086  0.4752
15241TIP3    H267139   2.650   5.306   5.002 -0.4599 -0.1071  1.3935
15242TIP3   OH267140   2.666   3.335   4.817 -0.7448  0.0240  0.1829
15242TIP3    H167141   2.634   3.358   4.905  2.1678 -0.5879  1.5366
15242TIP3    H267142   2.751   3.293   4.833  0.9966  1.9087 -3.0396
15243TIP3   OH267143   3.367   4.433  17.257  0.4478  0.1052  0.0899
15243TIP3    H167144   3.310   4.483  17.198  1.2749  0.4059 -0.4627
15243TIP3    H267145   3.336   4.457  17.345  1.2039  2.1034 -0.1337
15244TIP3   OH267146   6.019   1.050  14.656 -0.1583 -0.2025 -0.0366
15244TIP3    H167147   5.939   1.001  14.635 -1.1266  1.2542  0.1144
15244TIP3    H267148   6.046   1.090  14.573  1.4579 -2.0905 -0.4808
15245TIP3   OH267149   6.051   2.081   0.987 -0.0275  0.5239 -0.3943
15245TIP3    H167150   5.971   2.030   0.973  0.4336 -0.7622  1.2797
15245TIP3    H267151   6.022   2.172   0.983 -1.4071  0.0944 -0.7358
15246TIP3   OH267152   0.131   0.190   1.018  0.1199  0.1799 -0.0829
15246TIP3    H167153   0.065   0.185   1.087  0.2614  0.3203  0.0628
15246TIP3    H267154   0.182   0.110   1.027 -0.3122 -0.1522 -0.4856
15247TIP3   OH267155   6.727   2.258   4.570 -0.2924  0.2792  0.1829
15247TIP3    H167156   6.759   2.265   4.480 -0.5602  0.2935  0.0906
15247TIP3    H267157   6.696   2.168   4.578  1.3076 -0.2741  0.7769
15248TIP3   OH267158   3.182   4.681   1.226  0.1767 -0.9756  0.3874
15248TIP3    H167159   3.175   4.695   1.320 -0.1708 -3.9398  0.9037
15248TIP3    H267160   3.261   4.728   1.199 -0.2713  0.7451  1.9274
15249TIP3   OH267161   0.601   5.818  16.148  0.1910 -0.7850 -0.2796
15249TIP3    H167162   0.625   5.731  16.115 -1.3581 -0.6041 -2.0321
15249TIP3    H267163   0.660   5.878  16.104 -0.7552 -0.7017 -1.4815
15250TIP3   OH267164   5.901   4.437  13.137 -0.4385  0.0053  0.2497
15250TIP3    H167165   5.885   4.468  13.226  1.6245 -0.8355  0.9634
15250TIP3    H267166   5.973   4.492  13.105 -1.6948  0.8613 -1.2433
15251TIP3   OH267167   5.154   3.016   4.117  0.2434 -0.8597  0.5792
15251TIP3    H167168   5.182   3.034   4.207  0.9115  0.9425  0.0467
15251TIP3    H267169   5.234   3.023   4.065 -0.2848 -1.0408 -0.2727
15252TIP3   OH267170   6.051   1.877  14.831 -0.4438 -0.1403 -0.1761
15252TIP3    H167171   5.988   1.810  14.858  1.1895 -0.5804  3.0475
15252TIP3    H267172   6.126   1.864  14.890  1.7883  1.7039 -2.4139
15253TIP3   OH267173   6.173   2.646  11.391 -0.3135  0.3269  0.0572
15253TIP3    H167174   6.217   2.584  11.450 -0.2065  0.1097 -0.2432
15253TIP3    H267175   6.237   2.661  11.321 -0.1042  1.2566  0.4437
15254TIP3   OH267176   2.687   5.367  14.696 -0.3620 -0.8691  0.4261
15254TIP3    H167177   2.775   5.330  14.688  0.7189  1.5913  0.1059
15254TIP3    H267178   2.670   5.408  14.611 -1.5295 -0.7025  0.7174
15255TIP3   OH267179   5.508   5.024  13.656 -1.0661  0.2922  0.0809
15255TIP3    H167180   5.480   4.988  13.572 -0.2695  0.0303 -0.0878
15255TIP3    H267181   5.485   4.957  13.720  1.7840 -1.3208 -0.4056
15256TIP3   OH267182   2.421   5.194   0.533  0.1504 -0.1912  0.0065
15256TIP3    H167183   2.484   5.237   0.475 -1.6704  1.0065 -1.1739
15256TIP3    H267184   2.376   5.131   0.477 -2.5710  1.9238 -0.3676
15257TIP3   OH267185   6.160   5.324  14.398  0.3858  0.6015  0.5491
15257TIP3    H167186   6.209   5.254  14.441 -0.9788 -0.1151  1.0235
15257TIP3    H267187   6.182   5.402  14.448  1.1615  0.3249  0.6504
15258TIP3   OH267188   0.801   3.740   0.102 -0.1481  0.5753 -0.6567
15258TIP3    H167189   0.761   3.822   0.074  0.1462  1.4029  1.2505
15258TIP3    H267190   0.872   3.765   0.159  1.7048 -0.9578 -2.1353
15259TIP3   OH267191   2.138   6.564  10.958 -0.4415  0.0766 -0.1835
15259TIP3    H167192   2.054   6.579  10.916 -1.2966  0.7268  1.6507
15259TIP3    H267193   2.117   6.527  11.044  1.1785 -0.5456 -0.0128
15260TIP3   OH267194   0.407   5.632  15.207 -0.5618 -0.1581  0.0994
15260TIP3    H167195   0.460   5.563  15.168 -0.1437 -0.5348  1.2843
15260TIP3    H267196   0.420   5.707  15.150  0.7703 -0.4234  0.0184
15261TIP3   OH267197   0.460   3.143  14.204 -0.1624  0.1795  0.3493
15261TIP3    H167198   0.458   3.187  14.290  0.2920  0.1919  0.3550
15261TIP3    H267199   0.547   3.104  14.199  0.1796  1.0209 -0.5279
15262TIP3   OH267200   1.800   2.975  15.598  0.2230  0.1822  0.1349
15262TIP3    H167201   1.745   3.036  15.648 -2.0510 -1.9737  0.4731
15262TIP3    H267202   1.888   3.013  15.603 -0.9503  3.1047  0.7524
15263TIP3   OH267203   1.211   6.199   1.572  0.3401  0.2844  0.0144
15263TIP3    H167204   1.269   6.272   1.549 -2.4130  2.4494 -0.6975
15263TIP3    H267205   1.193   6.155   1.489  0.0913  0.3424  0.0363
15264TIP3   OH267206   0.248   3.446  15.799  0.0928 -0.2256 -0.3131
15264TIP3    H167207   0.315   3.510  15.824 -0.8564  0.1369  1.4945
15264TIP3    H267208   0.193   3.493  15.736 -0.7719  0.9466  1.2116
15265TIP3   OH267209   1.192   0.408   5.673 -0.0899  0.4061 -0.2630
15265TIP3    H167210   1.217   0.316   5.680  0.9252  0.5437 -1.6573
15265TIP3    H267211   1.153   0.415   5.586  1.0271  1.5413 -0.7054
15266TIP3   OH267212   4.382   1.493  11.719  0.5090  0.0019 -0.2747
15266TIP3    H167213   4.413   1.448  11.640 -0.9335 -0.3434 -0.6775
15266TIP3    H267214   4.304   1.444  11.745 -0.6761  1.7814 -0.2847
15267TIP3   OH267215   2.949   4.262   5.308 -0.4052 -0.0240  0.2109
15267TIP3    H167216   2.869   4.296   5.350 -0.2550 -0.7031  1.0739
15267TIP3    H267217   2.960   4.174   5.345  1.7006  0.6920  1.4983
15268TIP3   OH267218   2.268   0.933  13.579 -0.0908 -0.1765  0.3493
15268TIP3    H167219   2.244   0.924  13.487 -0.0461  0.9875  0.1993
15268TIP3    H267220   2.190   0.969  13.621 -0.5279 -1.8480  1.0248
15269TIP3   OH267221   2.675   2.770   1.403  0.1258  0.1007  0.2996
15269TIP3    H167222   2.693   2.703   1.468  0.5262 -1.0250 -0.9159
15269TIP3    H267223   2.597   2.738   1.357  1.5239 -0.7071 -1.6973
15270TIP3   OH267224   0.299   4.419   2.724 -0.3243 -0.2914 -0.3070
15270TIP3    H167225   0.284   4.514   2.727  1.2884 -0.0132  2.0478
15270TIP3    H267226   0.225   4.382   2.772 -2.4821 -0.6074 -3.5561
15271TIP3   OH267227   1.812   2.306  15.649 -0.2546 -0.0244 -0.1225
15271TIP3    H167228   1.893   2.314  15.598 -0.1171  1.9480  0.3211
15271TIP3    H267229   1.742   2.308  15.584  0.0131 -0.7774 -0.4432
15272TIP3   OH267230   3.352   6.502   4.186  0.0562 -0.2446 -0.2297
15272TIP3    H167231   3.266   6.469   4.212 -0.3606  2.3914  2.1956
15272TIP3    H267232   3.334   6.562   4.114  0.1682 -1.1992 -1.0775
15273TIP3   OH267233   2.138   5.526  14.033  0.5256 -0.5077 -0.4525
15273TIP3    H167234   2.201   5.501  14.102  0.7920  0.0667 -0.4762
15273TIP3    H267235   2.081   5.590  14.076  1.6212  1.0172 -1.1452
15274TIP3   OH267236   5.015   2.932   1.368  0.0402 -0.4858 -0.1131
15274TIP3    H167237   4.972   2.887   1.440  0.3706  0.1099  0.4779
15274TIP3    H267238   4.960   3.008   1.351  0.6842  0.1359  0.4706
15275TIP3   OH267239   0.272   4.355  15.176 -0.4932  0.3986 -0.1889
15275TIP3    H167240   0.200   4.294  15.162  0.0045  0.0387 -1.2837
15275TIP3    H267241   0.272   4.412  15.099  0.9329 -0.1827 -0.6536
15276TIP3   OH267242   0.247   5.923  13.257 -0.0653 -0.8784  0.9180
15276TIP3    H167243   0.294   5.950  13.336  0.0613 -1.8859  1.2117
15276TIP3    H267244   0.257   5.827  13.256  0.6220 -0.8165 -0.7489
15277TIP3   OH267245   3.450   5.732  13.426  0.7031  0.3991 -0.6241
15277TIP3    H167246   3.358   5.759  13.433  0.5291 -0.3667  0.2831
15277TIP3    H267247   3.498   5.814  13.415 -0.0341  0.8611 -0.4874
15278TIP3   OH267248   0.594   5.457  12.312  0.0191  0.1850  0.8927
15278TIP3    H167249   0.551   5.373  12.325 -0.2494  0.3761  1.2563
15278TIP3    H267250   0.525   5.514  12.278  0.7285 -0.3605 -1.7242
15279TIP3   OH267251   1.665   2.313   4.419 -0.6299 -0.3661  0.1385
15279TIP3    H167252   1.724   2.388   4.415  0.7249 -1.4197 -0.7050
15279TIP3    H267253   1.644   2.304   4.512  1.0419 -0.3166  0.5527
15280TIP3   OH267254   3.965   5.370  14.612  0.3605 -0.5238 -0.1998
15280TIP3    H167255   3.910   5.317  14.554  1.4460 -0.0394 -1.7627
15280TIP3    H267256   3.951   5.333  14.699  0.0682 -2.5213 -1.0318
15281TIP3   OH267257   2.679   4.025  13.913  0.4046  0.1050 -0.1500
15281TIP3    H167258   2.757   4.068  13.948 -0.8272  1.5013  1.0132
15281TIP3    H267259   2.632   4.095  13.866 -1.0768 -0.1902  0.8144
15282TIP3   OH267260   4.174   6.163   3.604  0.0653 -0.1912 -0.0119
15282TIP3    H167261   4.200   6.109   3.678 -0.5456 -1.8028 -0.9131
15282TIP3    H267262   4.186   6.107   3.528 -2.2475  0.3025 -0.8465
15283TIP3   OH267263   6.692   0.644   4.028  0.2377 -0.0225  0.5423
15283TIP3    H167264   6.705   0.726   3.979 -0.0666 -0.1503  0.2469
15283TIP3    H267265   6.653   0.584   3.965  0.1929 -0.3094  0.8397
15284TIP3   OH267266   0.117   6.011   0.640  0.4519 -0.3191 -0.4670
15284TIP3    H167267   0.203   6.018   0.600  0.0970 -1.2755 -1.4398
15284TIP3    H267268   0.107   6.093   0.689  1.3848  0.3687 -1.3749
15285TIP3   OH267269   3.009   6.713  15.609  0.1042 -0.5573 -1.0353
15285TIP3    H167270   3.000   6.652  15.683  1.6316 -0.4134 -0.6953
15285TIP3    H267271   2.936   6.775  15.620 -0.5859 -1.4266 -0.5373
15286TIP3   OH267272   3.730   5.555   0.693 -0.5961  0.2700  0.1528
15286TIP3    H167273   3.738   5.467   0.657 -2.3776  1.0226 -2.3993
15286TIP3    H267274   3.754   5.546   0.785 -0.7347 -2.8674 -0.0208
15287TIP3   OH267275   5.271   4.820   4.792  0.6811  0.8963 -0.1226
15287TIP3    H167276   5.203   4.754   4.805  1.4281  0.4462  1.6804
15287TIP3    H267277   5.328   4.783   4.725  0.1573  0.4840 -0.3499
15288TIP3   OH267278   3.129   2.754  13.469  0.1618  0.2217  0.5968
15288TIP3    H167279   3.088   2.785  13.389  0.5684  1.5744  0.8869
15288TIP3    H267280   3.083   2.673  13.490 -0.7450  0.4743 -0.3476
15289TIP3   OH267281   1.728   5.701  15.774 -0.4801 -0.0033  0.7394
15289TIP3    H167282   1.714   5.616  15.733  0.5120 -0.3602  1.1127
15289TIP3    H267283   1.723   5.683  15.868 -0.7593  0.4488  0.8158
15290TIP3   OH267284   4.713   2.664  12.764  0.3669 -0.6451 -0.3441
15290TIP3    H167285   4.677   2.726  12.701 -0.3406 -0.0941  0.5774
15290TIP3    H267286   4.639   2.642  12.820  1.3540  0.1601  1.3293
15291TIP3   OH267287   1.276   3.353  14.541  0.2516 -0.1120  0.4852
15291TIP3    H167288   1.330   3.307  14.605  1.3659  2.9076  1.9005
15291TIP3    H267289   1.318   3.336  14.457  0.5765 -1.6400  0.9283
15292TIP3   OH267290   6.092   5.711   1.351 -0.4493  0.1135 -0.4131
15292TIP3    H167291   6.135   5.729   1.267 -0.9878  0.7847 -0.5544
15292TIP3    H267292   6.067   5.797   1.384 -1.1935 -0.2274 -0.0727
15293TIP3   OH267293   1.148   0.571   3.695  0.7063 -0.3658  0.3257
15293TIP3    H167294   1.101   0.531   3.768  0.9073  0.3067  0.8394
15293TIP3    H267295   1.240   0.550   3.711  0.6056 -1.6870 -0.6815
15294TIP3   OH267296   5.691   4.098  12.911  0.0017  0.3158 -0.0396
15294TIP3    H167297   5.732   4.184  12.919 -0.1877  0.4251 -0.2176
15294TIP3    H267298   5.696   4.078  12.817  3.5475 -1.5944  0.3736
15295TIP3   OH267299   4.854   0.231  16.379  0.0418  0.1053 -0.5701
15295TIP3    H167300   4.931   0.288  16.373  0.6549 -0.4406  1.3034
15295TIP3    H267301   4.865   0.185  16.462 -0.8110 -2.2182 -1.6660
15296TIP3   OH267302   2.759   3.657  11.771 -0.2162  0.6994  0.2374
15296TIP3    H167303   2.844   3.618  11.750 -0.4622  0.2565  0.0378
15296TIP3    H267304   2.709   3.585  11.810  0.2757  1.5102  2.5163
15297TIP3   OH267305   2.844   5.593  12.763  0.0571 -0.3824  0.0626
15297TIP3    H167306   2.777   5.543  12.716  0.6895 -2.0432  0.8343
15297TIP3    H267307   2.871   5.661  12.702 -2.1950  0.2287 -0.3273
15298TIP3   OH267308   0.780   0.574  16.179  0.1037  0.1382  0.2493
15298TIP3    H167309   0.723   0.543  16.249 -1.2354  1.6409 -0.1096
15298TIP3    H267310   0.863   0.528  16.193 -0.5485 -0.5832  2.0025
15299TIP3   OH267311   4.633   4.190  16.147  0.1616 -0.1464 -0.0106
15299TIP3    H167312   4.574   4.257  16.183 -0.6490 -2.0970  2.6183
15299TIP3    H267313   4.720   4.217  16.176  0.2931  1.3024 -1.5873
15300TIP3   OH267314   1.979   1.419  13.236 -0.4204  0.0962 -0.0483
15300TIP3    H167315   1.929   1.492  13.200  0.2477 -0.3918 -2.1386
15300TIP3    H267316   1.977   1.352  13.167  0.1849 -1.2883  1.2249
15301TIP3   OH267317   3.400   3.657   4.428 -0.4039  0.0927  0.1379
15301TIP3    H167318   3.373   3.573   4.464  2.9475 -1.0608  0.2580
15301TIP3    H267319   3.419   3.639   4.336 -0.0354  0.7954  0.0685
15302TIP3   OH267320   0.344   3.710  16.952 -0.4399 -0.3545  0.1964
15302TIP3    H167321   0.268   3.762  16.925 -0.2794  0.5101  1.3388
15302TIP3    H267322   0.414   3.739  16.893 -0.7092 -0.3124 -0.1080
15303TIP3   OH267323   6.605   2.819   0.021 -0.1712 -0.0013  0.1778
15303TIP3    H167324   6.667   2.746   0.017 -0.0805  0.0016  1.1544
15303TIP3    H267325   6.593   2.835   0.115  0.4625  1.7773 -0.0012
15304TIP3   OH267326   1.973   3.671   1.190  0.2730 -0.0629  0.0820
15304TIP3    H167327   1.947   3.617   1.116 -0.1822 -0.9746  0.8774
15304TIP3    H267328   2.003   3.753   1.151  0.5330 -0.7073 -1.1348
15305TIP3   OH267329   3.479   5.079  14.929 -0.2594  0.0636 -0.6125
15305TIP3    H167330   3.448   5.074  15.020 -3.4604  0.9541 -1.5194
15305TIP3    H267331   3.438   5.003  14.886 -0.8806  1.0371 -1.8009
15306TIP3   OH267332   1.874   4.377  15.139  0.0759  0.1013 -0.1725
15306TIP3    H167333   1.802   4.424  15.095 -1.3452 -1.6974  0.0892
15306TIP3    H267334   1.844   4.367  15.229  0.0597 -1.7156 -0.3392
15307TIP3   OH267335   1.735   6.578   2.958 -0.5096 -0.5499  0.1300
15307TIP3    H167336   1.769   6.667   2.970 -1.8462  0.0803 -0.5207
15307TIP3    H267337   1.812   6.526   2.936  0.1682  0.6279 -0.4206
15308TIP3   OH267338   0.617   0.130   4.597  0.2254  0.1795  0.2248
15308TIP3    H167339   0.680   0.201   4.614 -0.4321  0.6801  0.6041
15308TIP3    H267340   0.566   0.160   4.523  0.2476 -0.1081  0.0906
15309TIP3   OH267341   6.522   3.956   3.186  0.0509  0.3136 -0.1795
15309TIP3    H167342   6.515   4.042   3.228 -1.1433 -0.2811  0.8904
15309TIP3    H267343   6.432   3.931   3.167  0.3258 -1.0418  0.2256
15310TIP3   OH267344   3.547   0.456   2.135  0.2761  0.6081  0.4887
15310TIP3    H167345   3.616   0.399   2.168  0.1066  0.6526  0.9302
15310TIP3    H267346   3.546   0.441   2.040  1.1836  0.9350  0.4136
15311TIP3   OH267347   2.076   3.558   4.210  0.1073  0.1645  0.5904
15311TIP3    H167348   2.033   3.639   4.184  0.6369 -0.0419 -1.0128
15311TIP3    H267349   2.133   3.536   4.137 -0.5114 -2.0216  0.6922
15312TIP3   OH267350   5.284   2.838   3.058  0.4661 -0.2784 -0.5519
15312TIP3    H167351   5.271   2.894   2.982  1.3594 -0.3253 -0.7492
15312TIP3    H267352   5.203   2.846   3.109  0.6607  1.3524 -0.4591
15313TIP3   OH267353   3.416   5.056  16.059  0.2117  0.0765  0.1504
15313TIP3    H167354   3.466   5.012  16.128  1.5709  0.8939 -0.2841
15313TIP3    H267355   3.417   5.148  16.083  0.7749  0.3823 -0.9893
15314TIP3   OH267356   0.336   6.329   0.281 -0.0616 -0.4007  0.4432
15314TIP3    H167357   0.259   6.315   0.226 -0.4294  0.1572  0.8031
15314TIP3    H267358   0.384   6.247   0.276  1.0684  0.3018 -2.4833
15315TIP3   OH267359   4.419   3.493   2.954  0.5067 -0.2407  0.2232
15315TIP3    H167360   4.408   3.409   2.999  1.2421 -1.0658 -1.0792
15315TIP3    H267361   4.363   3.554   3.003 -0.7829 -1.6876  0.6388
15316TIP3   OH267362   6.327   5.841  12.314 -0.1728 -0.3441 -0.4048
15316TIP3    H167363   6.290   5.762  12.275 -1.8148  0.9125 -1.5236
15316TIP3    H267364   6.251   5.891  12.344  0.9059 -0.0517  2.1311
15317TIP3   OH267365   1.676   5.513  14.324 -0.3277 -0.0786  0.3411
15317TIP3    H167366   1.682   5.578  14.394 -0.9492 -0.7086  0.9929
15317TIP3    H267367   1.582   5.497  14.314 -0.2269 -0.2454 -0.4075
15318TIP3   OH267368   1.326   3.887   3.505  0.6053  0.0504 -0.0924
15318TIP3    H167369   1.387   3.825   3.465  3.2969  1.7253  1.1045
15318TIP3    H267370   1.284   3.837   3.575  1.6702 -0.8192 -0.0445
15319TIP3   OH267371   2.642   4.207  10.663  0.3415 -0.3282 -0.4899
15319TIP3    H167372   2.713   4.143  10.664 -1.7685 -2.8391  0.7845
15319TIP3    H267373   2.629   4.227  10.571  0.3463 -2.6968 -1.0755
15320TIP3   OH267374   4.790   1.622  13.867 -0.4492 -0.3400 -0.2711
15320TIP3    H167375   4.703   1.593  13.839 -0.3535 -2.4256  1.3114
15320TIP3    H267376   4.773   1.697  13.924 -1.2930 -0.9461  0.3098
15321TIP3   OH267377   1.818   5.138  11.896  0.1285 -0.3195  0.3681
15321TIP3    H167378   1.821   5.158  11.803 -1.1824 -1.4086  0.0613
15321TIP3    H267379   1.886   5.194  11.935  1.5049 -0.6812 -1.3702
15322TIP3   OH267380   0.800   5.413  12.549 -0.3415  0.7173  0.3425
15322TIP3    H167381   0.811   5.409  12.454 -0.4852 -0.9737  0.3806
15322TIP3    H267382   0.706   5.401  12.563 -0.1231 -0.6879  0.7472
15323TIP3   OH267383   0.871   4.803  15.649 -0.5725 -0.2580 -0.1412
15323TIP3    H167384   0.862   4.840  15.561  0.0559  1.1027  0.3385
15323TIP3    H267385   0.958   4.831  15.678 -0.9627 -0.2794  1.0879
15324TIP3   OH267386   0.052   4.293   1.344  0.1805  0.2496 -0.8272
15324TIP3    H167387   0.094   4.321   1.425 -1.6494  1.3888 -0.2064
15324TIP3    H267388   0.124   4.264   1.288  1.5921  0.5234  0.7738
15325TIP3   OH267389   2.358   2.834  15.004 -0.0092  0.5187  0.1984
15325TIP3    H167390   2.450   2.834  15.030  0.5435 -1.2212 -1.5174
15325TIP3    H267391   2.345   2.918  14.960  0.5344  1.1057  1.1429
15326TIP3   OH267392   1.839   1.418   4.191  0.2104  0.3995 -0.0862
15326TIP3    H167393   1.764   1.391   4.136  0.2927 -0.2484  0.1152
15326TIP3    H267394   1.915   1.408   4.134  0.2805 -0.1424  0.0980
15327TIP3   OH267395   1.353   1.537  17.082 -0.0398  0.4114  0.0080
15327TIP3    H167396   1.388   1.578  17.003  0.6100 -1.2232 -0.6008
15327TIP3    H267397   1.402   1.578  17.154  3.3312 -1.7420 -0.7947
15328TIP3   OH267398   4.524   2.548   1.497  0.0206  0.0215 -0.3713
15328TIP3    H167399   4.467   2.612   1.453 -1.6635 -1.6997 -0.8412
15328TIP3    H267400   4.472   2.468   1.499  1.6456 -1.0596  1.1650
15329TIP3   OH267401   4.695   5.681  16.803  0.0892  0.3176 -0.0324
15329TIP3    H167402   4.658   5.593  16.803  2.2135 -0.6487 -1.0883
15329TIP3    H267403   4.764   5.678  16.870  1.1060  0.7134 -1.0284
15330TIP3   OH267404   0.714   6.130  12.754  0.5775 -0.0315  0.7179
15330TIP3    H167405   0.757   6.206  12.714  0.4114  0.1892  0.9518
15330TIP3    H267406   0.627   6.162  12.777  0.1635 -0.5719 -0.0630
15331TIP3   OH267407   1.369   4.339   0.866  0.1248 -0.2420 -0.0703
15331TIP3    H167408   1.299   4.298   0.918 -0.6482  1.1233 -0.0062
15331TIP3    H267409   1.339   4.428   0.851  0.6900 -0.3645 -2.2246
15332TIP3   OH267410   6.104   3.632  11.255  0.8271 -0.1731  0.0567
15332TIP3    H167411   6.009   3.620  11.256  0.5912  1.3539 -0.5396
15332TIP3    H267412   6.139   3.547  11.229 -0.5727 -0.0571 -2.5358
15333TIP3   OH267413   1.100   2.298   2.381 -0.0213  0.6922  0.0563
15333TIP3    H167414   1.180   2.336   2.417  0.4006  0.7739 -0.9219
15333TIP3    H267415   1.051   2.267   2.457  2.0524 -1.5720  0.6157
15334TIP3   OH267416   4.357   1.049   4.949 -0.1091 -0.2837 -0.6226
15334TIP3    H167417   4.444   1.087   4.950 -0.0981 -0.2986 -1.0742
15334TIP3    H267418   4.303   1.110   5.000  0.1622 -0.2792 -0.3357
15335TIP3   OH267419   0.151   3.241  13.763  0.0020 -0.6066 -0.1087
15335TIP3    H167420   0.118   3.290  13.839  0.9529  0.7441 -0.5244
15335TIP3    H267421   0.225   3.191  13.797  1.4555  1.2278 -0.3932
15336TIP3   OH267422   1.637   3.596  15.424 -0.1677  0.0104 -0.5118
15336TIP3    H167423   1.715   3.637  15.386 -1.1198 -0.0540 -2.7010
15336TIP3    H267424   1.614   3.652  15.498  1.3097  0.6686 -0.5241
15337TIP3   OH267425   6.126   4.097  13.992  0.1904  0.1979  0.0270
15337TIP3    H167426   6.105   4.153  14.066 -0.5747 -0.5643  0.4035
15337TIP3    H267427   6.149   4.158  13.922  0.8993  0.9312  0.8653
15338TIP3   OH267428   4.223   5.261   2.255  0.1977  0.3798 -0.4368
15338TIP3    H167429   4.270   5.329   2.304  0.2376 -0.0889  0.1982
15338TIP3    H267430   4.287   5.191   2.244  0.2681  0.5825 -1.4144
15339TIP3   OH267431   4.401   2.393  15.487  0.0160  0.0744 -0.2398
15339TIP3    H167432   4.430   2.374  15.576 -2.1527  0.3590  0.6061
15339TIP3    H267433   4.319   2.443  15.499  0.9213  2.2780 -2.3826
15340TIP3   OH267434   1.487   5.603   3.761 -0.1841 -0.0095  0.6616
15340TIP3    H167435   1.521   5.534   3.704 -0.7126 -0.5121  0.9481
15340TIP3    H267436   1.492   5.683   3.707  1.5715 -0.0217  0.7476
15341TIP3   OH267437   0.982   3.336  12.667 -0.7451  0.2267 -0.6790
15341TIP3    H167438   1.048   3.337  12.736  0.7498  0.7038 -2.0674
15341TIP3    H267439   0.912   3.281  12.702  1.0281 -1.5863  0.2369
15342TIP3   OH267440   5.539   2.704  16.821 -0.1358  0.4347  0.3311
15342TIP3    H167441   5.519   2.790  16.783 -2.8907 -0.3378 -0.1810
15342TIP3    H267442   5.631   2.690  16.800  0.3933  3.1919  0.3479
15343TIP3   OH267443   5.563   2.929  15.935 -0.7465  0.0745 -0.2403
15343TIP3    H167444   5.614   3.008  15.952 -0.1725 -0.3807  0.2114
15343TIP3    H267445   5.569   2.915  15.841  3.3873 -2.1671  0.1346
15344TIP3   OH267446   1.980   4.392  14.296  0.0747  0.4593 -0.2552
15344TIP3    H167447   2.058   4.371  14.346 -1.1879 -0.5872  1.4061
15344TIP3    H267448   1.965   4.314  14.243  0.6065  0.9955 -1.2130
15345TIP3   OH267449   2.938   3.165   3.181  0.0130 -0.1516  1.5350
15345TIP3    H167450   3.018   3.182   3.231  1.4840  0.2739 -0.7848
15345TIP3    H267451   2.899   3.252   3.168 -0.8511 -0.3576  2.6512
15346TIP3   OH267452   3.408   3.592   2.485  0.3813 -0.3443  0.2283
15346TIP3    H167453   3.394   3.497   2.478 -0.2629 -0.3054  0.8438
15346TIP3    H267454   3.462   3.602   2.564  0.7665 -0.2214 -0.0477
15347TIP3   OH267455   4.861   2.398   5.400 -0.3017  0.2524  0.0491
15347TIP3    H167456   4.910   2.384   5.318  1.7517 -1.5628  1.4649
15347TIP3    H267457   4.830   2.310   5.424  0.2037  0.5429  1.8321
15348TIP3   OH267458   5.058   2.806  15.052  0.4001  0.2998 -0.1364
15348TIP3    H167459   5.072   2.880  15.113 -1.4776  0.3000  0.3451
15348TIP3    H267460   5.092   2.837  14.969 -0.4348  1.7795  0.0369
15349TIP3   OH267461   5.537   0.193   0.171 -0.0836  0.2003 -0.5553
15349TIP3    H167462   5.482   0.143   0.111 -1.3478 -1.6400  1.9208
15349TIP3    H267463   5.621   0.148   0.172 -0.2868 -0.1798 -0.4606
15350TIP3   OH267464   4.140   2.460  10.706 -0.0710 -0.3503 -0.0018
15350TIP3    H167465   4.230   2.430  10.690  0.6807  1.8922 -0.3598
15350TIP3    H267466   4.151   2.550  10.736 -2.0402 -0.9658  3.0115
15351TIP3   OH267467   4.053   1.707  14.380 -0.3467 -0.3642 -0.5807
15351TIP3    H167468   4.092   1.780  14.330  0.6487 -0.6956 -0.3153
15351TIP3    H267469   4.089   1.716  14.468 -1.0084 -0.5939 -0.2844
15352TIP3   OH267470   2.438   0.729  13.132  0.1137  0.2427  0.6315
15352TIP3    H167471   2.480   0.645  13.149 -0.0352  0.1189  0.3923
15352TIP3    H267472   2.371   0.710  13.066  1.0129  0.7909 -0.4932
15353TIP3   OH267473   3.662   4.898   5.271  0.5668  0.0481 -0.2446
15353TIP3    H167474   3.584   4.847   5.292 -0.9207  1.2131 -2.6057
15353TIP3    H267475   3.709   4.905   5.355 -1.8310 -0.6776  1.2617
15354TIP3   OH267476   6.066   3.475  16.206 -0.4142 -0.4151 -0.0842
15354TIP3    H167477   6.153   3.438  16.224 -0.2429 -0.1600 -0.3684
15354TIP3    H267478   6.084   3.548  16.146 -0.8483 -0.5044 -0.3222
15355TIP3   OH267479   1.201   3.360   4.751  0.2849  0.2612 -0.1688
15355TIP3    H167480   1.283   3.310   4.743 -0.3539 -0.5580 -2.3897
15355TIP3    H267481   1.178   3.354   4.844  1.0581 -2.2908 -0.0536
15356TIP3   OH267482   3.332   0.845   1.493  0.6304  0.6988  0.1403
15356TIP3    H167483   3.249   0.825   1.535  0.2427 -0.0989 -0.9481
15356TIP3    H267484   3.386   0.882   1.562 -0.3741  0.5358  1.0387
15357TIP3   OH267485   5.767   0.631  16.349  0.4180  0.9056 -0.0780
15357TIP3    H167486   5.679   0.610  16.381  0.5133 -0.1926 -0.4812
15357TIP3    H267487   5.778   0.724  16.369 -1.3885  1.4420 -1.3216
15358TIP3   OH267488   2.219   2.294  14.955  0.6446  0.1729 -0.6032
15358TIP3    H167489   2.246   2.378  14.918  1.6154 -0.2802 -0.9659
15358TIP3    H267490   2.220   2.307  15.050  1.9625  0.2452 -0.6156
15359TIP3   OH267491   3.986   5.878  15.191 -0.3521 -0.0712 -0.1946
15359TIP3    H167492   4.000   5.783  15.194 -0.3328 -0.0752 -0.4375
15359TIP3    H267493   3.891   5.888  15.186 -0.3149 -0.1001 -1.1119
15360TIP3   OH267494   6.424   1.663   1.746 -0.6067  0.5372 -0.2535
15360TIP3    H167495   6.516   1.638   1.751 -1.0063 -0.8767  0.3980
15360TIP3    H267496   6.413   1.693   1.655  0.1035 -0.8784 -0.8426
15361TIP3   OH267497   5.823   2.460  12.594 -0.1575  0.4135 -0.0718
15361TIP3    H167498   5.781   2.512  12.662  0.1886 -0.6909  1.0315
15361TIP3    H267499   5.751   2.426  12.541 -0.4547  0.9205  0.0009
15362TIP3   OH267500   0.218   5.433   1.117  0.3261  0.5122 -0.1262
15362TIP3    H167501   0.237   5.498   1.049 -0.3956  0.0508 -0.7879
15362TIP3    H267502   0.303   5.412   1.155  0.5845  1.8254  0.0917
15363TIP3   OH267503   1.550   3.768   3.399  0.3174 -0.1732  0.1656
15363TIP3    H167504   1.598   3.704   3.346  1.8273  0.9788  0.0735
15363TIP3    H267505   1.590   3.852   3.377 -1.3185  0.7617  0.6248
15364TIP3   OH267506   1.593   5.225  15.808  0.5289  0.5086 -0.4651
15364TIP3    H167507   1.617   5.140  15.845 -0.4150  0.9409  1.2521
15364TIP3    H267508   1.559   5.205  15.721  0.0282 -0.9118  0.0307
15365TIP3   OH267509   1.292   4.207   2.583  0.1809  0.3708  0.3659
15365TIP3    H167510   1.263   4.297   2.575  0.4102  0.2706 -2.6086
15365TIP3    H267511   1.355   4.208   2.655  0.4060  2.6271  0.1944
15366TIP3   OH267512   0.761   5.549   3.681  0.0535 -0.0306 -0.2030
15366TIP3    H167513   0.821   5.610   3.723  1.7075 -0.7038 -1.4875
15366TIP3    H267514   0.779   5.465   3.721 -0.7338 -0.0800  0.0720
15367TIP3   OH267515   0.899   1.676   0.718  0.2036 -0.1083  0.1019
15367TIP3    H167516   0.817   1.643   0.755 -0.0812 -0.0921 -0.5010
15367TIP3    H267517   0.958   1.601   0.722 -0.3499 -0.6338 -0.9785
15368TIP3   OH267518   3.368   5.635  14.164  0.1916  0.1899  0.1124
15368TIP3    H167519   3.345   5.662  14.253 -3.2324 -1.0129 -0.2455
15368TIP3    H267520   3.376   5.539  14.170  1.2631  0.2186 -0.6522
15369TIP3   OH267521   1.417   3.556   6.661 -0.6951 -0.2522 -0.1050
15369TIP3    H167522   1.352   3.623   6.681  1.2532  2.2437 -1.4497
15369TIP3    H267523   1.501   3.596   6.685  0.6158 -2.0318 -1.3861
15370TIP3   OH267524   1.291   4.933  12.434 -0.4407 -0.0377 -0.0713
15370TIP3    H167525   1.223   4.993  12.403  0.6950  1.2996 -0.1013
15370TIP3    H267526   1.314   4.967  12.521 -0.5431 -1.1018  0.3778
15371TIP3   OH267527   2.230   2.357   4.842  0.7466  0.3864  0.3239
15371TIP3    H167528   2.229   2.273   4.796 -0.5397 -0.2544  1.4256
15371TIP3    H267529   2.309   2.401   4.811  0.3108 -0.2973 -1.9153
15372TIP3   OH267530   0.787   3.253   6.318  0.8024 -0.6235  0.0258
15372TIP3    H167531   0.765   3.342   6.347  0.4316 -0.4931 -0.6232
15372TIP3    H267532   0.816   3.208   6.397  0.6493 -0.0271  0.4276
15373TIP3   OH267533   3.618   4.427  12.652 -0.1162  0.0453 -0.4015
15373TIP3    H167534   3.560   4.401  12.724  0.1264  1.1257  0.1992
15373TIP3    H267535   3.626   4.348  12.599 -0.2814 -0.7894  0.7667
15374TIP3   OH267536   3.962   3.972   4.064 -0.2880  0.0034 -0.3483
15374TIP3    H167537   3.923   3.991   4.150  0.3845  0.1037 -0.0569
15374TIP3    H267538   3.890   3.981   4.002 -0.6809  0.3913  0.1566
15375TIP3   OH267539   3.731   1.647   1.257  0.1956 -0.3426 -0.5316
15375TIP3    H167540   3.708   1.554   1.251 -0.3612 -0.1934 -0.8068
15375TIP3    H267541   3.673   1.682   1.324  1.4451 -0.4955  0.6501
15376TIP3   OH267542   3.938   4.066  16.769 -0.0576 -0.7322  0.3850
15376TIP3    H167543   3.925   4.135  16.833 -0.6213 -0.7768  0.3289
15376TIP3    H267544   3.850   4.046  16.737  0.3820  1.5760 -2.8529
15377TIP3   OH267545   5.552   0.100  14.035 -0.1889  0.2025 -0.3344
15377TIP3    H167546   5.618   0.166  14.015 -1.4628  1.1738 -1.5680
15377TIP3    H267547   5.579   0.023  13.986  0.5915  0.2430  0.0275
15378TIP3   OH267548   1.731   4.369  12.897  0.1642 -0.6321 -0.2277
15378TIP3    H167549   1.809   4.425  12.901 -0.7775  0.7286 -0.1441
15378TIP3    H267550   1.763   4.287  12.861  1.5003  0.1575 -0.9544
15379TIP3   OH267551   6.702   3.049  14.288  0.4158 -0.1753 -0.0143
15379TIP3    H167552   6.636   2.983  14.310  1.2513 -1.4902 -1.3666
15379TIP3    H267553   6.785   3.008  14.310  1.0699 -0.3096 -2.4685
15380TIP3   OH267554   6.480   2.793  13.305  0.0221 -0.0165 -0.1775
15380TIP3    H167555   6.402   2.763  13.257 -0.6510  0.3854  0.6401
15380TIP3    H267556   6.457   2.782  13.397  0.9539  0.0751  0.0724
15381TIP3   OH267557   0.053   2.832   3.898 -0.1180  0.4413 -0.0873
15381TIP3    H167558   0.132   2.820   3.950  0.1044  0.7402 -0.3512
15381TIP3    H267559   0.032   2.925   3.907  2.3005  1.5600 -3.8189
15382TIP3   OH267560   0.630   2.514   3.955 -0.2229 -0.2698 -0.4535
15382TIP3    H167561   0.568   2.564   3.902  2.7433  4.5753  0.0872
15382TIP3    H267562   0.709   2.508   3.901  0.7353 -1.1481  0.9713
15383TIP3   OH267563   4.880   3.835   2.578  0.8613 -0.3175  0.4554
15383TIP3    H167564   4.911   3.811   2.665 -0.3553  0.3915  1.1169
15383TIP3    H267565   4.799   3.785   2.567  1.7204 -1.4835 -0.8782
15384TIP3   OH267566   4.883   5.356  11.194  0.0760  0.2060 -0.0398
15384TIP3    H167567   4.834   5.305  11.130 -0.3044 -2.0567  1.9193
15384TIP3    H267568   4.822   5.424  11.222  0.1766  1.0885 -1.8437
15385TIP3   OH267569   5.101   1.187  12.972 -0.3901 -0.3859 -0.0866
15385TIP3    H167570   5.071   1.102  13.003 -0.5634  0.4295  2.1753
15385TIP3    H267571   5.118   1.237  13.052 -1.3420  2.0692 -1.3144
15386TIP3   OH267572   5.774   0.038   2.099  0.1288  0.5365 -0.0333
15386TIP3    H167573   5.752   0.042   2.006 -0.7923  2.0974  0.2194
15386TIP3    H267574   5.690   0.032   2.143  0.6107 -1.8360  0.6845
15387TIP3   OH267575   6.769   3.681   4.607  0.2183 -0.2906 -0.0366
15387TIP3    H167576   6.677   3.665   4.627 -0.4400 -0.0484 -2.5235
15387TIP3    H267577   6.799   3.740   4.676 -2.1792  1.5645 -0.4393
15388TIP3   OH267578   6.631   4.193  16.371 -0.4527 -0.5406 -0.0644
15388TIP3    H167579   6.542   4.175  16.342  0.0499 -1.3644 -1.1712
15388TIP3    H267580   6.686   4.168  16.297  0.5763  2.6065 -0.5010
15389TIP3   OH267581   3.370   2.668  14.227 -0.5922 -0.1178  0.5439
15389TIP3    H167582   3.358   2.737  14.161 -0.1637  1.4811  2.0621
15389TIP3    H267583   3.425   2.603  14.183 -2.2293 -0.2795 -1.4410
15390TIP3   OH267584   0.858   4.666   0.330 -0.2273 -0.4571 -0.5853
15390TIP3    H167585   0.877   4.740   0.388  0.2084 -0.3455 -0.8662
15390TIP3    H267586   0.876   4.589   0.384  0.1613 -0.3532 -0.5622
15391TIP3   OH267587   0.425   0.286  13.004 -0.1529 -0.5712  0.3341
15391TIP3    H167588   0.348   0.241  13.040  0.0450 -1.4765 -0.3313
15391TIP3    H267589   0.444   0.354  13.068 -0.8281 -1.0533  1.0831
15392TIP3   OH267590   2.257   4.366   5.660 -0.2533  0.4814 -0.0880
15392TIP3    H167591   2.242   4.339   5.569 -0.3001  0.8207 -0.1829
15392TIP3    H267592   2.242   4.461   5.659 -0.9534  0.3837  0.4209
15393TIP3   OH267593   2.241   4.328   2.475 -0.6217 -0.1120 -0.0574
15393TIP3    H167594   2.293   4.384   2.418  0.8985  0.1846  1.5416
15393TIP3    H267595   2.194   4.388   2.533 -0.2848 -0.4298  0.5630
15394TIP3   OH267596   3.197   1.215  16.528 -0.0118  0.3043 -0.1719
15394TIP3    H167597   3.116   1.167  16.541  0.6116 -0.7664 -0.0712
15394TIP3    H267598   3.170   1.305  16.509 -1.1728  0.2271  0.9971
15395TIP3   OH267599   5.992   2.840  16.467  0.4217  0.1577  0.4015
15395TIP3    H167600   5.955   2.766  16.419  1.7692 -0.8216  0.7844
15395TIP3    H267601   5.996   2.911  16.404 -1.7640  0.2151  0.2780
15396TIP3   OH267602   4.950   0.174   3.751 -0.1342 -0.1866  0.3900
15396TIP3    H167603   4.917   0.257   3.785  1.2296  0.4437  0.2597
15396TIP3    H267604   4.993   0.133   3.826 -0.0558 -0.3706  0.2450
15397TIP3   OH267605   2.840   0.816  13.303  0.0750  0.0032 -0.1259
15397TIP3    H167606   2.753   0.855  13.302  0.8394  1.7852 -0.5523
15397TIP3    H267607   2.899   0.888  13.327  1.6348 -0.7083 -1.6058
15398TIP3   OH267608   3.818   1.355   2.370  0.4082  0.4351 -0.5906
15398TIP3    H167609   3.867   1.344   2.452 -0.1673 -0.2456 -0.3221
15398TIP3    H267610   3.790   1.266   2.347 -0.0249  0.7132 -1.1569
15399TIP3   OH267611   2.982   3.903  12.251  0.2797  0.0189  0.0319
15399TIP3    H167612   3.007   3.912  12.159  1.5570 -0.2898  0.3254
15399TIP3    H267613   2.943   3.815  12.257  1.7196 -0.6526  0.0739
15400TIP3   OH267614   1.310   1.411   4.230 -0.6854  0.2908 -0.0452
15400TIP3    H167615   1.322   1.475   4.161  0.4817  0.6449  0.4677
15400TIP3    H267616   1.328   1.459   4.311 -1.6791 -0.2010  0.4918
15401TIP3   OH267617   1.479   2.307  12.807 -0.6440  0.0603  0.8341
15401TIP3    H167618   1.472   2.401  12.824 -0.7091  0.3887 -0.8049
15401TIP3    H267619   1.410   2.289  12.743  0.1426 -0.8453  0.2006
15402TIP3   OH267620   2.070   4.795  14.380 -0.1097 -0.4292  1.2317
15402TIP3    H167621   2.010   4.747  14.322  0.2223 -0.1402  0.6337
15402TIP3    H267622   2.082   4.738  14.455  0.6626 -1.5248  0.3199
15403TIP3   OH267623   6.044   2.920   4.286 -0.5404  0.1881  0.0893
15403TIP3    H167624   5.958   2.922   4.330 -0.4355 -1.1871  0.4048
15403TIP3    H267625   6.034   2.978   4.211 -1.6695  0.2565  0.2737
15404TIP3   OH267626   4.669   2.897  16.633  0.1938 -0.0791  0.1740
15404TIP3    H167627   4.686   2.904  16.539  0.2472  0.3391  0.2130
15404TIP3    H267628   4.589   2.845  16.639  1.1271 -1.6349 -0.0352
15405TIP3   OH267629   4.379   5.188  12.369 -0.1006  0.0997  0.2618
15405TIP3    H167630   4.345   5.188  12.279 -0.9227  1.9532  0.5253
15405TIP3    H267631   4.302   5.186  12.424  0.3882 -0.4858  0.9442
15406TIP3   OH267632   0.583   3.347  15.685  0.3910 -0.3339 -0.2860
15406TIP3    H167633   0.657   3.290  15.665 -0.1827 -1.5149  0.7913
15406TIP3    H267634   0.584   3.413  15.616  0.9893 -1.7645 -1.7079
15407TIP3   OH267635   1.965   1.731  17.244  0.1732  0.4023 -0.2562
15407TIP3    H167636   1.984   1.820  17.273 -1.5071  0.6011  0.3581
15407TIP3    H267637   1.957   1.681  17.326  0.7619 -0.2352 -0.5853
15408TIP3   OH267638   4.429   2.174   2.362 -0.1691 -0.1997  0.6490
15408TIP3    H167639   4.453   2.129   2.281 -0.0781  1.8338 -0.5013
15408TIP3    H267640   4.506   2.227   2.383 -0.5396 -0.0211  1.5985
15409TIP3   OH267641   6.455   3.848   1.962  0.2746  0.1247 -0.0094
15409TIP3    H167642   6.371   3.829   1.920  0.0074 -0.0835  0.6039
15409TIP3    H267643   6.506   3.767   1.953  0.1427  0.0132  0.2412
15410TIP3   OH267644   0.321   4.712   4.835 -0.2771  0.0510  0.2566
15410TIP3    H167645   0.354   4.728   4.923 -0.9220  0.5027  0.4214
15410TIP3    H267646   0.370   4.773   4.780 -0.7083  0.5921  0.4723
15411TIP3   OH267647   0.579   1.927  13.263 -0.7771  0.1904  0.1883
15411TIP3    H167648   0.564   1.937  13.169  0.4256  2.1196  0.1311
15411TIP3    H267649   0.641   1.854  13.270 -0.4172  0.4108 -0.5841
15412TIP3   OH267650   5.017   2.419   1.972  0.4519  0.2970 -0.0316
15412TIP3    H167651   4.997   2.448   2.061  1.6458  2.4251 -0.3892
15412TIP3    H267652   4.974   2.482   1.915 -1.0486 -1.5445 -1.0582
15413TIP3   OH267653   0.081   5.969  13.955  0.4012  0.1658  0.3080
15413TIP3    H167654   0.014   5.951  13.889 -0.9917 -2.1813  2.2191
15413TIP3    H267655   0.151   5.907  13.936 -0.1350 -0.7243  1.1706
15414TIP3   OH267656   3.481   0.163   0.007 -0.4223 -0.2239  0.0950
15414TIP3    H167657   3.511   0.075  -0.012 -1.5284 -0.0522 -3.1334
15414TIP3    H267658   3.556   0.207   0.046  0.8014 -2.0092 -0.1706
15415TIP3   OH267659   4.511   4.691  14.338 -0.2903  0.2813  0.0593
15415TIP3    H167660   4.450   4.680  14.411 -1.0239 -0.9520 -0.6986
15415TIP3    H267661   4.486   4.774  14.298 -1.1512  0.0385  0.0730
15416TIP3   OH267662   4.454   5.192   4.165  0.0324  0.3029  0.2343
15416TIP3    H167663   4.389   5.252   4.128  0.4189  1.5419  1.4498
15416TIP3    H267664   4.442   5.200   4.260  2.3253  1.0482  0.5358
15417TIP3   OH267665   0.022   3.236   4.167 -0.0776  0.2600 -0.0181
15417TIP3    H167666  -0.022   3.189   4.238 -1.4483  0.6034 -0.6095
15417TIP3    H267667   0.101   3.185   4.150 -1.8778 -2.3364 -1.1991
15418TIP3   OH267668   0.884   3.635   4.436 -0.3561  0.6202  0.3668
15418TIP3    H167669   0.942   3.710   4.449  0.2759 -0.0632  1.5678
15418TIP3    H267670   0.863   3.638   4.342 -0.2660  2.2249  0.3590
15419TIP3   OH267671   6.632   2.521   3.616 -0.1998  0.1925  0.6473
15419TIP3    H167672   6.556   2.563   3.657 -0.6407 -0.6256  0.6854
15419TIP3    H267673   6.677   2.593   3.572 -0.7473  0.7690  1.0002
15420TIP3   OH267674   3.924   4.625  15.596 -0.1595  0.0743 -0.2377
15420TIP3    H167675   3.874   4.573  15.533 -0.0999  0.3356 -0.5003
15420TIP3    H267676   3.974   4.560  15.646 -1.4194 -0.2781  0.6261
15421TIP3   OH267677   5.977   0.424   0.473 -0.6378 -0.4307 -0.1794
15421TIP3    H167678   6.016   0.507   0.499 -0.3940 -0.2238 -1.1700
15421TIP3    H267679   6.049   0.361   0.478 -0.7582 -0.5359  0.3044
15422TIP3   OH267680   4.311   1.282  13.717  0.2652  0.5436 -0.4359
15422TIP3    H167681   4.228   1.235  13.714  0.8207 -0.6161  0.9869
15422TIP3    H267682   4.314   1.331  13.635 -1.2437 -0.3719 -1.0840
15423TIP3   OH267683   5.161   2.311  11.206  0.1021 -0.6589 -0.1654
15423TIP3    H167684   5.146   2.216  11.210  0.4177 -0.6976  3.3723
15423TIP3    H267685   5.083   2.346  11.163 -0.2912 -2.4316 -1.0111
15424TIP3   OH267686   4.424   3.250  12.751  0.1718  0.4068  0.1016
15424TIP3    H167687   4.496   3.242  12.813 -2.2992  0.0328  3.1368
15424TIP3    H267688   4.361   3.307  12.794 -3.1440 -2.5031 -0.4688
15425TIP3   OH267689   5.580   5.691  15.090 -0.6774  0.4814 -0.2089
15425TIP3    H167690   5.484   5.694  15.095 -0.7300  2.2564 -1.1254
15425TIP3    H267691   5.598   5.687  14.996  0.1762 -1.1886 -0.0104
15426TIP3   OH267692   3.055   5.510   4.856 -0.3452  0.0502 -0.2109
15426TIP3    H167693   3.004   5.490   4.777 -0.6390  0.2719 -0.0774
15426TIP3    H267694   3.061   5.426   4.902  1.5737 -0.5706 -1.4609
15427TIP3   OH267695   3.431   3.854  13.754  0.2907 -0.0736 -0.1930
15427TIP3    H167696   3.479   3.778  13.723 -0.9771 -0.7996 -0.4473
15427TIP3    H267697   3.400   3.897  13.674 -2.0958 -1.3686 -0.0377
15428TIP3   OH267698   6.351   5.004   3.505  0.2779  0.1280  0.4439
15428TIP3    H167699   6.368   5.087   3.462  0.1614  0.5488  1.1999
15428TIP3    H267700   6.435   4.981   3.545  0.9054 -1.1433 -1.4329
15429TIP3   OH267701   1.087   3.855   1.959 -0.3529 -0.2396 -0.2670
15429TIP3    H167702   1.162   3.896   1.915 -0.3418  0.9368  0.8092
15429TIP3    H267703   1.093   3.763   1.935 -0.6760  0.3825 -3.2193
15430TIP3   OH267704   3.999   5.575  12.247 -0.3471 -0.1915 -0.2654
15430TIP3    H167705   3.912   5.550  12.217 -1.7615  0.1971  3.0998
15430TIP3    H267706   4.007   5.667  12.221 -1.5833  0.1971  0.6372
15431TIP3   OH267707   3.886   1.688   2.615  0.4602 -0.0080  0.5111
15431TIP3    H167708   3.971   1.645   2.602  0.6753  0.3449  0.7460
15431TIP3    H267709   3.842   1.635   2.681 -0.4171 -1.5039 -1.1733
15432TIP3   OH267710   0.308   4.497   5.280  0.1867 -0.1030 -0.1988
15432TIP3    H167711   0.242   4.484   5.348 -1.4273  0.3159 -1.6074
15432TIP3    H267712   0.289   4.430   5.215  2.7824 -1.6324  0.4368
15433TIP3   OH267713   5.959   5.577   2.685 -0.6404  0.1373  0.0649
15433TIP3    H167714   5.973   5.561   2.592  0.8153  1.6220 -0.0160
15433TIP3    H267715   5.944   5.491   2.723  0.0563 -0.6288 -1.3355
15434TIP3   OH267716   2.535   1.417  16.439  0.5008  0.2136  0.6109
15434TIP3    H167717   2.629   1.414  16.424  0.7322  0.6382  1.9151
15434TIP3    H267718   2.520   1.498  16.488 -1.0611  2.2489 -2.8314
15435TIP3   OH267719   5.818   6.185  14.644  0.0460 -0.0300 -0.2254
15435TIP3    H167720   5.913   6.186  14.651  0.0534 -1.9052  0.6533
15435TIP3    H267721   5.788   6.240  14.716  0.4585 -0.9815  0.6906
15436TIP3   OH267722   0.419   5.492   4.208 -0.4697 -0.0458 -0.1648
15436TIP3    H167723   0.486   5.438   4.166 -0.3917 -0.8030  0.8873
15436TIP3    H267724   0.337   5.451   4.183 -0.3886 -1.0712  1.1263
15437TIP3   OH267725   3.208   0.334  12.719 -0.1032 -0.5662 -0.7128
15437TIP3    H167726   3.226   0.427  12.727 -1.1999 -0.4710  1.3190
15437TIP3    H267727   3.292   0.292  12.734  0.2924  0.0754 -1.0953
15438TIP3   OH267728   4.254   4.596  14.545 -0.2965  0.0186 -0.2490
15438TIP3    H167729   4.188   4.529  14.564 -0.5558  0.0490 -1.0180
15438TIP3    H267730   4.324   4.579  14.608 -1.1684  0.1887  0.7991
15439TIP3   OH267731   4.239   3.426  12.803 -0.3559  0.5352 -0.2638
15439TIP3    H167732   4.283   3.495  12.754  0.1759  0.1001 -0.4203
15439TIP3    H267733   4.267   3.439  12.894 -0.4650  0.6870 -0.2531
15440TIP3   OH267734   6.270   0.966   4.597  0.1369  0.4778 -0.3489
15440TIP3    H167735   6.232   0.883   4.568 -0.1040  0.2197  0.6382
15440TIP3    H267736   6.194   1.024   4.606  0.2786  0.7350 -0.8213
15441TIP3   OH267737   5.008   1.346  12.755 -0.0495 -0.0808  0.0910
15441TIP3    H167738   5.027   1.267  12.807 -0.0306 -0.4982 -0.5460
15441TIP3    H267739   4.918   1.368  12.779 -0.3977 -0.8682 -0.4506
15442TIP3   OH267740   0.188   2.950  14.332 -0.2484 -0.1523  0.1098
15442TIP3    H167741   0.284   2.957  14.323 -0.4499  2.6350 -0.8219
15442TIP3    H267742   0.175   2.871  14.384  2.6806  0.6353  2.3246
15443TIP3   OH267743   2.138   0.609  17.062 -0.1182 -0.4291  0.4220
15443TIP3    H167744   2.189   0.676  17.108  0.3388 -0.7961  0.4510
15443TIP3    H267745   2.047   0.629  17.086  0.0060  0.2007  0.4027
15444TIP3   OH267746   5.277   2.665  11.233 -1.0706 -0.3961 -0.1798
15444TIP3    H167747   5.211   2.641  11.298 -0.7125 -0.1500  0.2760
15444TIP3    H267748   5.227   2.683  11.153 -1.5854  0.1347  0.2594
15445TIP3   OH267749   1.181   6.448   6.421 -0.4806  0.3751  0.5569
15445TIP3    H167750   1.175   6.373   6.480 -0.4338 -0.0032  0.0850
15445TIP3    H267751   1.092   6.483   6.417 -0.5795  0.1166  0.4867
15446TIP3   OH267752   1.326   5.711  12.981  0.5580  0.4161  0.5429
15446TIP3    H167753   1.392   5.775  12.955  0.0284  0.0595 -2.0087
15446TIP3    H267754   1.246   5.762  12.995  0.5868  0.5078  0.3721
15447TIP3   OH267755   1.015   5.129   1.633  0.1330  0.1576 -0.6952
15447TIP3    H167756   0.976   5.189   1.569 -0.5064 -0.7718 -1.2035
15447TIP3    H267757   1.098   5.170   1.657 -0.3814  1.3514 -0.8563
15448TIP3   OH267758   6.738   5.665   6.165 -0.2278  0.8964 -0.0353
15448TIP3    H167759   6.645   5.685   6.152 -0.1654  2.7819  1.9185
15448TIP3    H267760   6.773   5.742   6.209  1.7378 -0.7490  1.4722
15449TIP3   OH267761   4.339   4.211  12.846 -0.5697 -0.4583 -0.3139
15449TIP3    H167762   4.417   4.265  12.837 -0.4728 -0.2871  1.1995
15449TIP3    H267763   4.266   4.271  12.828 -0.3758 -0.5695 -1.5243
15450TIP3   OH267764   1.266   5.396   2.566  0.2810 -0.0149 -0.1150
15450TIP3    H167765   1.295   5.372   2.479 -1.5430 -1.5337 -0.3822
15450TIP3    H267766   1.303   5.483   2.582  1.8522 -0.3446 -1.7751
15451TIP3   OH267767   4.080   1.495  14.616  0.1666 -0.2813  0.2522
15451TIP3    H167768   4.011   1.529  14.673  0.3715 -0.5438  0.6724
15451TIP3    H267769   4.152   1.558  14.625  0.0905 -0.1664  0.0507
15452TIP3   OH267770   0.609   3.567   2.367 -0.2766  0.0619 -0.2655
15452TIP3    H167771   0.599   3.615   2.284 -0.6571 -2.1118 -1.5494
15452TIP3    H267772   0.695   3.594   2.400 -1.0448  2.6581 -0.1710
15453TIP3   OH267773   1.406   1.043   1.391 -0.0875 -0.2006  0.2722
15453TIP3    H167774   1.427   1.020   1.301 -1.7769  1.0998 -0.5058
15453TIP3    H267775   1.472   0.998   1.444  2.7953  1.3348 -1.7476
15454TIP3   OH267776   3.636   5.522  11.660 -0.2414  0.1876  0.0663
15454TIP3    H167777   3.727   5.502  11.636 -0.4189  0.5052 -0.8950
15454TIP3    H267778   3.608   5.445  11.710  0.1597 -0.4864 -0.7162
15455TIP3   OH267779   6.772   4.683   1.516  0.4995  0.2987 -0.2909
15455TIP3    H167780   6.762   4.594   1.550 -0.8035 -0.4985 -2.5012
15455TIP3    H267781   6.685   4.722   1.523  0.9468  1.2346  0.2082
15456TIP3   OH267782   5.018   6.460  16.722 -0.1915  0.3756  0.2336
15456TIP3    H167783   4.939   6.468  16.668 -0.3204 -0.2694  0.3185
15456TIP3    H267784   5.090   6.456  16.658 -0.2747  0.4419  0.1358
15457TIP3   OH267785   5.150   5.309  10.848 -0.1336 -0.3196  0.5339
15457TIP3    H167786   5.114   5.221  10.861  0.4597 -0.3197  2.4799
15457TIP3    H267787   5.087   5.368  10.889  1.3375 -0.2204  2.8485
15458TIP3   OH267788   2.519   1.191  10.728 -0.2387  0.7433 -0.0357
15458TIP3    H167789   2.559   1.141  10.799  0.8051  0.7846 -0.5693
15458TIP3    H267790   2.572   1.270  10.720 -1.7782  1.8999  0.6901
15459TIP3   OH267791   5.527   6.241  12.426 -0.1365 -0.3923 -0.3001
15459TIP3    H167792   5.432   6.234  12.436 -0.2918 -0.1686 -1.4885
15459TIP3    H267793   5.544   6.212  12.337  0.5027  2.8284 -1.3566
15460TIP3   OH267794   4.466   3.279   0.350 -0.2828  0.4856 -0.0622
15460TIP3    H167795   4.523   3.286   0.428 -2.5407 -0.5072  1.8059
15460TIP3    H267796   4.439   3.369   0.332  1.1923  0.8799 -0.5140
15461TIP3   OH267797   3.548   4.615  14.879  0.4421  0.3362 -0.4000
15461TIP3    H167798   3.528   4.631  14.787  0.4346 -0.4304 -0.5453
15461TIP3    H267799   3.636   4.578  14.879 -0.0767 -0.9904 -0.2584
15462TIP3   OH267800   2.535   3.499  15.665 -0.0895 -0.1487 -0.5265
15462TIP3    H167801   2.552   3.572  15.724 -2.1860 -0.7354  0.9239
15462TIP3    H267802   2.560   3.532  15.579  0.3419  1.7731  0.2717
15463TIP3   OH267803   0.274   0.482  12.802  0.3069  0.0809 -0.5990
15463TIP3    H167804   0.257   0.486  12.896  0.3646  1.1933 -0.6271
15463TIP3    H267805   0.323   0.401  12.791  0.7221  0.1734  0.4032
15464TIP3   OH267806   0.200   2.235  14.258 -0.2622 -0.2528  0.2370
15464TIP3    H167807   0.105   2.234  14.260 -0.4081  2.1950 -1.3367
15464TIP3    H267808   0.225   2.277  14.341 -0.7425  1.4109 -0.4081
15465TIP3   OH267809   1.525   0.724  14.191 -0.0806  0.1334 -0.3256
15465TIP3    H167810   1.521   0.809  14.235 -0.0857  0.3525 -0.7516
15465TIP3    H267811   1.433   0.697  14.183 -0.0574 -0.1422  0.2469
15466TIP3   OH267812   4.430   4.662  16.231  0.0880 -0.1971  0.1201
15466TIP3    H167813   4.358   4.719  16.257 -0.6931 -0.7578 -0.7373
15466TIP3    H267814   4.462   4.699  16.149  0.3874 -0.2925  0.1917
15467TIP3   OH267815   4.865   1.973  12.130  0.3225 -0.6944 -0.0505
15467TIP3    H167816   4.914   2.044  12.089 -2.1673  0.5481 -1.0519
15467TIP3    H267817   4.814   1.934  12.059  0.5884 -2.5981  0.7500
15468TIP3   OH267818   3.541   0.830   0.587 -0.0934  0.3455  0.3518
15468TIP3    H167819   3.565   0.744   0.623  2.1861  0.2852 -1.1084
15468TIP3    H267820   3.479   0.810   0.517  0.9325 -0.2215 -0.4302
15469TIP3   OH267821   3.075   3.699  16.544 -0.2900  0.2638  0.3153
15469TIP3    H167822   2.997   3.710  16.490 -0.2622 -0.6667  0.0676
15469TIP3    H267823   3.093   3.787  16.579  0.0066  1.0170 -1.6080
15470TIP3   OH267824   5.062   4.167  14.586 -0.2898 -0.0645 -0.0690
15470TIP3    H167825   4.991   4.194  14.645  0.5263 -0.3871  1.0926
15470TIP3    H267826   5.139   4.215  14.616  0.3381 -0.8722 -0.3274
15471TIP3   OH267827   4.533   6.536  15.217  0.3082  0.3825  0.2483
15471TIP3    H167828   4.544   6.496  15.303  0.6770  0.6442  0.3282
15471TIP3    H267829   4.531   6.630  15.235  0.7325  0.4516 -0.0617
15472TIP3   OH267830   4.640   4.507  15.262 -0.2654 -0.0880 -0.1001
15472TIP3    H167831   4.613   4.583  15.314  0.3870  0.9432 -1.2223
15472TIP3    H267832   4.715   4.471  15.309 -0.7373 -0.2074  0.5753
15473TIP3   OH267833   2.767   4.552  12.610 -0.0297 -0.2382 -0.2754
15473TIP3    H167834   2.809   4.505  12.682 -0.5933  0.8970  0.8514
15473TIP3    H267835   2.677   4.564  12.640 -0.1063  0.8141 -0.8794
15474TIP3   OH267836   6.127   0.317   0.154 -0.0383 -0.1264  0.0451
15474TIP3    H167837   6.139   0.275   0.069  0.8825 -1.5606  0.8354
15474TIP3    H267838   6.216   0.338   0.183 -0.3186  0.0931  0.7673
15475TIP3   OH267839   6.291   0.717   0.135 -0.4008  0.2750 -0.2061
15475TIP3    H167840   6.334   0.632   0.132 -0.0191  0.4593 -0.1462
15475TIP3    H267841   6.198   0.698   0.134 -0.3165 -0.1264 -0.5808
15476TIP3   OH267842   0.274   0.107   1.453  0.1419  0.0533  0.1692
15476TIP3    H167843   0.221   0.169   1.502  0.6094  0.4933  0.1298
15476TIP3    H267844   0.269   0.025   1.503  1.5000  0.7805  1.5701
15477TIP3   OH267845   1.354   0.415  14.317 -0.6390 -0.1782  0.3914
15477TIP3    H167846   1.333   0.334  14.269 -0.6588 -1.2280  2.0914
15477TIP3    H267847   1.429   0.451  14.270 -0.2408 -1.5131 -0.0572
15478TIP3   OH267848   5.211   5.193  15.296  0.5607  0.2541  0.5939
15478TIP3    H167849   5.273   5.122  15.286 -1.0016 -1.0687 -0.2149
15478TIP3    H267850   5.208   5.209  15.391  0.4648 -1.2223  0.8704
15479TIP3   OH267851   4.622   5.990   0.269  0.0636  0.4229  0.1727
15479TIP3    H167852   4.669   5.939   0.203 -1.0888 -0.0535 -0.3106
15479TIP3    H267853   4.599   5.926   0.337 -0.2527  0.5627  0.1976
15480TIP3   OH267854   2.762   0.439  14.929 -0.0272  0.0107  0.1793
15480TIP3    H167855   2.817   0.506  14.969  0.3208 -0.0330 -0.2181
15480TIP3    H267856   2.677   0.482  14.918  0.1666  0.3631  0.0188
15481TIP3   OH267857   3.383   0.204   4.776  0.4289  0.4075 -0.5465
15481TIP3    H167858   3.371   0.166   4.689  1.4745 -1.3275  0.0073
15481TIP3    H267859   3.340   0.141   4.835 -0.2701  1.5621  0.2086
15482TIP3   OH267860   0.931   2.715   4.346  0.2730  0.1201  0.1031
15482TIP3    H167861   0.869   2.732   4.417 -0.0996 -2.5604  0.5084
15482TIP3    H267862   0.876   2.695   4.270  0.6762  0.3229 -0.2504
15483TIP3   OH267863   2.913   1.754   4.230  0.1661 -0.3449  0.2507
15483TIP3    H167864   2.902   1.834   4.281 -0.6211 -0.5764  0.4490
15483TIP3    H267865   3.003   1.758   4.199  0.3024  0.3503  0.7175
15484TIP3   OH267866   2.028   2.133  15.467  0.1075 -0.1816  0.4511
15484TIP3    H167867   1.979   2.076  15.527  0.7934 -0.7289  0.5092
15484TIP3    H267868   2.000   2.105  15.380 -0.3569  0.1280  0.4971
15485TIP3   OH267869   1.304   5.526   3.988  0.4950  0.0783 -0.5636
15485TIP3    H167870   1.358   5.579   3.929  0.9122  1.7089  1.1705
15485TIP3    H267871   1.364   5.498   4.057 -0.0595 -1.4516 -0.6775
15486TIP3   OH267872   6.739   1.104  11.298  0.5693 -0.2047 -0.0140
15486TIP3    H167873   6.816   1.106  11.354 -0.3806 -1.2843  1.3789
15486TIP3    H267874   6.678   1.167  11.337  0.5007  0.1919 -0.7451
15487TIP3   OH267875   3.972   1.271  16.969 -0.3860  0.1298  0.5786
15487TIP3    H167876   4.043   1.309  16.918  0.2022 -0.3138  1.0613
15487TIP3    H267877   3.983   1.177  16.959 -1.1213  0.0608  0.3685
15488TIP3   OH267878   3.256   2.836   4.967  0.6133  0.2694  0.4277
15488TIP3    H167879   3.293   2.840   5.055 -1.8347 -1.1251  1.6235
15488TIP3    H267880   3.165   2.809   4.980 -0.1820  1.1437 -2.4732
15489TIP3   OH267881   3.650   1.157   3.240  0.1327 -0.2204 -0.2914
15489TIP3    H167882   3.651   1.186   3.149  2.9993  0.9243  0.0076
15489TIP3    H267883   3.709   1.081   3.241  0.0546 -0.2784  0.5968
15490TIP3   OH267884   1.326   4.057  15.650 -0.3206 -0.0206 -0.0239
15490TIP3    H167885   1.407   4.049  15.701 -0.4651 -0.6591  0.1059
15490TIP3    H267886   1.350   4.113  15.576 -0.3553  1.7977  1.2575
15491TIP3   OH267887   0.457   3.779  11.863  0.1835  0.1304 -0.2688
15491TIP3    H167888   0.497   3.852  11.816  0.0260 -0.0972 -0.7735
15491TIP3    H267889   0.364   3.803  11.868  0.1606  0.0434 -0.2824
15492TIP3   OH267890   0.469   3.638   0.645 -0.2658  0.3101 -0.1904
15492TIP3    H167891   0.507   3.705   0.702  2.0651  0.8343 -2.1557
15492TIP3    H267892   0.467   3.558   0.698  1.7315  0.7793  0.6694
15493TIP3   OH267893   0.814   3.074  12.151  0.6943  0.5592  0.4895
15493TIP3    H167894   0.906   3.098  12.144  1.1433 -0.6178  2.0064
15493TIP3    H267895   0.797   3.068  12.245 -0.7522  0.1012  0.2278
15494TIP3   OH267896   2.903   1.687  11.927 -0.2099 -0.1140 -0.6768
15494TIP3    H167897   2.857   1.757  11.973 -0.1684 -1.2715  1.2326
15494TIP3    H267898   2.835   1.621  11.909  0.0575 -0.3048 -1.0033
15495TIP3   OH267899   6.502   5.327   0.422  0.0091  0.0990  0.8237
15495TIP3    H167900   6.435   5.377   0.467 -0.1582 -0.2505  0.9617
15495TIP3    H267901   6.504   5.242   0.466 -1.8077 -1.1386 -1.2688
15496TIP3   OH267902   3.974   1.470  12.200  0.1474 -0.1978 -0.3664
15496TIP3    H167903   3.890   1.433  12.224 -0.8987  1.3122 -1.4643
15496TIP3    H267904   3.975   1.466  12.104  2.5480 -2.6555 -0.3574
15497TIP3   OH267905   1.453   3.172   4.246 -0.1694  0.0822  0.1933
15497TIP3    H167906   1.372   3.146   4.290  0.1209  0.6123  1.0729
15497TIP3    H267907   1.468   3.104   4.180 -0.9821 -0.3630  0.4601
15498TIP3   OH267908   6.461   4.310   5.131 -0.9353 -0.1544  0.0766
15498TIP3    H167909   6.535   4.249   5.140 -0.7822  0.1467  1.0179
15498TIP3    H267910   6.386   4.263   5.168 -1.4120 -0.7500 -1.5615
15499TIP3   OH267911   5.845   2.621  11.951  0.2609 -0.5076  0.3838
15499TIP3    H167912   5.908   2.607  12.022  0.2540  0.8947  0.6963
15499TIP3    H267913   5.858   2.546  11.892  0.2974 -1.6801  1.8307
15500TIP3   OH267914   2.727   2.614  13.012 -0.2880 -0.2167 -0.0314
15500TIP3    H167915   2.686   2.617  12.926  0.6732  1.2033 -0.4829
15500TIP3    H267916   2.817   2.642  12.996  0.1390 -0.7406  1.3186
15501TIP3   OH267917   1.468   2.508  16.352  0.1730 -0.8963  0.2438
15501TIP3    H167918   1.416   2.445  16.401  0.7331 -1.8294 -0.3393
15501TIP3    H267919   1.556   2.502  16.390 -0.2544  1.2475  1.7709
15502TIP3   OH267920   0.735   3.018  11.164  0.6675 -0.3473  0.0451
15502TIP3    H167921   0.707   3.058  11.245  1.2656 -0.6305  0.3989
15502TIP3    H267922   0.763   3.091  11.108  0.9044 -0.2031  0.3513
15503TIP3   OH267923   4.823   4.702   5.735 -0.2419  0.4786  0.0740
15503TIP3    H167924   4.738   4.744   5.751 -0.8644 -0.0414 -1.6862
15503TIP3    H267925   4.802   4.622   5.686  1.1581 -0.4283  0.8851
15504TIP3   OH267926   0.321   1.249  11.608 -0.4205  0.4620 -0.2815
15504TIP3    H167927   0.351   1.256  11.699 -1.1432 -0.6290  0.0545
15504TIP3    H267928   0.388   1.297  11.558  2.0622 -1.9820  0.4216
15505TIP3   OH267929   3.307   5.304   3.570 -0.2857 -0.2010 -0.0166
15505TIP3    H167930   3.279   5.395   3.559  1.5976  0.2240 -1.8853
15505TIP3    H267931   3.246   5.253   3.517  0.2463  0.3138 -1.1627
15506TIP3   OH267932   1.207   4.089  13.500  0.5719 -0.1220 -1.1367
15506TIP3    H167933   1.221   4.036  13.422  0.4312  0.3024 -1.4513
15506TIP3    H267934   1.170   4.029  13.564  3.5533 -1.2861 -0.3203
15507TIP3   OH267935   6.009   5.214  13.742 -0.0695  0.7692  0.3183
15507TIP3    H167936   6.038   5.298  13.707 -1.2952  1.3209  0.5932
15507TIP3    H267937   5.914   5.217  13.736 -0.2741  0.3984  2.5389
15508TIP3   OH267938   6.350   0.476  13.714  1.0684  0.1739  0.2929
15508TIP3    H167939   6.376   0.430  13.634  0.5098  0.4140 -0.0372
15508TIP3    H267940   6.316   0.408  13.771 -2.5372  0.4159 -1.3021
15509TIP3   OH267941   4.719   0.846  13.118  1.2039  0.0252 -0.0303
15509TIP3    H167942   4.762   0.917  13.166  0.4647  0.3602  0.1669
15509TIP3    H267943   4.702   0.779  13.185  0.4572  0.3589  0.1341
15510TIP3   OH267944   2.964   4.814   1.537 -0.2869 -0.0532  0.0009
15510TIP3    H167945   2.870   4.801   1.553 -0.0138 -1.0843  0.8853
15510TIP3    H267946   3.000   4.726   1.530  0.5714  0.3377 -0.6931
15511TIP3   OH267947   0.210   5.479  11.823 -0.4340 -0.4131  0.1178
15511TIP3    H167948   0.195   5.449  11.733  0.3366 -1.5307  0.3442
15511TIP3    H267949   0.174   5.410  11.878  0.4128 -0.4386  0.6590
15512TIP3   OH267950   0.909   6.245   4.211  0.0791  0.5369 -0.3879
15512TIP3    H167951   0.947   6.282   4.291  0.1379 -0.0695 -0.1225
15512TIP3    H267952   0.860   6.168   4.242 -0.6211  0.7966 -0.8313
15513TIP3   OH267953   5.451   1.626  16.844  0.5678 -0.2484  0.2598
15513TIP3    H167954   5.478   1.717  16.840 -0.1719 -0.0387 -0.3402
15513TIP3    H267955   5.367   1.628  16.890  0.8571 -0.7103  0.8242
15514TIP3   OH267956   3.825   2.795   1.168 -0.5244 -0.2934 -0.0478
15514TIP3    H167957   3.889   2.851   1.212  0.9902 -2.8238  1.2286
15514TIP3    H267958   3.869   2.768   1.087 -1.4489  0.7153 -0.9066
15515TIP3   OH267959   0.481   5.283  16.910 -0.3190  0.0070  0.8726
15515TIP3    H167960   0.433   5.207  16.880  0.9998 -0.0359 -1.3334
15515TIP3    H267961   0.542   5.248  16.976 -0.5138 -0.6308  0.7207
15516TIP3   OH267962   4.173   5.873  12.182 -1.0469 -0.3937 -0.8232
15516TIP3    H167963   4.224   5.880  12.101 -1.2983 -2.1513 -1.1807
15516TIP3    H267964   4.082   5.880  12.154 -1.1142  2.7742 -0.1802
15517TIP3   OH267965   3.070   0.751  14.291  0.4479  0.5734 -0.0800
15517TIP3    H167966   3.078   0.708  14.376  0.1299 -1.6178 -1.0845
15517TIP3    H267967   2.986   0.720  14.256  0.4237  1.6809 -1.0911
15518TIP3   OH267968   3.825   6.586   3.614 -0.0546  0.2063 -0.1292
15518TIP3    H167969   3.742   6.624   3.586 -0.2844  0.4617  0.8490
15518TIP3    H267970   3.848   6.524   3.545 -0.7782  0.5378 -0.6774
15519TIP3   OH267971   2.345   3.912  14.411  0.7898 -0.4613 -0.3755
15519TIP3    H167972   2.416   3.873  14.360  0.2499 -1.2663 -0.5361
15519TIP3    H267973   2.384   3.932  14.496  0.8010 -2.4908  0.1383
15520TIP3   OH267974   2.504   0.335   2.182 -0.2078 -0.2470 -0.0158
15520TIP3    H167975   2.557   0.262   2.214 -1.8296 -0.9776  1.1256
15520TIP3    H267976   2.434   0.294   2.132  1.2870  0.7858 -3.3223
15521TIP3   OH267977   2.124   4.394  16.482  0.0613  1.0633  0.7002
15521TIP3    H167978   2.149   4.442  16.403 -0.7439  0.9621  0.3722
15521TIP3    H267979   2.034   4.366  16.466 -0.0323  0.8288  1.5547
15522TIP3   OH267980   2.030   4.236  13.842  0.1089  0.1239  1.3202
15522TIP3    H167981   1.943   4.268  13.820  0.5143  0.6622  0.4536
15522TIP3    H267982   2.030   4.145  13.812 -0.0064  0.2582  0.9156
15523TIP3   OH267983   4.443   1.801   3.074 -0.1783  0.1798  0.4027
15523TIP3    H167984   4.468   1.716   3.111 -0.5386  1.2826  3.4820
15523TIP3    H267985   4.513   1.823   3.014  0.3442 -1.8985  0.1703
15524TIP3   OH267986   6.160   5.647   1.723 -0.0778  0.7777 -0.2999
15524TIP3    H167987   6.171   5.611   1.811 -0.2834  1.8260  0.1632
15524TIP3    H267988   6.081   5.603   1.690  0.1484  0.1842 -0.0800
15525TIP3   OH267989   4.038   4.787   2.864  0.0829  0.6497  0.0172
15525TIP3    H167990   4.087   4.799   2.946 -0.1244  0.8300  0.1170
15525TIP3    H267991   4.070   4.857   2.807  1.2901 -0.3527 -0.5799
15526TIP3   OH267992   4.892   3.825  13.996  0.0508 -0.2457 -0.4252
15526TIP3    H167993   4.961   3.769  14.033 -0.8104 -0.4577  0.9472
15526TIP3    H267994   4.916   3.914  14.024  1.1685  0.0545 -2.2115
15527TIP3   OH267995   6.360   6.718  13.189  0.1636 -0.0222 -0.1663
15527TIP3    H167996   6.300   6.647  13.168  1.4873 -1.2451  0.0449
15527TIP3    H267997   6.368   6.768  13.108  1.1273 -1.5889 -1.0738
15528TIP3   OH267998   3.571   1.478   5.570  0.3562 -0.4952 -0.0521
15528TIP3    H167999   3.650   1.489   5.516 -0.1334  0.3878 -0.5961
15528TIP3    H268000   3.579   1.544   5.638 -0.6469  0.6304 -1.0004
15529TIP3   OH268001   4.907   6.638   1.068 -0.4626 -1.0940  0.0695
15529TIP3    H168002   4.830   6.690   1.092  0.0835 -0.6902  0.9658
15529TIP3    H268003   4.953   6.692   1.004 -1.0568 -1.4631 -0.6962
15530TIP3   OH268004   1.588   4.454   0.718 -0.3677 -0.0519  0.4109
15530TIP3    H168005   1.546   4.539   0.730 -1.3872 -0.4418 -0.2761
15530TIP3    H268006   1.519   4.390   0.735 -0.0939 -0.7074 -0.8410
15531TIP3   OH268007   1.082   5.815   1.559 -0.0554  0.5526  0.1824
15531TIP3    H168008   0.996   5.785   1.531 -0.0909 -0.0477  0.8926
15531TIP3    H268009   1.126   5.841   1.479 -0.5020 -0.2011 -0.3219
15532TIP3   OH268010   4.774   2.167  12.602 -0.6222 -0.2710 -0.2574
15532TIP3    H168011   4.851   2.212  12.567  0.1663  0.1947  1.8892
15532TIP3    H268012   4.708   2.173  12.533  0.2199  2.1543 -0.9274
15533TIP3   OH268013   0.359   1.381   5.387  0.0417  0.0903  0.5366
15533TIP3    H168014   0.286   1.320   5.393  0.7451 -0.7534  0.7265
15533TIP3    H268015   0.325   1.455   5.336 -0.4087 -1.0985 -0.9674
15534TIP3   OH268016   6.156   3.605  12.135 -0.0562 -0.4242 -0.4385
15534TIP3    H168017   6.110   3.663  12.196  1.6618 -0.1804  0.6676
15534TIP3    H268018   6.088   3.544  12.105 -1.5986  1.2527 -0.5675
15535TIP3   OH268019   1.416   4.423  14.364  0.6352 -0.0320  0.1660
15535TIP3    H168020   1.426   4.352  14.428  1.1382 -0.1190 -0.0028
15535TIP3    H268021   1.441   4.502  14.412 -0.3586  0.0955  0.4851
15536TIP3   OH268022   6.152   4.095   1.717  0.0667 -0.1214 -0.0929
15536TIP3    H168023   6.227   4.149   1.693 -0.5327  0.6635 -0.2685
15536TIP3    H268024   6.102   4.086   1.636  0.3461 -1.2801 -0.1585
15537TIP3   OH268025   4.122   2.959   3.566  0.6831 -0.6207  0.5525
15537TIP3    H168026   4.049   2.985   3.510  1.4709  0.3176 -0.0571
15537TIP3    H268027   4.087   2.964   3.655 -0.0684 -0.4280  0.2487
15538TIP3   OH268028   2.507   3.943   0.418  0.6291  0.0188 -0.2122
15538TIP3    H168029   2.488   3.852   0.393  1.4443 -0.5470  1.0878
15538TIP3    H268030   2.430   3.992   0.389 -0.1877 -1.2218 -0.2495
15539TIP3   OH268031   5.895   0.054   0.497 -0.5619  0.2976 -0.6683
15539TIP3    H168032   5.884  -0.039   0.481 -1.5700  0.2482  0.1786
15539TIP3    H268033   5.809   0.083   0.527  0.0449  1.2635  0.2042
15540TIP3   OH268034   0.965   0.946   3.217 -0.0080 -0.1844 -0.1728
15540TIP3    H168035   0.903   1.019   3.212 -0.0767 -0.3108 -2.4820
15540TIP3    H268036   0.919   0.873   3.175  1.3959 -0.4757 -1.2929
15541TIP3   OH268037   2.915   5.613  14.918 -0.2649  0.0866  0.5367
15541TIP3    H168038   2.935   5.612  14.824 -2.3433  2.6624 -0.0191
15541TIP3    H268039   2.841   5.553  14.927  0.0897 -0.3485  0.5948
15542TIP3   OH268040   5.716   5.971   5.285 -0.1318 -0.3600  0.2360
15542TIP3    H168041   5.784   6.033   5.259 -0.5416  0.1403  0.3558
15542TIP3    H268042   5.729   5.958   5.379  1.0389 -1.7928 -0.0805
15543TIP3   OH268043   3.210   2.579   5.263  0.0389  0.4482  0.4649
15543TIP3    H168044   3.140   2.518   5.288  0.1988  0.4235  0.8671
15543TIP3    H268045   3.285   2.523   5.244 -0.4231  0.3793 -1.3252
15544TIP3   OH268046   0.509   0.743  14.940  0.3473 -0.0755 -0.7251
15544TIP3    H168047   0.426   0.733  14.893  0.3692 -1.3252 -0.5262
15544TIP3    H268048   0.484   0.759  15.031  0.2480 -2.6507 -0.2017
15545TIP3   OH268049   3.869   4.615  13.562  0.1221 -0.0353 -0.1638
15545TIP3    H168050   3.814   4.551  13.516 -0.2600  0.3581 -0.2586
15545TIP3    H268051   3.836   4.700  13.532  0.2562  0.2128  0.3961
15546TIP3   OH268052   3.889   2.683  10.843  0.4525 -0.0297 -0.6152
15546TIP3    H168053   3.896   2.777  10.858 -1.0330  0.5681 -3.1979
15546TIP3    H268054   3.973   2.658  10.805  0.5012  0.4538 -0.8265
15547TIP3   OH268055   0.159   1.457  12.125  0.0938  0.5118 -0.0043
15547TIP3    H168056   0.140   1.378  12.175 -0.9303  0.0735 -1.0458
15547TIP3    H268057   0.254   1.463  12.125  0.1468 -0.0074  1.1486
15548TIP3   OH268058   6.228   0.027  14.060 -0.5287 -0.1161  0.3895
15548TIP3    H168059   6.243  -0.052  14.009  1.7978  0.8033 -0.4796
15548TIP3    H268060   6.314   0.049  14.097 -1.0249  2.1802  0.3259
15549TIP3   OH268061   5.484   3.688  15.553 -0.3953  0.1891 -0.0624
15549TIP3    H168062   5.437   3.671  15.472  0.1024  1.1680 -0.5765
15549TIP3    H268063   5.444   3.629  15.617 -2.4190  1.0822 -0.4323
15550TIP3   OH268064   0.172   0.646   3.829  0.0127  0.1336 -0.0048
15550TIP3    H168065   0.149   0.611   3.743 -0.1080 -0.2876  0.1953
15550TIP3    H268066   0.104   0.612   3.888  1.6371 -1.9732  0.7810
15551TIP3   OH268067   4.606   1.320   1.278 -0.1038 -0.0443  0.0285
15551TIP3    H168068   4.698   1.315   1.252 -0.0684  1.3160 -0.1923
15551TIP3    H268069   4.574   1.231   1.270  0.6869 -0.2134 -1.7839
15552TIP3   OH268070   3.193   4.360   3.879  0.1658  0.8592 -0.0363
15552TIP3    H168071   3.280   4.387   3.906  0.3315  0.1135  0.2108
15552TIP3    H268072   3.197   4.356   3.784  0.5558  0.3491 -0.0038
15553TIP3   OH268073   5.025   5.913  14.201 -0.2443  0.2392  0.2259
15553TIP3    H168074   5.084   5.840  14.180  0.4414  0.5559  0.9937
15553TIP3    H268075   4.941   5.872  14.218  0.2469 -0.4372  1.1009
15554TIP3   OH268076   3.714   5.067   1.987  0.6604  0.5795 -0.3429
15554TIP3    H168077   3.669   5.078   1.904 -2.5840  0.7473  1.2854
15554TIP3    H268078   3.724   4.972   1.997 -1.3361  0.3855  0.1735
15555TIP3   OH268079   4.482   0.832  12.649 -0.1900  0.0895 -0.2317
15555TIP3    H168080   4.507   0.844  12.741 -1.7038 -0.0900  0.2317
15555TIP3    H268081   4.472   0.738  12.639  0.8964  0.0229 -0.8626
15556TIP3   OH268082   2.839   5.836  13.351  0.0477  0.2439  0.1477
15556TIP3    H168083   2.823   5.806  13.261  0.7466 -0.0090  0.1015
15556TIP3    H268084   2.782   5.912  13.361 -0.4630 -0.0673 -0.3192
15557TIP3   OH268085   6.131   0.907   5.516  0.3222 -0.5543 -0.1759
15557TIP3    H168086   6.223   0.932   5.527  0.5510 -1.3831 -0.1178
15557TIP3    H268087   6.128   0.863   5.431  0.1538 -1.2592  0.1835
15558TIP3   OH268088   0.447   4.330  15.692 -0.4215 -0.3519  0.0381
15558TIP3    H168089   0.518   4.391  15.674  0.1760 -1.1549 -0.4142
15558TIP3    H268090   0.397   4.327  15.610  0.1653 -1.2470 -0.3012
15559TIP3   OH268091   6.618   1.208  16.964  0.2615 -0.4018  0.3858
15559TIP3    H168092   6.671   1.254  16.898 -0.7481 -1.1678 -0.9860
15559TIP3    H268093   6.679   1.194  17.036  1.2559  0.9360 -0.1351
15560TIP3   OH268094   5.999   3.950   2.288 -0.3470  0.1733 -0.7135
15560TIP3    H168095   5.999   4.039   2.253 -1.9667  0.6866  0.4700
15560TIP3    H268096   5.922   3.909   2.249 -0.0788 -0.4392 -0.6080
15561TIP3   OH268097   3.033   2.759   1.571 -0.4503  0.4693  0.2366
15561TIP3    H168098   3.074   2.766   1.657  0.2162  1.2432 -0.1320
15561TIP3    H268099   3.106   2.750   1.510 -0.8633  1.0432 -0.3554
15562TIP3   OH268100   4.972   3.668  15.645  0.3800  0.0640  0.2771
15562TIP3    H168101   4.880   3.677  15.672  0.1853 -3.2274  1.2238
15562TIP3    H268102   4.967   3.622  15.561  1.1242 -1.1673  0.8767
15563TIP3   OH268103   0.605   1.194   0.525  0.4038  0.0221 -0.1070
15563TIP3    H168104   0.592   1.206   0.619 -0.9591 -1.6593 -0.0186
15563TIP3    H268105   0.563   1.270   0.485  1.3810  0.9753  0.6427
15564TIP3   OH268106   0.416   1.887   5.897  0.4753 -0.9916 -0.2816
15564TIP3    H168107   0.423   1.885   5.992 -0.1296  0.5177 -0.1688
15564TIP3    H268108   0.505   1.903   5.865  0.2515  1.7751  0.2415
15565TIP3   OH268109   1.588   5.583   4.836  0.0220 -0.1966  0.0285
15565TIP3    H168110   1.515   5.527   4.863  1.6938 -0.8923  3.6766
15565TIP3    H268111   1.568   5.668   4.874 -0.1052  0.3850 -1.2758
15566TIP3   OH268112   4.513   2.289  13.752 -0.5769  0.3648  0.2208
15566TIP3    H168113   4.536   2.229  13.824  0.4288  0.4587 -0.0191
15566TIP3    H268114   4.510   2.375  13.793 -1.0049  0.2974  0.3464
15567TIP3   OH268115   6.086   1.022  15.275  0.6994 -0.9367 -0.1398
15567TIP3    H168116   6.150   1.081  15.235 -0.0734 -0.1868 -0.3032
15567TIP3    H268117   6.095   1.036  15.369  1.8522 -1.9936 -0.0767
15568TIP3   OH268118   6.089   0.765  13.364  0.3140 -0.1200 -0.1750
15568TIP3    H168119   6.025   0.704  13.401  0.3599  1.1543  2.2530
15568TIP3    H268120   6.163   0.762  13.425  2.1063 -0.6779 -2.2799
15569TIP3   OH268121   3.835   3.074   4.943 -0.3945 -0.0494 -0.1030
15569TIP3    H168122   3.864   3.146   4.886 -0.3577 -0.9041 -1.2019
15569TIP3    H268123   3.841   2.996   4.888 -1.2335 -0.7857  0.8078
15570TIP3   OH268124   3.952   3.346  11.518  0.5433  0.1613 -0.4294
15570TIP3    H168125   3.934   3.260  11.480 -1.1503  0.4585 -0.3451
15570TIP3    H268126   3.885   3.404  11.481  0.6012  1.0791  0.8316
15571TIP3   OH268127   2.608   4.240  11.330 -0.1503  0.2321  0.4212
15571TIP3    H168128   2.531   4.260  11.382  0.2162  0.8196  0.7540
15571TIP3    H268129   2.592   4.283  11.246  0.1396  1.0086  0.7512
15572TIP3   OH268130   4.957   3.688  16.284  0.7266  0.2129  0.0864
15572TIP3    H168131   5.025   3.623  16.302  0.4945  0.2002  0.9868
15572TIP3    H268132   4.993   3.770  16.316 -0.0882  0.0199  1.6243
15573TIP3   OH268133   2.071   0.847  16.450  0.7253  0.1815 -0.2046
15573TIP3    H168134   2.118   0.778  16.404 -0.5399 -1.9919  1.5845
15573TIP3    H268135   2.105   0.844  16.539 -1.0804  0.1354  0.5305
15574TIP3   OH268136   5.916   4.821   6.120 -0.5185 -0.1007 -0.5260
15574TIP3    H168137   5.979   4.811   6.049  0.0346 -2.6364  0.2146
15574TIP3    H268138   5.833   4.839   6.076 -0.2742 -2.0051 -1.8992
15575TIP3   OH268139   1.403   0.926  14.379 -0.5452  0.2565 -0.4017
15575TIP3    H168140   1.380   0.844  14.424 -1.0398  0.2239 -0.7066
15575TIP3    H268141   1.497   0.936  14.395 -0.2435 -0.9378 -1.2474
15576TIP3   OH268142   4.074   1.739  15.641 -0.5584 -0.4550  0.5960
15576TIP3    H168143   4.018   1.815  15.655  0.6093  0.5116  0.1517
15576TIP3    H268144   4.132   1.737  15.717  1.8554  1.3207 -1.0493
15577TIP3   OH268145   0.014   1.156  10.467 -0.4135 -0.0779 -0.5685
15577TIP3    H168146  -0.034   1.158  10.384 -0.1823  0.5690 -0.6887
15577TIP3    H268147   0.015   1.064  10.492  0.9483 -0.5212 -2.1163
15578TIP3   OH268148   5.629   0.744  11.885 -0.0890 -0.0332  0.0941
15578TIP3    H168149   5.654   0.808  11.951 -2.6989  1.9002 -0.5995
15578TIP3    H268150   5.643   0.789  11.801 -0.7544 -0.8409 -0.4650
15579TIP3   OH268151   3.285   0.052  11.957  0.6034 -0.2835 -0.1734
15579TIP3    H168152   3.212   0.015  12.007  1.6473 -0.8367  0.9669
15579TIP3    H268153   3.312  -0.019  11.899  0.6529 -0.2833 -0.1502
15580TIP3   OH268154   4.754   3.496  16.273 -0.1190 -0.1507  0.4629
15580TIP3    H168155   4.833   3.549  16.282 -0.3224  0.0237  1.4107
15580TIP3    H268156   4.732   3.499  16.180 -0.0261  1.2974  0.4664
15581TIP3   OH268157   6.346   1.628  17.177 -0.3150  0.1155 -0.6800
15581TIP3    H168158   6.269   1.637  17.121 -1.1407  0.3234  0.4468
15581TIP3    H268159   6.416   1.600  17.118 -1.0603  0.6695 -1.8693
15582TIP3   OH268160   0.051   3.981  15.799  0.5554  0.0946 -0.2380
15582TIP3    H168161   0.091   4.033  15.868  1.1971  1.1598 -1.3757
15582TIP3    H268162  -0.026   4.031  15.771 -1.4172 -1.7134  1.6127
15583TIP3   OH268163   1.597   2.126   3.936 -0.2256  0.0446  0.0872
15583TIP3    H168164   1.513   2.102   3.976 -0.3944  0.3625 -0.0728
15583TIP3    H268165   1.657   2.134   4.010 -0.8459  1.9393  0.4491
15584TIP3   OH268166   4.896   1.075  13.980  0.1267  0.4102 -0.0931
15584TIP3    H168167   4.932   1.037  14.060  1.6031  0.0389 -0.8969
15584TIP3    H268168   4.823   1.018  13.958  0.4499 -0.1864  0.3437
15585TIP3   OH268169   2.098   1.555   3.217 -0.2501 -0.5352 -0.4808
15585TIP3    H168170   2.142   1.587   3.296  1.6316 -1.8211 -0.9446
15585TIP3    H268171   2.141   1.603   3.145 -0.8782 -0.5035 -0.8459
15586TIP3   OH268172   4.015   2.714   5.433 -0.0022  0.0805 -0.2056
15586TIP3    H168173   4.017   2.792   5.379 -0.4571 -0.1506 -0.5666
15586TIP3    H268174   4.107   2.692   5.448  0.1541  1.3184  0.8512
15587TIP3   OH268175   0.736   0.843  16.309  0.5274  0.0330  0.0493
15587TIP3    H168176   0.753   0.792  16.229  2.0863 -1.0302  0.9994
15587TIP3    H268177   0.818   0.890  16.325 -0.0802  0.9351  0.5423
15588TIP3   OH268178   0.449   6.506  17.141  0.0000 -0.5850 -0.2943
15588TIP3    H168179   0.431   6.416  17.170  2.3130 -0.7146  0.9508
15588TIP3    H268180   0.376   6.557  17.176 -0.8303 -1.8112 -0.1501
15589TIP3   OH268181   5.698   6.327  14.868 -0.0082  0.2444 -0.0398
15589TIP3    H168182   5.659   6.240  14.879  0.7381  0.1776  2.6510
15589TIP3    H268183   5.626   6.381  14.835 -0.6252 -1.2265 -1.2809
15590TIP3   OH268184   6.469   5.888   3.384 -0.3470 -0.6244 -0.3566
15590TIP3    H168185   6.524   5.940   3.444 -1.0821 -1.7483  1.3766
15590TIP3    H268186   6.478   5.932   3.300  1.0645  0.8034  0.4696
15591TIP3   OH268187   0.229   4.315   2.482 -0.5899  0.3584 -0.4317
15591TIP3    H168188   0.273   4.360   2.555  1.5875 -0.5982 -1.0600
15591TIP3    H268189   0.208   4.229   2.516 -0.7145  0.3380 -0.5589
15592TIP3   OH268190   1.252   0.452   2.698 -0.2147  0.3585 -0.2116
15592TIP3    H168191   1.203   0.406   2.630 -0.9577  1.5442 -0.5220
15592TIP3    H268192   1.189   0.465   2.768  0.1638  0.3298  0.1358
15593TIP3   OH268193   2.482   1.582  15.737 -0.8455 -0.0988 -0.2307
15593TIP3    H168194   2.458   1.533  15.658 -1.3551 -0.6786  0.2743
15593TIP3    H268195   2.443   1.668  15.724  0.2696  0.2899 -1.2399
15594TIP3   OH268196   2.527   4.926  17.120  0.4745 -0.4637  0.1158
15594TIP3    H168197   2.494   4.872  17.048  1.5932  0.4095 -1.1076
15594TIP3    H268198   2.458   4.991  17.135 -0.0211 -1.0133  0.2493
15595TIP3   OH268199   1.550   5.990  16.959  0.3337 -0.0698 -0.1858
15595TIP3    H168200   1.627   5.975  16.904 -0.9074  0.7858 -2.2607
15595TIP3    H268201   1.489   5.920  16.934  1.0534 -2.0332  2.9086
15596TIP3   OH268202   0.408   3.707  13.377  0.6652  0.3666  0.3124
15596TIP3    H168203   0.463   3.781  13.402 -0.5146  1.3114  0.1721
15596TIP3    H268204   0.405   3.709  13.281  1.7908 -0.7527  0.2200
15597TIP3   OH268205   4.340   1.223   3.707 -0.2340  0.4151 -0.6848
15597TIP3    H168206   4.336   1.150   3.768 -0.0449  1.4715  0.6313
15597TIP3    H268207   4.389   1.189   3.632  1.1380 -0.3807  0.5189
15598TIP3   OH268208   0.942   1.736  16.141 -0.5760  1.1265  0.2586
15598TIP3    H168209   1.002   1.685  16.196 -1.5747 -0.1328  0.2382
15598TIP3    H268210   0.972   1.719  16.052 -1.2160  0.0881  0.2155
15599TIP3   OH268211   0.813   1.158   3.519  0.1096 -0.7642 -0.0492
15599TIP3    H168212   0.737   1.204   3.482  0.4925 -0.9824 -1.1637
15599TIP3    H268213   0.853   1.115   3.443  1.5243 -0.4024  0.4741
15600TIP3   OH268214   2.289   5.508   5.733 -0.5459  0.3476 -0.3143
15600TIP3    H168215   2.364   5.543   5.686 -0.8620 -1.3337 -2.2139
15600TIP3    H268216   2.243   5.585   5.766  2.2733  1.4054  1.5099
15601TIP3   OH268217   5.857   1.166  14.000  0.8443  0.2485 -0.3797
15601TIP3    H168218   5.775   1.164  13.950  0.4132  0.4853  0.3067
15601TIP3    H268219   5.913   1.228  13.953  0.6144  0.1217 -0.8244
15602TIP3   OH268220   0.112   0.918   4.756  0.0389 -0.2196  0.0910
15602TIP3    H168221   0.078   0.830   4.774  0.6077 -0.3772  0.4228
15602TIP3    H268222   0.112   0.923   4.660 -2.4474  0.4095  0.0487
15603TIP3   OH268223   0.604   3.372   0.982 -0.0090 -0.0733 -0.0258
15603TIP3    H168224   0.662   3.426   1.036  1.6730 -1.5384 -0.2515
15603TIP3    H268225   0.589   3.294   1.034 -0.3509 -0.4690 -0.7006
15604TIP3   OH268226   1.469   5.545  12.397 -0.0436  0.0099 -0.4812
15604TIP3    H168227   1.501   5.606  12.464 -0.4905  0.2129 -0.4465
15604TIP3    H268228   1.411   5.599  12.342 -0.3416 -0.3509 -0.5259
15605TIP3   OH268229   0.920   1.251  15.431 -0.7031  0.0042 -0.1680
15605TIP3    H168230   0.835   1.207  15.430 -0.3123 -0.7698 -1.3319
15605TIP3    H268231   0.918   1.308  15.354  0.2183 -0.8039 -0.8121
15606TIP3   OH268232   4.635   2.894  15.574  0.5182 -0.1357 -0.2840
15606TIP3    H168233   4.567   2.931  15.630  0.4852  0.9557 -1.0009
15606TIP3    H268234   4.595   2.815  15.537 -1.2996  1.6474 -2.4611
15607TIP3   OH268235   3.813   3.537   0.391  0.0176 -0.4892 -0.5243
15607TIP3    H168236   3.811   3.494   0.477  0.0755 -1.6976 -1.1098
15607TIP3    H268237   3.764   3.618   0.404  3.0297  1.2164  1.5940
15608TIP3   OH268238   0.862   6.299  13.909  0.3059  0.6049  0.0955
15608TIP3    H168239   0.899   6.387  13.909 -0.1388  0.7987  0.7828
15608TIP3    H268240   0.794   6.302  13.842 -0.0078  0.9180  0.4246
15609TIP3   OH268241   5.809   4.239  17.138  0.0846  0.1137 -0.9094
15609TIP3    H168242   5.886   4.277  17.180 -1.1803  1.6777  0.1466
15609TIP3    H268243   5.835   4.223  17.048  1.5839  0.7402 -0.6133
15610TIP3   OH268244   3.083   0.469   2.469 -0.1340 -0.4236  0.2101
15610TIP3    H168245   3.123   0.384   2.485  1.0579  0.4227  2.0156
15610TIP3    H268246   2.997   0.464   2.512 -0.4659 -0.9997 -0.4978
15611TIP3   OH268247   4.041   1.120   3.647  0.4655  0.3371  0.0775
15611TIP3    H168248   3.972   1.186   3.639  0.9996  0.7492 -1.3895
15611TIP3    H268249   3.994   1.040   3.669 -0.3018  0.9474  0.7348
15612TIP3   OH268250   6.029   0.163  12.881 -0.3060 -0.0274  0.3138
15612TIP3    H168251   6.061   0.075  12.866 -0.6859 -0.0987 -0.1011
15612TIP3    H268252   6.021   0.201  12.793 -2.2785 -0.3477  0.3222
15613TIP3   OH268253   0.394   2.891  15.218  0.1951  0.0811 -0.5067
15613TIP3    H168254   0.435   2.892  15.304  1.4865  1.0434 -1.1093
15613TIP3    H268255   0.406   2.802  15.186  0.0216 -0.1831  0.1379
15614TIP3   OH268256   1.043   5.587  11.443  0.0681 -0.5544  0.0898
15614TIP3    H168257   1.138   5.596  11.445  0.0279  0.3908 -1.3402
15614TIP3    H268258   1.015   5.610  11.532  1.1866 -1.3027  0.6646
15615TIP3   OH268259   4.014   3.232  14.658  0.0970 -0.1783  0.2219
15615TIP3    H168260   4.091   3.218  14.713  0.2249  1.6803  0.6078
15615TIP3    H268261   4.021   3.324  14.631 -1.3349 -0.3251 -0.7626
15616TIP3   OH268262   3.264   0.718  13.780 -0.2913 -0.6300  0.7987
15616TIP3    H168263   3.281   0.806  13.747 -1.7449 -0.0843  1.3910
15616TIP3    H268264   3.331   0.663  13.740 -1.4741  0.0911 -2.4791
15617TIP3   OH268265   2.885   2.267  16.142 -0.6874  0.0133 -0.1448
15617TIP3    H168266   2.887   2.361  16.157 -0.0954 -0.1182  0.6692
15617TIP3    H268267   2.916   2.256  16.052  2.0178  0.4442  0.6502
15618TIP3   OH268268   2.315   1.984   2.289 -0.0405  0.3120  0.1642
15618TIP3    H168269   2.235   2.036   2.278 -0.5393 -0.5908 -0.5733
15618TIP3    H268270   2.368   2.005   2.212 -0.2570 -0.2833 -0.1515
15619TIP3   OH268271   3.491   6.740  13.824  0.2763 -0.0717  0.6105
15619TIP3    H168272   3.421   6.755  13.760  0.4449 -0.3065  0.3722
15619TIP3    H268273   3.444   6.709  13.902 -0.0959  1.7100  1.1508
15620TIP3   OH268274   5.957   4.958   1.663 -0.2475  0.3288  0.0629
15620TIP3    H168275   5.883   4.984   1.609 -0.4647  1.8477  1.0319
15620TIP3    H268276   5.948   5.009   1.743  0.9475 -0.6724  0.8921
15621TIP3   OH268277   0.840   5.685   2.602 -0.0395 -0.6921 -0.3315
15621TIP3    H168278   0.773   5.732   2.552 -0.0580 -0.7001 -0.3141
15621TIP3    H268279   0.885   5.632   2.537 -0.3333 -1.0153 -0.2720
15622TIP3   OH268280   3.239   0.435  14.134  0.1136  0.2911  0.4223
15622TIP3    H168281   3.254   0.405  14.224  0.3738  0.4612  0.4375
15622TIP3    H268282   3.227   0.529  14.142  1.5115  0.5245  0.1367
15623TIP3   OH268283   6.342   4.702   0.503 -0.5848  0.0401 -0.0784
15623TIP3    H168284   6.340   4.704   0.599 -1.1844 -0.7006 -0.0753
15623TIP3    H268285   6.427   4.663   0.482 -0.8786 -0.7285  0.1593
15624TIP3   OH268286   0.649   0.821   4.349  0.3516 -0.3602 -0.5559
15624TIP3    H168287   0.634   0.805   4.442  1.9251  0.9128 -0.0362
15624TIP3    H268288   0.607   0.905   4.333 -1.3253 -1.3239 -1.4242
15625TIP3   OH268289   5.496   0.133   4.877  0.3722  0.0418  0.4070
15625TIP3    H168290   5.434   0.062   4.893  0.5701  0.0643  1.3341
15625TIP3    H268291   5.500   0.141   4.781  1.9612 -2.6141  0.1657
15626TIP3   OH268292   5.513   2.303   0.909  0.3928 -0.0963 -0.0146
15626TIP3    H168293   5.562   2.285   0.989  0.6034 -0.7344 -0.2758
15626TIP3    H268294   5.433   2.347   0.938  0.4068 -0.4414  0.5543
15627TIP3   OH268295   3.729   5.935   2.439 -0.5921 -0.1745 -0.7982
15627TIP3    H168296   3.821   5.919   2.421 -0.7609  0.0720 -2.0171
15627TIP3    H268297   3.692   5.959   2.354 -1.7509 -0.1339 -0.3076
15628TIP3   OH268298   1.950   2.756   6.273 -0.6195  0.1852 -0.2492
15628TIP3    H168299   1.989   2.725   6.354 -1.0488 -1.0257 -0.4933
15628TIP3    H268300   1.855   2.743   6.285 -0.7328  0.5557 -0.7107
15629TIP3   OH268301   5.648   0.102  12.139 -0.8077 -0.1076 -0.3628
15629TIP3    H168302   5.699   0.162  12.085  0.3899 -0.2224  0.6101
15629TIP3    H268303   5.655   0.018  12.094 -0.6658  0.0162 -0.5714
15630TIP3   OH268304   5.069   0.283  16.791 -0.3975 -0.6521 -0.2549
15630TIP3    H168305   5.039   0.224  16.722 -1.1335 -0.4229 -0.1426
15630TIP3    H268306   5.061   0.231  16.872  1.8653 -1.4308 -0.4678
15631TIP3   OH268307   0.540   6.022   0.636 -0.4776  0.1235 -0.1374
15631TIP3    H168308   0.558   6.082   0.708  0.1414  1.2765 -1.2050
15631TIP3    H268309   0.570   5.936   0.667  0.0873  0.6672  0.8403
15632TIP3   OH268310   0.771   1.954  12.770  0.0059  0.0659  0.0154
15632TIP3    H168311   0.862   1.984  12.762  0.6105 -1.4038  0.9298
15632TIP3    H268312   0.734   1.967  12.683  1.4269 -0.3641 -0.6859
15633TIP3   OH268313   0.658   4.056  12.620  0.7189 -0.1311 -0.0968
15633TIP3    H168314   0.650   4.110  12.541  1.4250  1.0347  0.6142
15633TIP3    H268315   0.567   4.033  12.641  0.4685  0.1020 -0.8746
15634TIP3   OH268316   3.375   3.587  11.270 -0.3160  0.0904  0.0808
15634TIP3    H168317   3.287   3.590  11.307 -0.6082 -0.0705 -0.5960
15634TIP3    H268318   3.362   3.589  11.175  0.3719 -0.7587 -0.0460
15635TIP3   OH268319   2.766   1.443   1.314  0.4951 -0.3338  0.4268
15635TIP3    H168320   2.677   1.467   1.342 -1.2075 -3.8492 -1.2646
15635TIP3    H268321   2.796   1.381   1.382  0.6600 -0.9308 -0.1809
15636TIP3   OH268322   6.247   1.998   5.576  0.1096  0.3905  0.2130
15636TIP3    H168323   6.341   2.007   5.589 -0.1554  0.8949  1.9856
15636TIP3    H268324   6.228   2.055   5.501  0.9136  2.0031  1.1880
15637TIP3   OH268325   4.692   4.939   3.421 -0.0445  0.7406  0.1176
15637TIP3    H168326   4.779   4.923   3.457  0.0403  1.6096  0.3268
15637TIP3    H268327   4.707   5.005   3.353 -0.2560 -0.5673 -1.2553
15638TIP3   OH268328   3.436   0.062  15.819 -0.2919  0.2957  0.4083
15638TIP3    H168329   3.407  -0.004  15.755 -0.4084 -1.0806  1.8193
15638TIP3    H268330   3.393   0.142  15.791 -1.7001 -0.6533 -0.2738
15639TIP3   OH268331   0.868   4.844   5.571 -0.2129  0.4535 -0.4841
15639TIP3    H168332   0.888   4.761   5.615  0.5673  2.2244  2.7928
15639TIP3    H268333   0.864   4.821   5.478  0.9509 -3.0495  0.1755
15640TIP3   OH268334   3.451   1.162  13.162 -0.0512  0.4548  0.0234
15640TIP3    H168335   3.521   1.161  13.096  1.9905 -0.8031  2.0472
15640TIP3    H268336   3.426   1.254  13.170  2.9133  1.3111  0.6683
15641TIP3   OH268337   1.911   3.020  13.085  0.2020 -0.3002  0.4982
15641TIP3    H168338   1.958   3.035  13.003  1.5387 -0.9453  1.0998
15641TIP3    H268339   1.968   3.058  13.152  0.0275 -1.3630  1.2916
15642TIP3   OH268340   2.838   1.403  13.600 -0.4273 -0.5268 -0.0971
15642TIP3    H168341   2.883   1.324  13.630  0.7562 -0.3067 -1.2068
15642TIP3    H268342   2.908   1.468  13.592 -1.2610  0.3973  0.0000
15643TIP3   OH268343   0.732   5.161  14.998 -0.3302  0.2488 -0.5610
15643TIP3    H168344   0.685   5.221  15.056 -0.2358  0.4104 -0.6511
15643TIP3    H268345   0.800   5.215  14.956  0.3035 -0.1081 -0.0092
15644TIP3   OH268346   0.723   6.311   2.659 -0.8974 -0.6021 -0.1201
15644TIP3    H168347   0.734   6.216   2.654 -1.6110 -0.7883  1.2802
15644TIP3    H268348   0.667   6.325   2.735  1.2561  1.0946  1.2922
15645TIP3   OH268349   5.417   5.740   1.190 -0.3289  0.1835 -0.4574
15645TIP3    H168350   5.397   5.833   1.193 -0.9121  0.0512  0.9077
15645TIP3    H268351   5.506   5.735   1.155  0.0255  1.3172  0.2207
15646TIP3   OH268352   5.236   3.457  17.148 -0.1876  0.4055 -0.2859
15646TIP3    H168353   5.315   3.423  17.105 -0.0742 -2.5384  1.9327
15646TIP3    H268354   5.238   3.418  17.235 -3.4967  1.2157  0.2746
15647TIP3   OH268355   0.126   6.452  15.977  0.1496 -0.7087 -0.4209
15647TIP3    H168356   0.084   6.536  15.994  3.1549  1.1849 -1.6252
15647TIP3    H268357   0.084   6.420  15.897  0.9002  1.1441 -1.6309
15648TIP3   OH268358   2.044   5.421   3.852 -0.1131  0.1434 -0.0628
15648TIP3    H168359   1.949   5.432   3.857  0.0186  0.6941  2.8107
15648TIP3    H268360   2.057   5.333   3.819 -1.6983 -0.7376  1.5194
15649TIP3   OH268361   0.793   4.604  16.078  0.1661 -0.0022 -0.2583
15649TIP3    H168362   0.845   4.528  16.050  0.9053 -0.0274  1.1151
15649TIP3    H268363   0.703   4.581  16.054  0.5632 -0.7112 -1.1133
15650TIP3   OH268364   3.775   1.913   1.250 -0.3760  0.2479 -0.5493
15650TIP3    H168365   3.869   1.929   1.250 -0.2705  0.3121  2.8512
15650TIP3    H268366   3.766   1.818   1.242  0.0246  0.1727 -0.1478
15651TIP3   OH268367   4.032   0.308   2.082  0.0385 -0.0816 -0.2483
15651TIP3    H168368   4.029   0.220   2.044  1.5087 -0.5218  0.5975
15651TIP3    H268369   4.102   0.352   2.034 -0.8367  0.7320 -0.8225
15652TIP3   OH268370   2.896   4.865   1.968  0.5203  0.1354 -0.3362
15652TIP3    H168371   2.930   4.883   2.056  0.7081 -0.2461 -0.3324
15652TIP3    H268372   2.813   4.820   1.983  1.6726 -2.0995 -0.3438
15653TIP3   OH268373   4.683   0.307  15.553  0.4461  0.1162 -0.5836
15653TIP3    H168374   4.694   0.402  15.561  3.5146 -0.2215  0.5240
15653TIP3    H268375   4.757   0.270  15.601 -1.3449 -2.9068  0.0935
15654TIP3   OH268376   1.268   2.048   2.738 -0.2138  0.1372 -0.1894
15654TIP3    H168377   1.271   2.130   2.690  0.5902  0.0757 -0.2643
15654TIP3    H268378   1.317   1.986   2.684 -0.9528 -0.4438 -0.2153
15655TIP3   OH268379   3.331   1.071   4.537  0.1879  0.2902 -0.1088
15655TIP3    H168380   3.262   1.065   4.602  0.6602 -1.0462  0.2945
15655TIP3    H268381   3.402   1.117   4.582 -0.4491  1.7902 -0.5677
15656TIP3   OH268382   2.905   3.522  15.426 -0.1447  0.4096 -0.2082
15656TIP3    H168383   2.882   3.554  15.338 -0.3523  0.8816  0.0108
15656TIP3    H268384   2.931   3.431  15.412  1.1835  0.8697 -0.9671
15657TIP3   OH268385   4.586   5.939   5.645 -0.3060  0.2731  0.0302
15657TIP3    H168386   4.622   5.906   5.562 -0.2469  0.1440  0.1069
15657TIP3    H268387   4.648   6.007   5.672 -0.5554  0.6172 -0.2495
15658TIP3   OH268388   1.159   2.687  10.959 -0.3393 -0.2378 -0.7854
15658TIP3    H168389   1.088   2.647  11.010  1.8644 -0.4771  2.3241
15658TIP3    H268390   1.197   2.614  10.910 -1.8199 -0.2035 -2.0633
15659TIP3   OH268391   2.512   3.066  11.500 -0.3658  0.3814  0.2417
15659TIP3    H168392   2.461   2.991  11.532  0.4366 -1.1490 -1.8685
15659TIP3    H268393   2.564   3.093  11.576 -0.0423 -1.7678  0.8628
15660TIP3   OH268394   6.146   0.194   0.480  0.6295  0.2544  0.0237
15660TIP3    H168395   6.064   0.146   0.471 -0.3954  2.1269 -1.3111
15660TIP3    H268396   6.190   0.183   0.396  1.4963 -0.2628  0.5342
15661TIP3   OH268397   5.411   6.066   0.950 -0.1259 -0.0553  0.3920
15661TIP3    H168398   5.394   6.153   0.988  2.5901  0.4212  0.7238
15661TIP3    H268399   5.421   6.009   1.025  1.6967  0.1449  0.3400
15662TIP3   OH268400   2.860   1.436   2.723 -0.4956 -0.3594 -0.2760
15662TIP3    H168401   2.847   1.369   2.655 -0.5392 -0.6657  0.0303
15662TIP3    H268402   2.827   1.517   2.684 -0.6811 -0.5685 -0.5558
15663TIP3   OH268403   0.363   4.393  14.296 -0.0068  0.8358 -0.1090
15663TIP3    H168404   0.334   4.483  14.314  0.8235  0.7455  2.0082
15663TIP3    H268405   0.355   4.349  14.380  0.7428 -0.7642 -0.8442
15664TIP3   OH268406   6.105   3.223   2.232  0.5846  0.4163  0.1818
15664TIP3    H168407   6.134   3.309   2.202  1.4897  0.2955  0.6686
15664TIP3    H268408   6.186   3.172   2.240  0.2168 -0.0112  1.3526
15665TIP3   OH268409   5.176   3.452  12.663 -0.2732 -0.1133 -0.1336
15665TIP3    H168410   5.166   3.377  12.604 -2.7967  1.0044 -1.2413
15665TIP3    H268411   5.197   3.526  12.605  0.2692  0.4425  0.7380
15666TIP3   OH268412   1.857   5.554  16.755  0.9479  0.5288  0.7051
15666TIP3    H168413   1.835   5.633  16.706 -1.2660 -0.1805  0.4511
15666TIP3    H268414   1.941   5.574  16.796  0.8066  2.7312  0.0547
15667TIP3   OH268415   0.516   0.004  17.041  0.0297 -0.1232 -0.4132
15667TIP3    H168416   0.496  -0.027  16.952 -0.1954  0.7742 -0.6844
15667TIP3    H268417   0.500  -0.072  17.096 -1.7814 -0.1598 -0.9172
15668TIP3   OH268418   3.298   3.617   3.243  0.8812 -0.1940  0.4529
15668TIP3    H168419   3.307   3.694   3.188  2.6213  0.0071  0.9573
15668TIP3    H268420   3.388   3.587   3.258  0.3045 -1.7112  1.1154
15669TIP3   OH268421   6.329   1.048  13.524  0.4190 -0.3378  0.3603
15669TIP3    H168422   6.347   1.141  13.543  0.7671  0.4566 -3.0971
15669TIP3    H268423   6.358   1.002  13.602  1.0115  2.3987  1.9101
15670TIP3   OH268424   2.477   4.746   1.795 -0.4429 -0.4757  0.4467
15670TIP3    H168425   2.447   4.822   1.844 -2.5784 -1.6477  1.0910
15670TIP3    H268426   2.424   4.673   1.829 -0.3301 -1.7694 -1.9611
15671TIP3   OH268427   0.679   6.680  12.926 -0.5528  0.5868 -0.3601
15671TIP3    H168428   0.678   6.598  12.877  2.1440  1.2317 -1.6944
15671TIP3    H268429   0.634   6.743  12.869 -2.9862  0.0816  0.8353
15672TIP3   OH268430   3.540   1.058  13.577  0.2738 -0.0575 -0.2668
15672TIP3    H168431   3.580   1.020  13.499  1.5239 -0.0186  0.3293
15672TIP3    H268432   3.522   1.148  13.553  2.5794  0.5616  0.1061
15673TIP3   OH268433   0.363   5.640  10.424 -0.0300 -0.2336 -0.1895
15673TIP3    H168434   0.397   5.730  10.423 -0.0124 -0.2417 -0.5851
15673TIP3    H268435   0.402   5.601  10.503 -0.8250  0.3982  0.5359
15674TIP3   OH268436   1.828   4.581   6.022  0.4784  0.1824  0.0148
15674TIP3    H168437   1.768   4.518   5.982  1.0450 -1.2233  1.2993
15674TIP3    H268438   1.789   4.600   6.107  1.6154 -0.4603  0.7074
15675TIP3   OH268439   1.690   0.587   5.584  0.1142  0.3730 -0.2256
15675TIP3    H168440   1.635   0.656   5.622  1.4474  1.5143 -0.2932
15675TIP3    H268441   1.640   0.507   5.598 -0.9008  1.1748  1.0235
15676TIP3   OH268442   4.836   2.063   1.012 -0.3734  0.2772 -0.6861
15676TIP3    H168443   4.799   1.975   1.020 -1.5001  0.8577  1.0521
15676TIP3    H268444   4.761   2.122   1.021  0.2563  1.4376 -2.5149
15677TIP3   OH268445   3.452   2.572  12.386 -0.0113 -0.1879  0.3504
15677TIP3    H168446   3.372   2.529  12.416 -0.3468  0.2081  0.0456
15677TIP3    H268447   3.450   2.658  12.429 -0.5889  0.4550 -0.9211
15678TIP3   OH268448   4.570   1.580   0.595 -0.0191 -0.2908  0.4799
15678TIP3    H168449   4.591   1.495   0.634 -1.0209 -0.2865  1.0363
15678TIP3    H268450   4.479   1.573   0.569  0.1683  0.2845 -0.3885
15679TIP3   OH268451   3.047   3.902  11.955 -0.1386  0.2995  0.1719
15679TIP3    H168452   3.007   3.900  11.868 -0.6193  0.8826  0.3773
15679TIP3    H268453   3.082   3.814  11.967  0.7519  0.4739 -0.9921
15680TIP3   OH268454   0.370   4.759   5.933 -0.4047 -0.0279 -0.1138
15680TIP3    H168455   0.326   4.675   5.947  0.0884 -0.3458 -0.4579
15680TIP3    H268456   0.451   4.736   5.888 -0.2305  0.6276 -0.1343
15681TIP3   OH268457   6.012   6.113  17.182  0.7783 -0.4622  0.0018
15681TIP3    H168458   6.053   6.107  17.096  0.1425  1.9597 -0.5649
15681TIP3    H268459   6.084   6.130  17.243  0.9953  0.3355 -0.4641
15682TIP3   OH268460   0.595   1.622   4.043  0.0084 -0.1153  0.0689
15682TIP3    H168461   0.568   1.536   4.075  2.3557 -1.6593 -1.7294
15682TIP3    H268462   0.519   1.678   4.058 -2.1989 -2.8438 -0.0167
15683TIP3   OH268463   4.780   2.416  12.028 -0.7302  0.0935  0.4603
15683TIP3    H168464   4.747   2.408  11.939 -0.2509 -1.3888  0.3785
15683TIP3    H268465   4.788   2.510  12.043  2.3653  0.4364 -2.2878
15684TIP3   OH268466   2.232   1.819   6.053  0.1615  0.4157 -0.5800
15684TIP3    H168467   2.221   1.778   6.139  0.1132 -0.1272 -0.8381
15684TIP3    H268468   2.323   1.801   6.030 -0.4478 -1.5361 -1.6805
15685TIP3   OH268469   3.703   4.240  12.132 -0.0155 -0.0379 -0.0041
15685TIP3    H168470   3.621   4.254  12.084  0.0753  2.3066  0.3824
15685TIP3    H268471   3.688   4.284  12.216  1.1028 -0.9637  0.7030
15686TIP3   OH268472   4.358   2.298  12.255  0.3710 -0.2991  0.4821
15686TIP3    H168473   4.406   2.354  12.316  0.4660 -0.8876  0.9656
15686TIP3    H268474   4.359   2.345  12.172 -1.8743  1.6959  1.4924
15687TIP3   OH268475   0.740   4.587  13.955 -0.4044  0.4010  0.6750
15687TIP3    H168476   0.811   4.565  14.016 -1.0982 -1.4116  0.9163
15687TIP3    H268477   0.784   4.626  13.880  0.9869 -1.4244  0.4537
15688TIP3   OH268478   0.700   5.614  14.276 -0.1502  0.3401  0.2390
15688TIP3    H168479   0.721   5.531  14.319  0.9918  0.0187 -0.8798
15688TIP3    H268480   0.763   5.620  14.204 -1.0894  1.5365 -0.5120
15689TIP3   OH268481   2.774   0.134   5.397 -0.2330 -0.0034 -0.0898
15689TIP3    H168482   2.870   0.136   5.393 -0.1334 -2.5163  0.0066
15689TIP3    H268483   2.750   0.226   5.408  2.0144  1.0505 -2.8171
15690TIP3   OH268484   0.264   0.595   2.303 -0.5911  0.3466  0.6096
15690TIP3    H168485   0.185   0.575   2.253 -0.7371  0.3109  0.8489
15690TIP3    H268486   0.234   0.659   2.368 -0.8079 -0.8953  1.7789
15691TIP3   OH268487   0.303   1.019   1.883 -0.3315  0.2904 -0.0906
15691TIP3    H168488   0.332   1.043   1.971 -1.3294  1.0652  0.0385
15691TIP3    H268489   0.249   0.941   1.895 -0.3870  0.3385 -0.0315
15692TIP3   OH268490   5.455   4.702   3.262 -1.1584 -0.2504  0.1088
15692TIP3    H168491   5.499   4.694   3.347  0.4434 -1.5197 -0.7784
15692TIP3    H268492   5.411   4.618   3.250  0.0897 -0.7800 -1.0506
15693TIP3   OH268493   4.581   0.566   4.425 -0.0549  0.5740 -0.7796
15693TIP3    H168494   4.593   0.471   4.426  2.0492  0.7333  2.6165
15693TIP3    H268495   4.491   0.578   4.457  0.1184 -0.2654  0.0736
15694TIP3   OH268496   3.777   2.904   1.741 -1.0191 -0.5051  0.3661
15694TIP3    H168497   3.710   2.837   1.755  0.2303 -1.9368 -0.2060
15694TIP3    H268498   3.779   2.916   1.646  0.8150 -1.9286  0.1658
15695TIP3   OH268499   5.839   5.399  15.497  0.5010 -0.0691  0.0568
15695TIP3    H168500   5.919   5.389  15.445 -0.3146 -1.0868 -1.0562
15695TIP3    H268501   5.791   5.470  15.455  0.4276 -0.0199  0.2193
15696TIP3   OH268502   3.241   6.475  12.558  0.6235 -0.6170 -0.1844
15696TIP3    H168503   3.199   6.537  12.617 -0.0309 -0.8646 -0.3858
15696TIP3    H268504   3.255   6.396  12.611  0.7404 -0.5699 -0.1452
15697TIP3   OH268505   1.934   4.681  13.865 -0.2141  0.5358 -0.5889
15697TIP3    H168506   1.926   4.754  13.927  2.6724 -0.5545  1.2492
15697TIP3    H268507   1.862   4.622  13.888 -1.1600  1.6709 -0.5435
15698TIP3   OH268508   2.758   2.064  15.762 -0.5847  0.5091  0.1667
15698TIP3    H168509   2.680   2.030  15.719 -1.2939 -1.3751  2.6841
15698TIP3    H268510   2.805   1.986  15.793  1.4154  1.6563  0.1959
15699TIP3   OH268511   0.904   3.825  13.908  0.5567  0.2637  0.0693
15699TIP3    H168512   0.848   3.850  13.834 -1.7498 -2.7726  0.6114
15699TIP3    H268513   0.856   3.855  13.985  1.1954  0.2804  0.4643
15700TIP3   OH268514   3.513   4.806  13.185  0.3167 -0.3950  0.4667
15700TIP3    H168515   3.542   4.727  13.140  1.3697  0.2003  0.0914
15700TIP3    H268516   3.443   4.775  13.243 -0.4310 -1.3206 -0.8822
15701TIP3   OH268517   0.940   5.316  17.065 -0.1042  0.2683 -0.1969
15701TIP3    H168518   0.955   5.257  17.139 -1.1192 -1.9812 -1.6646
15701TIP3    H268519   1.021   5.313  17.015  1.2737  3.1941  1.5835
15702TIP3   OH268520   4.260   3.839   2.577  0.0631  0.8110 -0.0787
15702TIP3    H168521   4.286   3.760   2.624 -0.8917  1.1193  1.0102
15702TIP3    H268522   4.215   3.807   2.499  0.2595  0.2818  0.0200
15703TIP3   OH268523   4.945   3.545  13.837 -0.0458 -0.0281 -0.7184
15703TIP3    H168524   4.951   3.612  13.905 -1.0702  0.1430 -0.7857
15703TIP3    H268525   4.882   3.581  13.774 -0.2580 -0.8511 -0.9846
15704TIP3   OH268526   3.974   5.432  16.856  0.5599 -0.0189 -0.0084
15704TIP3    H168527   3.983   5.491  16.931  0.6940 -0.3325  0.2265
15704TIP3    H268528   4.059   5.437  16.812  0.3304  0.5155 -0.4077
15705TIP3   OH268529   2.770   3.647  13.216 -0.2339  0.1275  0.0716
15705TIP3    H168530   2.822   3.709  13.266  2.7188 -2.4973  0.5918
15705TIP3    H268531   2.824   3.627  13.139 -0.4521 -2.5645  0.5068
15706TIP3   OH268532   0.143   3.834  14.210  0.6527  0.3398  0.2763
15706TIP3    H168533   0.140   3.841  14.306  1.0113 -0.0709  0.3173
15706TIP3    H268534   0.051   3.822  14.185  0.3458  2.0926  0.4305
15707TIP3   OH268535   5.301   4.884  13.921 -0.2537  0.0200  0.0976
15707TIP3    H168536   5.251   4.814  13.962  0.6454  0.3479  1.8463
15707TIP3    H268537   5.377   4.840  13.883  0.2527 -0.0044  1.0976
15708TIP3   OH268538   1.955   1.610  14.778 -0.9110 -0.1708 -0.0134
15708TIP3    H168539   1.936   1.643  14.866 -1.5605 -0.1900 -0.1448
15708TIP3    H268540   2.026   1.547  14.791 -1.6450 -0.8852  0.6267
15709TIP3   OH268541   4.244   3.097  15.823 -0.0058 -0.2102  0.1012
15709TIP3    H168542   4.189   3.092  15.745  0.0220 -0.0859  0.0737
15709TIP3    H268543   4.232   3.186  15.856  0.0626 -0.2295  0.1808
15710TIP3   OH268544   2.912   4.045  13.446  0.3766  0.0078  0.4115
15710TIP3    H168545   2.941   3.973  13.389 -0.0993 -0.0935  0.2936
15710TIP3    H268546   2.817   4.034  13.451  0.2561  0.8704  0.0781
15711TIP3   OH268547   1.499   2.014   1.555  0.5259 -0.7338 -0.8956
15711TIP3    H168548   1.413   2.021   1.598  1.4825 -0.7326  1.1022
15711TIP3    H268549   1.500   2.088   1.493  0.3608  1.4142  1.4928
15712TIP3   OH268550   5.144   4.333   2.942  0.4785  0.0777 -0.1311
15712TIP3    H168551   5.094   4.357   2.865 -1.8815  1.0095  1.5678
15712TIP3    H268552   5.141   4.237   2.944 -2.2422  0.1005  0.4396
15713TIP3   OH268553   2.215   0.049  13.800  0.6038 -0.0515  0.7538
15713TIP3    H168554   2.262   0.008  13.873  0.4557  0.8360  1.3672
15713TIP3    H268555   2.269   0.031  13.723  1.4424  0.1031  1.2930
15714TIP3   OH268556   2.191   3.921   0.787 -0.2029 -0.2687  0.0903
15714TIP3    H168557   2.157   3.942   0.699 -0.9005  0.6490  0.5534
15714TIP3    H268558   2.253   3.992   0.805  0.5540 -0.9020  0.0242
15715TIP3   OH268559   0.921   4.987  12.155 -0.6256  0.3463 -0.2566
15715TIP3    H168560   0.989   5.051  12.133 -0.4256 -0.2102 -1.3348
15715TIP3    H268561   0.847   5.011  12.099 -0.9152  0.2468  0.0780
15716TIP3   OH268562   5.661   5.772  10.855  0.0955  0.8016 -0.1802
15716TIP3    H168563   5.616   5.778  10.770  1.5046 -1.6180 -1.1811
15716TIP3    H268564   5.666   5.678  10.873  2.4846  1.1129  1.1272
15717TIP3   OH268565   4.769   5.803  15.400 -0.3813  0.0085 -0.3583
15717TIP3    H168566   4.750   5.709  15.397 -3.5606  0.5289 -0.0879
15717TIP3    H268567   4.810   5.821  15.315 -1.4998 -1.3334 -1.2400
15718TIP3   OH268568   4.119   0.738  14.218  0.3095 -0.3863  0.0845
15718TIP3    H168569   4.192   0.764  14.274  0.4263  0.2153 -0.3412
15718TIP3    H268570   4.061   0.814  14.217 -0.7948 -1.1774  1.1538
15719TIP3   OH268571   6.492   6.736  16.675 -0.1454 -0.3149 -0.1223
15719TIP3    H168572   6.468   6.644  16.678 -3.2891  0.2984 -1.9038
15719TIP3    H268573   6.409   6.783  16.680  1.1434  2.3528 -1.3862
15720TIP3   OH268574   1.699   0.105  15.969  0.0107  0.6468  0.6280
15720TIP3    H168575   1.737   0.040  15.910 -2.2834 -0.8606  0.6834
15720TIP3    H268576   1.623   0.139  15.922 -0.9998  0.5065  2.1040
15721TIP3   OH268577   5.550   1.524   5.733 -0.1222 -0.0191 -0.0220
15721TIP3    H168578   5.481   1.519   5.666 -0.5246  0.2934  0.3703
15721TIP3    H268579   5.629   1.548   5.684 -0.3037 -0.3124 -0.4634
15722TIP3   OH268580   2.565   5.781   5.366 -0.0279 -0.2918  1.0088
15722TIP3    H168581   2.520   5.796   5.283  1.6768  1.2607  0.3024
15722TIP3    H268582   2.635   5.719   5.344  0.2388 -0.1186  1.3654
15723TIP3   OH268583   5.953   5.360  13.019 -0.1289  0.0092 -0.3460
15723TIP3    H168584   6.005   5.418  12.964  0.4641  0.3342  0.5416
15723TIP3    H268585   5.882   5.414  13.052  0.5809  0.3411  0.7082
15724TIP3   OH268586   4.922   5.974   0.613 -0.9265  0.0681  0.3049
15724TIP3    H168587   4.955   6.018   0.692  2.5531 -0.4243 -0.6991
15724TIP3    H268588   4.912   6.044   0.549 -1.2484  0.1312  0.4203
15725TIP3   OH268589   4.707   2.715   2.632  0.3944 -0.0912 -0.4611
15725TIP3    H168590   4.646   2.642   2.620 -0.2729  0.5211 -0.8680
15725TIP3    H268591   4.655   2.793   2.613  1.6029  0.3907 -1.9470
15726TIP3   OH268592   5.006   0.181  15.552  0.0571 -0.0364 -0.3533
15726TIP3    H168593   4.932   0.147  15.602 -0.6724  0.7058 -0.8916
15726TIP3    H268594   5.008   0.128  15.472  1.8215 -1.8742  0.8102
15727TIP3   OH268595   2.975   4.342   2.090 -0.3728  0.2411  0.1266
15727TIP3    H168596   2.980   4.248   2.107  1.3228  0.1288 -0.8235
15727TIP3    H268597   3.065   4.374   2.100 -0.9118  1.7635  0.4033
15728TIP3   OH268598   5.010   6.492   4.024  0.2774 -0.5151  0.6655
15728TIP3    H168599   5.037   6.400   4.027  0.1536 -0.7284 -2.0911
15728TIP3    H268600   4.965   6.506   4.108 -1.5338 -3.5580  0.3802
15729TIP3   OH268601   3.103   0.474  11.645 -0.3110  0.0847 -0.2683
15729TIP3    H168602   3.122   0.433  11.730  0.3684  1.3941  0.2387
15729TIP3    H268603   3.189   0.485  11.605 -0.6026 -0.1754 -0.9711
15730TIP3   OH268604   0.143   2.373  12.935  0.4009 -0.1479 -0.3777
15730TIP3    H168605   0.211   2.369  13.002  0.3910 -2.7062 -0.4239
15730TIP3    H268606   0.062   2.390  12.984  0.4115 -1.8558  0.2965
15731TIP3   OH268607   6.448   4.847   2.703 -0.0276 -0.0997  0.2205
15731TIP3    H168608   6.437   4.755   2.681  0.9795  0.3200 -2.3332
15731TIP3    H268609   6.365   4.872   2.743 -0.4360 -2.0126  0.6459
15732TIP3   OH268610   4.682   0.475  12.843 -0.0902  0.0421 -0.3659
15732TIP3    H168611   4.730   0.522  12.775  0.9912  0.7347  0.8309
15732TIP3    H268612   4.736   0.398  12.863 -1.0870 -0.9165 -1.2263
15733TIP3   OH268613   5.617   5.570  17.009  0.0509 -0.4988  0.1844
15733TIP3    H168614   5.566   5.645  17.040 -1.3317 -1.2825 -0.0926
15733TIP3    H268615   5.672   5.546  17.083  0.8789  1.0641  0.1162
15734TIP3   OH268616   4.396   2.580   4.686  0.3646 -0.7559 -0.1257
15734TIP3    H168617   4.455   2.599   4.614 -0.4749  1.7409 -0.2412
15734TIP3    H268618   4.316   2.547   4.645  0.5512 -1.1288 -0.1910
15735TIP3   OH268619   1.846   3.474  14.021  0.0644 -0.4817 -0.0741
15735TIP3    H168620   1.940   3.493  14.013 -0.3147  1.2420 -0.7161
15735TIP3    H268621   1.826   3.426  13.940 -0.3360  2.4929 -1.8694
15736TIP3   OH268622   3.092   1.499   4.826  0.3119 -0.0594  0.2570
15736TIP3    H168623   3.182   1.514   4.796 -0.1287 -0.0090 -1.0815
15736TIP3    H268624   3.102   1.481   4.920  1.8048 -0.8547 -0.0072
15737TIP3   OH268625   2.905   3.199   2.216 -0.0511 -0.0606 -0.0903
15737TIP3    H168626   2.835   3.193   2.151  0.2443 -0.0624 -0.4161
15737TIP3    H268627   2.869   3.160   2.295 -0.7976  0.9047  0.0652
15738TIP3   OH268628   5.657   2.058   5.882 -0.1470 -0.0352  0.8979
15738TIP3    H168629   5.673   1.970   5.916 -1.3446 -0.8063 -0.4418
15738TIP3    H268630   5.742   2.086   5.847 -0.3731 -1.8809 -1.3182
15739TIP3   OH268631   5.787   4.780  13.975 -0.1692 -0.2028 -0.4401
15739TIP3    H168632   5.833   4.815  13.899 -0.3464 -2.0088 -1.4477
15739TIP3    H268633   5.847   4.712  14.009  0.7863  1.8036  2.2475
15740TIP3   OH268634   4.460   4.283   2.389  0.4117  0.0928  0.0034
15740TIP3    H168635   4.438   4.191   2.409  0.6047  0.0805  0.1609
15740TIP3    H268636   4.379   4.319   2.352  0.2333 -0.0517  0.2470
15741TIP3   OH268637   6.131   1.804   1.896 -0.4034  0.6497  0.2446
15741TIP3    H168638   6.056   1.776   1.947 -0.7720  0.7704 -0.2252
15741TIP3    H268639   6.182   1.723   1.882  0.6360  0.8832  2.2688
15742TIP3   OH268640   2.639   5.976  14.196 -0.1398 -0.1401  0.0357
15742TIP3    H168641   2.726   5.939  14.182 -0.4037 -0.9823  0.5539
15742TIP3    H268642   2.645   6.065  14.161  0.6156 -0.5438 -0.9090
15743TIP3   OH268643   0.725   3.038  14.189  0.1289  0.2486 -0.9005
15743TIP3    H168644   0.772   3.044  14.272  0.9323 -2.6073 -1.0537
15743TIP3    H268645   0.791   3.059  14.123  0.1105  0.1714 -0.9426
15744TIP3   OH268646   1.503   0.873   3.918  0.1795 -0.1692 -0.0324
15744TIP3    H168647   1.414   0.908   3.926  0.8759  1.6392  0.3570
15744TIP3    H268648   1.496   0.803   3.853 -1.5036 -0.0309 -0.0426
15745TIP3   OH268649   5.553   6.305  15.705 -0.2537  0.0429  0.0583
15745TIP3    H168650   5.593   6.261  15.630 -1.3377 -1.4052  0.2806
15745TIP3    H268651   5.471   6.341  15.671 -0.4163 -0.0154  0.3802
15746TIP3   OH268652   6.225   1.383  13.092  0.4105  0.1746 -0.3690
15746TIP3    H168653   6.302   1.346  13.135 -0.1336 -1.9163 -1.1031
15746TIP3    H268654   6.229   1.349  13.003 -0.4432  1.4773 -0.9354
15747TIP3   OH268655   2.732   4.645  14.824  0.5003  0.6955 -0.5409
15747TIP3    H168656   2.772   4.729  14.848 -0.2037  1.3207 -1.5376
15747TIP3    H268657   2.658   4.667  14.768  0.3461 -0.5978 -0.8940
15748TIP3   OH268658   2.725   3.485   2.707  0.1423 -0.3276  0.0727
15748TIP3    H168659   2.796   3.549   2.717 -0.2906 -0.0053  1.3013
15748TIP3    H268660   2.679   3.488   2.791  1.2998 -3.6921  0.9767
15749TIP3   OH268661   2.985   3.653  13.512 -0.0385 -0.2921  0.6174
15749TIP3    H168662   2.996   3.717  13.583 -3.7045 -0.5429  1.6366
15749TIP3    H268663   3.040   3.579  13.538  1.6902  1.1100  1.1362
15750TIP3   OH268664   4.638   5.761  12.112 -0.1191 -0.0442  0.1701
15750TIP3    H168665   4.643   5.850  12.077  0.8977 -0.0772  0.2015
15750TIP3    H268666   4.547   5.734  12.097 -1.0486  1.7565  2.0946
15751TIP3   OH268667   1.340   0.617   1.938  0.1480  0.1537 -0.1745
15751TIP3    H168668   1.415   0.660   1.897  0.6036 -0.9690 -0.5488
15751TIP3    H268669   1.263   0.658   1.898  0.5448 -1.8616 -3.2927
15752TIP3   OH268670   1.455   5.207   3.626 -0.0797  0.0653  0.4490
15752TIP3    H168671   1.459   5.241   3.716 -2.3573  0.7346  0.3561
15752TIP3    H268672   1.387   5.140   3.629  0.5728 -0.6717 -0.5786
15753TIP3   OH268673   4.287   5.529  12.406 -0.2911  0.0770 -0.6039
15753TIP3    H168674   4.341   5.463  12.363 -0.3576  0.3460 -1.1101
15753TIP3    H268675   4.328   5.612  12.385  0.7945  0.1248  1.4656
15754TIP3   OH268676   4.368   0.155  12.391 -0.2865  0.4166 -0.3398
15754TIP3    H168677   4.353   0.116  12.305 -0.1565 -2.5569  0.8366
15754TIP3    H268678   4.407   0.083  12.442 -2.2519  1.3977  2.7755
15755TIP3   OH268679   5.034   5.031   1.111 -0.5195 -0.5687  0.1231
15755TIP3    H168680   5.027   4.941   1.141 -0.5516 -1.2566 -1.7850
15755TIP3    H268681   5.128   5.050   1.115 -0.2708 -1.3652 -1.1708
15756TIP3   OH268682   0.817   5.201  15.751 -0.1899  0.4879  0.6786
15756TIP3    H168683   0.801   5.184  15.658 -0.3214  0.2397  0.7460
15756TIP3    H268684   0.863   5.123  15.782 -0.5604  0.3712  0.9296
15757TIP3   OH268685   4.722   5.755  13.732  0.3070  0.6874 -0.0369
15757TIP3    H168686   4.703   5.727  13.642 -0.6017 -1.3721  0.7395
15757TIP3    H268687   4.679   5.840  13.739 -1.3006  0.0044 -0.9831
15758TIP3   OH268688   0.330   6.121  13.851  0.3325  0.0758 -0.4788
15758TIP3    H168689   0.246   6.084  13.878  0.8404 -1.8828 -1.3972
15758TIP3    H268690   0.395   6.073  13.902  0.9684  0.7715 -0.6060
15759TIP3   OH268691   6.116   6.665   2.960  0.0180 -0.2124  0.2095
15759TIP3    H168692   6.197   6.635   2.919  0.5063  0.1456  0.8891
15759TIP3    H268693   6.105   6.754   2.927 -1.5954 -1.1624 -2.0519
15760TIP3   OH268694   5.506   2.913   0.160  0.2101  0.0924  0.0984
15760TIP3    H168695   5.545   2.904   0.247  0.5968 -0.6186 -0.1346
15760TIP3    H268696   5.564   2.974   0.114 -0.6639  1.4198  0.7015
15761TIP3   OH268697   1.481   4.633   4.119 -0.3009  0.0624  0.5197
15761TIP3    H168698   1.441   4.569   4.177 -1.3881 -0.1448 -0.4236
15761TIP3    H268699   1.465   4.599   4.031  1.3526  0.3357  0.0720
15762TIP3   OH268700   2.580   1.481   1.740 -0.2244 -0.0035 -0.1435
15762TIP3    H168701   2.621   1.400   1.770  0.2621  1.0406  2.2684
15762TIP3    H268702   2.488   1.470   1.761 -0.2208 -0.0626 -0.1568
15763TIP3   OH268703   6.468   6.676   4.421  0.0842  0.3199 -0.0139
15763TIP3    H168704   6.537   6.673   4.355 -0.9650 -1.9225 -1.1040
15763TIP3    H268705   6.396   6.724   4.380  0.5147  1.6539  0.7070
15764TIP3   OH268706   1.896   5.647   3.525  0.5758 -0.0686  0.0228
15764TIP3    H168707   1.881   5.733   3.563 -2.4106 -0.9014  1.0720
15764TIP3    H268708   1.866   5.654   3.435 -1.2170 -0.3062  0.5490
15765TIP3   OH268709   5.997   0.177  14.068  0.1766 -0.3812  0.1533
15765TIP3    H168710   6.047   0.099  14.093  0.3305  0.0472  1.2188
15765TIP3    H268711   6.055   0.250  14.087 -0.6080  0.0861  0.7980
15766TIP3   OH268712   4.235   3.953   4.039 -0.3021  0.6894  0.3388
15766TIP3    H168713   4.155   4.005   4.043  0.2149  1.4889  0.7290
15766TIP3    H268714   4.209   3.870   3.999 -1.1886  1.1781 -0.1158
15767TIP3   OH268715   1.802   4.101   4.678 -0.0212 -0.1235  0.0611
15767TIP3    H168716   1.712   4.095   4.710  0.1862 -0.8917  0.5457
15767TIP3    H268717   1.794   4.110   4.583 -0.6468  1.8786  0.2605
15768TIP3   OH268718   3.782   6.513   3.073  0.1724 -0.0940  0.4255
15768TIP3    H168719   3.815   6.550   3.155  0.0398  2.8340 -0.7436
15768TIP3    H268720   3.719   6.577   3.041 -1.2402 -2.0896 -1.0630
15769TIP3   OH268721   3.047   5.429  15.105 -0.6894 -0.0599  0.5342
15769TIP3    H168722   3.081   5.395  15.022 -2.0844 -2.6280  0.9162
15769TIP3    H268723   2.980   5.492  15.079  1.2467  1.8236 -0.2061
15770TIP3   OH268724   3.103   3.330  12.978 -0.1908  0.4669 -0.0052
15770TIP3    H168725   3.185   3.353  13.023 -0.9934  1.2790  1.0991
15770TIP3    H268726   3.115   3.364  12.889  0.9402 -0.0548 -0.0684
15771TIP3   OH268727   0.481   0.405  10.619 -0.1814  0.0048 -0.8617
15771TIP3    H168728   0.411   0.423  10.556 -0.5411 -0.1580 -0.5152
15771TIP3    H268729   0.562   0.429  10.574 -0.3217 -1.3096 -1.8575
15772TIP3   OH268730   0.172   4.959   4.511  0.0615 -0.8892  0.6358
15772TIP3    H168731   0.106   4.980   4.445 -1.4688 -1.0453  2.0556
15772TIP3    H268732   0.178   4.863   4.509  0.7593 -0.8419  0.0522
15773TIP3   OH268733   4.540   4.433  13.879 -0.1110 -0.1404  0.3351
15773TIP3    H168734   4.557   4.393  13.964  0.5635  1.6109  1.0550
15773TIP3    H268735   4.458   4.482  13.891  1.0623  1.8270  0.6411
15774TIP3   OH268736   4.826   2.912  13.060 -0.0171  0.7162  0.6553
15774TIP3    H168737   4.784   2.960  12.989  1.1540  1.1253  0.2216
15774TIP3    H268738   4.769   2.837  13.074 -0.1724  0.5122 -0.8579
15775TIP3   OH268739   2.402   1.973   3.649 -0.3552  0.3824  0.1083
15775TIP3    H168740   2.356   2.056   3.660 -0.8076  0.1321  0.1207
15775TIP3    H268741   2.460   1.967   3.725  2.2566  2.3088 -1.5335
15776TIP3   OH268742   0.353   4.247  12.782 -0.1816  0.6023 -0.1006
15776TIP3    H168743   0.400   4.251  12.866  0.5314  1.2468 -0.5109
15776TIP3    H268744   0.291   4.320  12.786 -1.4902 -0.5121  0.6178
15777TIP3   OH268745   3.023   0.062   2.032  0.6879 -0.2510  0.1238
15777TIP3    H168746   3.063   0.149   2.029  0.4785 -0.1825 -1.0074
15777TIP3    H268747   3.085   0.009   2.082  1.5390  0.1743 -0.4595
15778TIP3   OH268748   2.468   2.188   6.649  0.2193 -0.3572 -0.0520
15778TIP3    H168749   2.514   2.204   6.566  0.0658  0.8102  0.0769
15778TIP3    H268750   2.383   2.154   6.622  0.7499 -1.5423 -0.3186
15779TIP3   OH268751   0.528   0.499   3.528 -0.0977  0.6161  0.2191
15779TIP3    H168752   0.449   0.492   3.476  0.0645 -1.2886  0.1773
15779TIP3    H268753   0.573   0.577   3.494 -2.2610  2.1646  0.7398
15780TIP3   OH268754   5.051   3.466  16.942  0.2522 -0.1885 -0.0807
15780TIP3    H168755   5.116   3.465  17.012  0.0129  2.0861  0.2581
15780TIP3    H268756   4.978   3.517  16.977  0.2594  1.3101 -2.0323
15781TIP3   OH268757   5.146   1.468  15.629 -0.6533 -0.4731 -0.3745
15781TIP3    H168758   5.101   1.401  15.680 -0.2734 -0.8792 -0.5618
15781TIP3    H268759   5.161   1.539  15.691 -1.4682 -0.3636 -0.2924
15782TIP3   OH268760   2.663   0.095  12.182  0.5346 -0.0117  0.6434
15782TIP3    H168761   2.652   0.113  12.089  0.4022 -0.9276  0.4658
15782TIP3    H268762   2.752   0.123  12.202  0.3144  0.8757  0.4209
15783TIP3   OH268763   3.486   5.870   3.851 -0.4131  0.7518  0.6897
15783TIP3    H168764   3.536   5.913   3.921 -0.3673 -0.3745  1.3870
15783TIP3    H268765   3.471   5.938   3.786  2.8991  0.9347 -0.0579
15784TIP3   OH268766   1.360   3.366   4.077  0.3057  0.6094 -0.3858
15784TIP3    H168767   1.348   3.281   4.034  0.0427  0.5376 -0.1679
15784TIP3    H268768   1.372   3.345   4.169  1.2864  0.7348 -0.4722
15785TIP3   OH268769   0.837   0.738  12.355 -0.1865 -0.1573 -0.4334
15785TIP3    H168770   0.778   0.796  12.306 -0.0404 -0.8876 -1.5179
15785TIP3    H268771   0.814   0.751  12.447  0.1587  1.9779 -0.6023
15786TIP3   OH268772   6.378   1.277   3.738 -0.3321 -0.2552  0.0502
15786TIP3    H168773   6.371   1.245   3.647 -2.0560 -0.8434  0.3448
15786TIP3    H268774   6.394   1.371   3.729  2.0725 -0.6916 -0.8392
15787TIP3   OH268775   3.370   3.234  14.570  0.6726  0.6065  0.4636
15787TIP3    H168776   3.403   3.319  14.597 -0.1966  0.6223  1.5345
15787TIP3    H268777   3.427   3.208  14.498  1.1871  1.9149  0.3715
15788TIP3   OH268778   5.270   4.211  12.549  0.1215  0.7440  0.0217
15788TIP3    H168779   5.303   4.125  12.573 -0.7043 -0.2110 -2.0515
15788TIP3    H268780   5.181   4.213  12.584  0.5266  1.2553  1.0761
15789TIP3   OH268781   5.903   0.784   1.336  0.1464  0.7153 -0.6121
15789TIP3    H168782   5.843   0.719   1.299 -0.4916 -0.1232  1.7174
15789TIP3    H268783   5.983   0.776   1.284  1.1355 -3.9966  1.1467
15790TIP3   OH268784   5.015   3.971  13.556  0.1173 -0.1443  0.3520
15790TIP3    H168785   5.035   4.042  13.617 -0.3114 -0.8039  1.2904
15790TIP3    H268786   4.923   3.950  13.574  0.5718 -1.7528  0.9766
15791TIP3   OH268787   2.670   6.090   0.370  0.0025 -0.0797 -0.1293
15791TIP3    H168788   2.662   6.162   0.307  2.2216 -0.9490 -1.5110
15791TIP3    H268789   2.723   6.024   0.325  2.3977 -0.4335  2.8760
15792TIP3   OH268790   0.743   6.583   2.490  0.1152  0.7367  0.9499
15792TIP3    H168791   0.687   6.508   2.469 -0.7952  1.5487  0.4463
15792TIP3    H268792   0.753   6.630   2.408 -2.0057  2.9428  1.8319
15793TIP3   OH268793   4.359   0.689  11.040  0.1312  0.0008 -0.0979
15793TIP3    H168794   4.359   0.594  11.025  0.7199 -0.2202  1.2047
15793TIP3    H268795   4.308   0.724  10.967  3.2500 -0.9049 -2.9553
15794TIP3   OH268796   2.800   1.669  11.542 -0.1792  0.2416  0.2321
15794TIP3    H168797   2.886   1.670  11.583 -0.4385 -2.0941  0.9513
15794TIP3    H268798   2.818   1.673  11.448  0.6398  0.9075  0.4030
15795TIP3   OH268799   5.262   3.007  15.819 -0.2433 -0.1743 -0.2737
15795TIP3    H168800   5.230   3.080  15.872 -0.8148 -0.3310 -0.3899
15795TIP3    H268801   5.325   2.962  15.875  2.1333  1.9002 -1.1063
15796TIP3   OH268802   1.479   4.239  14.046  0.0442  0.0913  0.3177
15796TIP3    H168803   1.436   4.322  14.065 -0.6836  0.2063 -1.5904
15796TIP3    H268804   1.527   4.255  13.965 -0.2060 -1.3822 -0.1484
15797TIP3   OH268805   5.234   4.739   3.010 -0.5262 -0.1467  0.1195
15797TIP3    H168806   5.302   4.805   3.020  0.3864 -1.1082  0.4804
15797TIP3    H268807   5.268   4.663   3.057 -1.1666 -1.1394 -0.9668
15798TIP3   OH268808   4.219   3.645  15.535  0.0240  0.3896 -0.0174
15798TIP3    H168809   4.149   3.600  15.486 -0.1267  0.2446  0.3325
15798TIP3    H268810   4.272   3.574  15.571 -0.7897  0.4588  1.3786
15799TIP3   OH268811   1.673   6.611   3.417 -0.6660 -0.2348  0.1153
15799TIP3    H168812   1.746   6.648   3.369  1.7061 -1.8251  2.2149
15799TIP3    H268813   1.627   6.686   3.454  0.0233  0.7974 -1.0850
15800TIP3   OH268814   5.912   2.339  11.859  0.2271  0.5589 -0.4683
15800TIP3    H168815   5.820   2.323  11.882  0.3710 -1.6730 -1.1912
15800TIP3    H268816   5.911   2.349  11.764  0.8297 -0.4843 -0.5984
15801TIP3   OH268817   0.043   3.331  11.337 -0.2989  0.1575 -0.0325
15801TIP3    H168818   0.128   3.295  11.360  0.7227  1.5384 -1.4460
15801TIP3    H268819   0.060   3.386  11.261 -2.0313  2.3176  1.0122
15802TIP3   OH268820   2.784   3.652  16.541 -0.0953 -0.1826 -0.4678
15802TIP3    H168821   2.829   3.589  16.598  1.6886  0.8932 -0.6060
15802TIP3    H268822   2.732   3.705  16.601 -1.4218 -1.5735 -0.3210
15803TIP3   OH268823   0.781   3.948   5.626  0.7712  0.2113 -0.2390
15803TIP3    H168824   0.765   3.954   5.531 -0.4496 -0.6523 -0.1180
15803TIP3    H268825   0.844   3.878   5.635  1.4498  0.7830 -0.4516
15804TIP3   OH268826   4.231   2.511   0.879  0.3574  0.0963 -0.7729
15804TIP3    H168827   4.214   2.592   0.831  0.2469 -0.1666 -1.1813
15804TIP3    H268828   4.208   2.441   0.818 -0.8514 -0.2497  0.0340
15805TIP3   OH268829   0.479   1.985  12.161  0.0503 -0.2250 -0.6913
15805TIP3    H168830   0.524   1.912  12.205 -2.4255 -0.7036  1.2897
15805TIP3    H268831   0.504   2.062  12.213 -1.8001 -0.5921  0.8554
15806TIP3   OH268832   3.375   5.153   2.282  0.0748 -0.3330 -0.1563
15806TIP3    H168833   3.428   5.226   2.315  0.7305  0.0343 -1.9274
15806TIP3    H268834   3.371   5.092   2.356  3.7150 -0.7889 -0.1311
15807TIP3   OH268835   3.035   3.907  15.748  0.2322 -0.2018  0.2880
15807TIP3    H168836   3.131   3.902  15.750  0.2427 -0.0293  0.1499
15807TIP3    H268837   3.013   3.910  15.655  0.0919 -0.2561  0.3203
15808TIP3   OH268838   2.005   4.262  16.757  0.4657  0.1260  0.8112
15808TIP3    H168839   1.958   4.330  16.708 -0.3461 -0.3736  0.8694
15808TIP3    H268840   1.991   4.285  16.849 -1.3282 -1.0571  0.8885
15809TIP3   OH268841   2.191   4.933  13.083  0.1645  0.1208  0.0661
15809TIP3    H168842   2.219   4.846  13.055  1.5487  0.5775 -0.0279
15809TIP3    H268843   2.163   4.976  13.002 -0.5976 -0.2452  0.1235
15810TIP3   OH268844   6.660   6.479   5.782  0.1017 -0.1605 -0.5156
15810TIP3    H168845   6.640   6.484   5.688 -0.2769  0.9761 -0.3793
15810TIP3    H268846   6.673   6.570   5.809 -0.5842 -0.4065  0.7104
15811TIP3   OH268847   1.908   1.500  17.090  0.0981  0.1146 -0.2757
15811TIP3    H168848   1.959   1.579  17.106 -0.0904  0.2716 -0.4381
15811TIP3    H268849   1.939   1.437  17.156  0.1665  0.3621 -0.0707
15812TIP3   OH268850   1.553   4.438   6.668 -0.4776  0.0988  0.3073
15812TIP3    H168851   1.524   4.439   6.576  2.7056  2.2310 -0.8465
15812TIP3    H268852   1.500   4.506   6.710  1.0587  2.3783 -1.1998
15813TIP3   OH268853   0.913   6.062   4.671  0.0646 -0.2312  0.8425
15813TIP3    H168854   0.833   6.112   4.688  1.4353  1.3314  3.5915
15813TIP3    H268855   0.962   6.116   4.609 -0.1986 -0.2166  0.6476
15814TIP3   OH268856   1.669   2.853  16.601  0.2441  0.5203  0.1860
15814TIP3    H168857   1.751   2.903  16.606  0.9577 -0.5269 -0.5733
15814TIP3    H268858   1.613   2.905  16.543 -0.1524  1.8924  1.6974
15815TIP3   OH268859   2.583   0.706  14.239 -0.4049  0.1054 -0.0732
15815TIP3    H168860   2.504   0.684  14.191 -1.2220 -1.7298  1.9526
15815TIP3    H268861   2.562   0.788  14.285 -0.9027 -0.0498 -0.0242
15816TIP3   OH268862   3.781   1.203   1.338 -0.0887 -0.2079  0.5316
15816TIP3    H168863   3.728   1.137   1.383  1.8746 -1.0500  1.7074
15816TIP3    H268864   3.866   1.200   1.381  2.0112 -1.1236 -3.2765
15817TIP3   OH268865   1.383   2.091   3.633 -0.2457  0.2652 -0.0142
15817TIP3    H168866   1.362   2.025   3.567  2.2380 -1.1309  0.4408
15817TIP3    H268867   1.339   2.060   3.712 -0.4208  0.0396 -0.1969
15818TIP3   OH268868   3.685   5.339   2.559  0.1778  0.4115 -0.7318
15818TIP3    H168869   3.692   5.356   2.653 -0.5131 -3.9890  0.3189
15818TIP3    H268870   3.772   5.358   2.525  1.0797  0.0368  1.2371
15819TIP3   OH268871   5.806   2.391   5.214 -0.2220  0.7047  0.1999
15819TIP3    H168872   5.815   2.325   5.283 -0.1522  1.3882  0.8608
15819TIP3    H268873   5.807   2.341   5.132 -0.5370 -0.1450  0.7022
15820TIP3   OH268874   2.601   6.561   3.849 -0.3686 -0.0851 -0.2915
15820TIP3    H168875   2.607   6.500   3.776  0.6962 -0.5974  0.2128
15820TIP3    H268876   2.514   6.600   3.840  0.0833  0.5625 -2.3818
15821TIP3   OH268877   1.618   6.428   1.369  0.0451 -0.0248  0.0326
15821TIP3    H168878   1.695   6.383   1.334 -0.2082 -0.1005 -0.4234
15821TIP3    H268879   1.543   6.376   1.340 -0.2300  0.4907 -0.1978
15822TIP3   OH268880   3.323   4.053   2.137  0.1705 -0.2406  0.2999
15822TIP3    H168881   3.274   4.094   2.066 -1.0032  0.0108  1.2203
15822TIP3    H268882   3.300   3.960   2.131  0.9186 -0.3925 -0.2978
15823TIP3   OH268883   5.768   0.329  12.959  0.0536  0.4939 -0.2215
15823TIP3    H168884   5.753   0.244  12.918 -0.0715 -0.2892  1.3390
15823TIP3    H268885   5.856   0.354  12.932  0.7491 -0.9418  0.5987
15824TIP3   OH268886   1.338   5.439   3.516  0.0130  0.2360  0.3555
15824TIP3    H168887   1.382   5.355   3.528 -1.4551 -0.4348  1.3845
15824TIP3    H268888   1.247   5.416   3.499  0.0135  1.5698 -1.9125
15825TIP3   OH268889   6.325   3.904  12.045  0.2150 -0.2564  1.0158
15825TIP3    H168890   6.321   3.994  12.077 -0.9684 -0.4667  1.5305
15825TIP3    H268891   6.321   3.850  12.124  3.4358 -0.8059  0.9318
15826TIP3   OH268892   1.015   4.124   2.732 -0.5482 -0.4595 -0.0255
15826TIP3    H168893   0.994   4.141   2.823 -0.6742  1.7197 -0.4132
15826TIP3    H268894   1.107   4.147   2.723 -0.1858 -1.9009 -0.1842
15827TIP3   OH268895   1.199   5.240   4.468 -0.2225  0.3509 -0.5943
15827TIP3    H168896   1.131   5.306   4.484 -0.2689  0.1237  0.2041
15827TIP3    H268897   1.184   5.173   4.535  1.2758  0.7040  0.1506
15828TIP3   OH268898   1.192   3.380  12.883 -0.1479  0.0807 -0.2588
15828TIP3    H168899   1.217   3.376  12.790 -0.6488  0.4901 -0.4162
15828TIP3    H268900   1.275   3.369  12.930  0.2377  0.6854 -0.7668
15829TIP3   OH268901   5.942   5.091  13.072 -0.4834 -0.3168 -0.1377
15829TIP3    H168902   5.943   5.184  13.047 -0.4910 -0.6158 -1.3138
15829TIP3    H268903   5.867   5.083  13.130  0.1340  0.6151  0.8398
15830TIP3   OH268904   1.506   4.766  12.632 -0.2057  0.1918  0.4333
15830TIP3    H168905   1.584   4.712  12.616  0.0362 -0.1039  2.3893
15830TIP3    H268906   1.540   4.843  12.677 -0.9024  0.6907  0.1175
15831TIP3   OH268907   3.254   0.715   2.364 -0.0647 -0.6142 -0.1950
15831TIP3    H168908   3.170   0.736   2.406  0.6941  1.2705  0.4945
15831TIP3    H268909   3.236   0.721   2.270 -0.9195 -1.2507 -0.0857
15832TIP3   OH268910   5.274   0.399  11.437  0.0656 -0.1691 -0.4444
15832TIP3    H168911   5.233   0.323  11.396 -1.6454 -0.0485  0.8986
15832TIP3    H268912   5.209   0.469  11.428  0.3629  0.3149  0.8670
15833TIP3   OH268913   4.278   6.011   4.978  0.5326  0.2681 -0.4028
15833TIP3    H168914   4.187   5.983   4.991  0.1115  1.8391  0.2408
15833TIP3    H268915   4.300   5.979   4.891 -1.1305  1.0333 -1.1582
15834TIP3   OH268916   4.723   3.234  15.784 -0.0491  0.1316 -0.3930
15834TIP3    H168917   4.799   3.249  15.840  0.6880 -0.6988 -1.1277
15834TIP3    H268918   4.733   3.298  15.713 -0.2125  0.2315 -0.3272
15835TIP3   OH268919   6.221   5.147  11.388  0.1006 -0.0314 -0.1343
15835TIP3    H168920   6.284   5.174  11.455 -1.6110  0.0253  1.5291
15835TIP3    H268921   6.242   5.201  11.312  0.2885  2.0214  1.3078
15836TIP3   OH268922   6.720   0.636   4.311  0.3595  0.0370 -0.0480
15836TIP3    H168923   6.726   0.567   4.245  1.7698 -0.0964  0.1818
15836TIP3    H268924   6.695   0.590   4.392  1.9172 -0.3590  0.2562
15837TIP3   OH268925   6.165   4.993   4.108 -0.0813  0.6462 -0.1663
15837TIP3    H168926   6.095   4.985   4.173 -2.1441 -0.5941 -2.3729
15837TIP3    H268927   6.154   5.081   4.071 -1.0077  0.1958 -1.0097
15838TIP3   OH268928   1.196   5.133  16.129  0.3190 -0.6879 -0.3133
15838TIP3    H168929   1.107   5.128  16.096 -0.9792  1.9647  2.2774
15838TIP3    H268930   1.247   5.169  16.055 -1.3429  0.2811 -1.0412
15839TIP3   OH268931   4.778   0.851   0.793 -0.7500  0.3471 -0.2642
15839TIP3    H168932   4.812   0.941   0.789  0.4615 -0.0774 -0.0889
15839TIP3    H268933   4.684   0.860   0.782 -0.4552  1.4688 -2.4865
15840TIP3   OH268934   2.461   5.280  15.066  0.4101  0.1109 -0.1547
15840TIP3    H168935   2.392   5.228  15.024  0.5222 -0.0067 -0.1922
15840TIP3    H268936   2.422   5.367  15.077  0.3284  0.0996 -0.3621
15841TIP3   OH268937   6.006   6.521   4.543  0.2930  0.2808  0.2750
15841TIP3    H168938   5.991   6.530   4.637 -0.7483 -1.1451  0.2743
15841TIP3    H268939   6.092   6.481   4.536 -0.6156 -1.9510  0.7837
15842TIP3   OH268940   5.842   2.858  10.678 -0.2833  0.0707  0.4478
15842TIP3    H168941   5.884   2.808  10.748  0.7631  0.3874  0.0631
15842TIP3    H268942   5.872   2.817  10.597 -1.1094  0.0030  0.1618
15843TIP3   OH268943   2.235   3.769  12.153  0.1625  0.0717 -0.0635
15843TIP3    H168944   2.164   3.742  12.095  0.8564  0.3789 -1.0848
15843TIP3    H268945   2.288   3.829  12.100  0.6791  0.5685  0.9735
15844TIP3   OH268946   2.946   2.635   1.353 -0.6391 -0.2599  0.0085
15844TIP3    H168947   2.951   2.700   1.424 -0.7787  0.0376 -0.2520
15844TIP3    H268948   2.858   2.645   1.317 -0.6021 -0.4774 -0.1456
15845TIP3   OH268949   5.781   4.362  14.047 -0.0236 -0.1029  0.1196
15845TIP3    H168950   5.797   4.383  13.955 -0.0964  1.1767  0.3884
15845TIP3    H268951   5.734   4.278  14.045  1.6458 -1.0561 -0.9145
15846TIP3   OH268952   5.979   5.976  16.482  0.3965  0.0481 -0.3176
15846TIP3    H168953   5.965   5.960  16.388  0.9709 -1.2766 -0.1919
15846TIP3    H268954   6.063   5.934  16.501  0.1400  0.0480  0.8597
15847TIP3   OH268955   2.332   4.016  15.907  0.3187 -0.1088 -0.0822
15847TIP3    H168956   2.357   3.980  15.822 -0.7405  0.9507 -0.8760
15847TIP3    H268957   2.393   4.088  15.921 -0.8448  1.1000 -1.0007
15848TIP3   OH268958   1.265   4.791  13.889  0.1301  0.5969  0.3303
15848TIP3    H168959   1.201   4.794  13.817 -0.2876 -0.6025  0.6234
15848TIP3    H268960   1.318   4.714  13.870  0.6486  0.8399  0.7905
15849TIP3   OH268961   3.930   0.082   3.513 -0.7887 -0.2236  0.5070
15849TIP3    H168962   3.878   0.142   3.566 -0.6098  0.3861  0.0049
15849TIP3    H268963   3.911  -0.004   3.548 -2.7107 -0.0980 -0.1413
15850TIP3   OH268964   0.696   3.656  13.788  0.0582 -0.6633 -0.3835
15850TIP3    H168965   0.671   3.729  13.846  1.0105 -0.0800 -0.6715
15850TIP3    H268966   0.616   3.634  13.741 -0.1973  0.3713 -0.4637
15851TIP3   OH268967   2.920   1.709   3.183 -0.1485 -0.4816 -0.4635
15851TIP3    H168968   2.950   1.728   3.272 -2.2100  1.3523 -0.0639
15851TIP3    H268969   2.885   1.620   3.189 -1.2546 -0.0044  0.8947
15852TIP3   OH268970   2.308   2.565   4.552 -0.6189 -0.5680 -0.2333
15852TIP3    H168971   2.343   2.640   4.504 -0.2804 -1.0071 -0.6900
15852TIP3    H268972   2.366   2.555   4.627 -0.8086 -0.2283 -0.0390
15853TIP3   OH268973   1.074   3.496   6.552 -0.7783 -0.1934  0.2337
15853TIP3    H168974   1.126   3.565   6.591 -0.4910 -0.1024 -0.3044
15853TIP3    H268975   0.998   3.487   6.610 -0.1936 -0.2974  0.9972
15854TIP3   OH268976   1.619   3.435   6.467  0.4813 -0.5653  0.0724
15854TIP3    H168977   1.686   3.504   6.462 -0.3794  0.2357 -0.7225
15854TIP3    H268978   1.557   3.466   6.533 -0.2884 -0.2165 -0.7933
15855TIP3   OH268979   6.271   4.355   4.741 -0.0952 -0.4537  0.3173
15855TIP3    H168980   6.218   4.433   4.729 -1.2259 -0.9511  1.7718
15855TIP3    H268981   6.214   4.293   4.787  0.2899 -2.6874 -1.9333
15856TIP3   OH268982   2.177   5.423   2.666  0.1167 -0.4935  0.1555
15856TIP3    H168983   2.102   5.483   2.670 -0.2635 -0.9098 -0.4866
15856TIP3    H268984   2.171   5.372   2.746 -1.3301 -1.7183 -0.6700
15857TIP3   OH268985   6.542   0.963  14.101 -0.2619 -0.1220  0.0873
15857TIP3    H168986   6.451   0.962  14.073  0.1894  0.3021 -1.4918
15857TIP3    H268987   6.577   0.878  14.073  0.3142  0.4897 -1.1529
15858TIP3   OH268988   3.683   1.044   1.094 -0.5495 -0.1276  0.3657
15858TIP3    H168989   3.619   1.100   1.051  1.3041  0.1018 -2.3318
15858TIP3    H268990   3.697   1.084   1.180 -2.8452  0.6622  0.4241
15859TIP3   OH268991   5.428   6.419  15.953 -0.2715 -0.0067 -0.0541
15859TIP3    H168992   5.427   6.337  16.002 -0.7674  0.2251  0.3300
15859TIP3    H268993   5.461   6.394  15.867 -1.2191 -0.7788 -0.2243
15860TIP3   OH268994   1.253   6.033   5.947  0.3141  0.2383  0.7380
15860TIP3    H168995   1.229   5.947   5.980  2.1500 -0.9952 -0.8612
15860TIP3    H268996   1.253   6.023   5.851  0.3366  2.0979  0.4950
15861TIP3   OH268997   2.189   3.299   0.505 -0.3230  0.0754 -0.0502
15861TIP3    H168998   2.097   3.283   0.528  0.2270 -1.2395  1.5274
15861TIP3    H268999   2.223   3.211   0.486  0.3655  0.6757 -1.7363
15862TIP3   OH269000   3.643   6.210  14.090  0.1220  0.2626  0.1913
15862TIP3    H169001   3.688   6.168  14.017  1.9428  1.7290  0.3898
15862TIP3    H269002   3.647   6.303  14.071 -2.8325  0.5105  0.3005
15863TIP3   OH269003   2.304   0.778  11.280  0.3203 -0.0949  0.2335
15863TIP3    H169004   2.370   0.773  11.349  0.2261 -0.5732  0.2897
15863TIP3    H269005   2.243   0.706  11.299 -0.5322  0.6828  0.5038
15864TIP3   OH269006   1.034   1.418   3.592 -0.3802 -0.8132  0.8059
15864TIP3    H169007   1.049   1.346   3.654  0.9225 -1.2055  0.0769
15864TIP3    H269008   1.087   1.395   3.516 -1.6315 -0.1426 -0.3164
15865TIP3   OH269009   4.051   0.733   3.234 -0.0645  0.2873  0.2837
15865TIP3    H169010   4.072   0.645   3.204 -1.0909  0.5260 -1.2613
15865TIP3    H269011   4.017   0.722   3.323  1.4011 -0.6647  0.7453
15866TIP3   OH269012   3.732   0.293  17.057 -0.3173 -0.7011 -0.1779
15866TIP3    H169013   3.663   0.286  16.991 -1.2086 -0.4964  0.7082
15866TIP3    H269014   3.813   0.283  17.007 -0.9835 -1.2846 -1.1976
15867TIP3   OH269015   0.607   3.975  12.097  0.4679 -0.4282  0.0543
15867TIP3    H169016   0.561   3.893  12.119  0.6233 -1.2198 -2.2733
15867TIP3    H269017   0.694   3.965  12.137 -0.5749  0.1339  2.6414
15868TIP3   OH269018   6.423   0.757  16.978  0.8658  0.2994 -0.0175
15868TIP3    H169019   6.438   0.664  16.994 -0.0938  0.4246  1.7856
15868TIP3    H269020   6.331   0.763  16.951  0.4646  0.8621  1.3872
15869TIP3   OH269021   3.975   6.602  15.142  0.2807 -0.0800 -0.5127
15869TIP3    H169022   3.906   6.539  15.162  1.3884 -1.2604 -0.3022
15869TIP3    H269023   3.934   6.688  15.159 -0.9449 -0.7624  0.1552
15870TIP3   OH269024   1.859   6.172   1.104 -0.1217  0.2788  0.3508
15870TIP3    H169025   1.876   6.087   1.064  1.0148  0.0268  1.3137
15870TIP3    H269026   1.924   6.230   1.064 -1.7847  1.0940 -1.3682
15871TIP3   OH269027   4.586   2.433   5.153  0.0155 -0.4574  0.4001
15871TIP3    H169028   4.643   2.385   5.094  0.2619 -1.3723  1.3583
15871TIP3    H269029   4.521   2.475   5.096  2.4565  1.8693 -0.8986
15872TIP3   OH269030   2.646   1.959  16.490  0.1609  0.1238 -0.8820
15872TIP3    H169031   2.622   1.953  16.397  0.6443 -0.3163 -0.9856
15872TIP3    H269032   2.734   1.998  16.489 -0.2902  1.1657 -0.5452
15873TIP3   OH269033   2.113   0.237   4.567  0.2798 -0.2248  0.3166
15873TIP3    H169034   2.064   0.158   4.590 -0.8281 -0.7578 -3.3195
15873TIP3    H269035   2.199   0.205   4.539 -0.1865 -0.2058 -1.2065
15874TIP3   OH269036   0.301   5.027  10.545 -0.8139 -0.2688 -0.3317
15874TIP3    H169037   0.274   5.118  10.538 -0.2413 -0.0298  0.4295
15874TIP3    H269038   0.386   5.024  10.501  0.6878  0.2863  2.3409
15875TIP3   OH269039   3.759   3.206  14.199 -0.0398 -0.3953  0.3491
15875TIP3    H169040   3.805   3.287  14.222  0.8751 -1.2325  1.6141
15875TIP3    H269041   3.802   3.138  14.251 -0.4520 -1.7965 -1.0653
15876TIP3   OH269042   4.557   3.774   2.427 -0.1246  0.3274  0.1231
15876TIP3    H169043   4.519   3.832   2.494  0.9942 -0.8839  1.9031
15876TIP3    H269044   4.631   3.733   2.471 -0.0606 -1.4188 -1.5064
15877TIP3   OH269045   5.655   3.232  15.725 -0.5313  0.3880 -0.3824
15877TIP3    H169046   5.614   3.158  15.682 -2.0191  0.8275  0.2137
15877TIP3    H269047   5.669   3.203  15.815 -2.7922  1.3460  0.3682
15878TIP3   OH269048   4.464   2.805   3.772  0.7338 -0.6507  0.5825
15878TIP3    H169049   4.396   2.829   3.709  0.6604 -0.9305  0.5532
15878TIP3    H269050   4.433   2.839   3.856  1.2781  0.5608  0.3091
15879TIP3   OH269051   3.566   5.740   0.152 -0.2271  0.2723 -0.0279
15879TIP3    H169052   3.638   5.746   0.214 -1.1846  2.1112  1.0182
15879TIP3    H269053   3.579   5.814   0.092 -1.0619  0.4587 -0.0019
15880TIP3   OH269054   5.676   5.637   2.298  0.1445 -0.3661 -0.1733
15880TIP3    H169055   5.689   5.677   2.384 -0.6967 -1.8163  0.6574
15880TIP3    H269056   5.758   5.652   2.252  0.8047 -0.0202  1.0705
15881TIP3   OH269057   3.685   1.642   5.164  0.0146  0.2832  0.1566
15881TIP3    H169058   3.621   1.711   5.179 -0.0248  0.6578 -1.5203
15881TIP3    H269059   3.770   1.684   5.175  0.0038  0.0560  1.2540
15882TIP3   OH269060   0.610   0.716  11.672 -0.4091 -0.0565  0.5700
15882TIP3    H169061   0.668   0.675  11.608 -0.2447  0.3196  0.4783
15882TIP3    H269062   0.663   0.720  11.752  0.2419  1.6856  0.0834
15883TIP3   OH269063   2.934   4.195   3.932  0.4134  0.0610 -0.1108
15883TIP3    H169064   2.977   4.258   3.874  0.3075 -1.5412 -2.0393
15883TIP3    H269065   3.005   4.140   3.965  0.3141  0.1044  0.1782
15884TIP3   OH269066   4.751   3.132   3.994  0.2261 -0.6326 -0.5355
15884TIP3    H169067   4.816   3.129   4.064 -1.0827 -0.7970  0.7212
15884TIP3    H269068   4.788   3.078   3.924  1.9815  0.2979 -0.3596
15885TIP3   OH269069   0.191   4.249   4.433  0.3042  0.2524  0.2606
15885TIP3    H169070   0.183   4.174   4.492  1.0455  0.4617  0.6442
15885TIP3    H269071   0.128   4.313   4.467 -1.0548 -0.5494 -0.6604
15886TIP3   OH269072   1.972   6.425  12.925 -0.4851  0.0851 -0.0032
15886TIP3    H169073   1.890   6.399  12.967 -1.4606  1.9584 -0.6594
15886TIP3    H269074   2.037   6.364  12.960 -1.9357 -0.7153  1.4114
15887TIP3   OH269075   3.474   2.041   1.525 -0.0827  0.1366 -0.3591
15887TIP3    H169076   3.483   2.088   1.443 -0.5760  1.1055  0.1249
15887TIP3    H269077   3.553   2.063   1.575  1.9165 -3.0500 -1.7667
15888TIP3   OH269078   3.527   6.012  14.783  0.3870 -0.2246 -0.2188
15888TIP3    H169079   3.455   5.961  14.747  0.5795 -0.1300 -0.7524
15888TIP3    H269080   3.485   6.078  14.839  0.1377 -0.9593  0.4682
15889TIP3   OH269081   5.725   2.534   4.209 -0.9396  0.2396 -0.2720
15889TIP3    H169082   5.676   2.465   4.164  0.4444 -0.2352 -1.1021
15889TIP3    H269083   5.740   2.601   4.142  0.3857 -0.0781 -0.3209
15890TIP3   OH269084   0.118   1.087  16.086  0.0831 -0.3673  0.4806
15890TIP3    H169085   0.027   1.100  16.114 -0.3372  3.4480 -1.9705
15890TIP3    H269086   0.112   1.071  15.992  1.9680  0.6275  0.1611
15891TIP3   OH269087   1.526   1.251  12.457  0.1766  0.1837 -0.2727
15891TIP3    H169088   1.570   1.318  12.509 -0.6757  0.3257  0.2888
15891TIP3    H269089   1.558   1.265  12.368 -1.1695  2.4126 -0.4870
15892TIP3   OH269090   5.753   0.098   3.922 -0.0078 -0.0735  0.2398
15892TIP3    H169091   5.780   0.009   3.899 -0.6185 -0.4478  0.9306
15892TIP3    H269092   5.798   0.154   3.859  0.4506 -0.8653 -0.1478
15893TIP3   OH269093   2.852   5.057  16.574  0.7138  0.1861 -0.0329
15893TIP3    H169094   2.857   4.964  16.551  2.4542 -0.4238  2.4779
15893TIP3    H269095   2.759   5.071  16.594  0.3491 -0.8665 -0.8406
15894TIP3   OH269096   0.637   3.464   2.972  0.6965  0.3748 -0.2588
15894TIP3    H169097   0.695   3.415   2.914  1.5842  1.1093 -0.0186
15894TIP3    H269098   0.626   3.549   2.928  1.6682  1.0723  0.7952
15895TIP3   OH269099   6.204   0.811   4.950  0.3215  0.0034 -0.1197
15895TIP3    H169100   6.168   0.731   4.912 -0.9050 -0.2921  1.5385
15895TIP3    H269101   6.128   0.859   4.981  0.9886  2.1069 -1.5339
15896TIP3   OH269102   3.706   2.224  15.048 -0.4309 -0.1158  0.8643
15896TIP3    H169103   3.694   2.279  14.970  1.3977 -1.7417 -0.6679
15896TIP3    H269104   3.800   2.207  15.050 -0.7539 -1.9717  2.1345
15897TIP3   OH269105   1.239   2.136  11.611  0.3197 -0.2591  0.1029
15897TIP3    H169106   1.297   2.211  11.598 -1.3579  0.9111 -1.1465
15897TIP3    H269107   1.269   2.072  11.547 -0.5976  0.9190 -1.5944
15898TIP3   OH269108   0.330   3.371  13.572  0.2616 -0.6772 -0.1839
15898TIP3    H169109   0.329   3.292  13.627  1.0610 -0.8371 -0.3869
15898TIP3    H269110   0.245   3.370  13.528 -0.9190  0.0876  1.9092
15899TIP3   OH269111   5.281   0.836  13.738 -0.3844 -0.5357 -0.1853
15899TIP3    H169112   5.332   0.812  13.815  2.2017  2.2630 -0.8410
15899TIP3    H269113   5.344   0.875  13.678 -3.0222  1.7469 -1.7426
15900TIP3   OH269114   1.159   6.653   0.280  0.2555 -0.1395  0.1190
15900TIP3    H169115   1.227   6.720   0.283  0.0908  0.1432 -1.5897
15900TIP3    H269116   1.156   6.626   0.188 -1.6691 -0.4281  0.2360
15901TIP3   OH269117   2.018   6.594   4.612 -0.3407  0.3394  0.2945
15901TIP3    H169118   2.041   6.655   4.542  2.6926 -0.9428  0.0152
15901TIP3    H269119   1.925   6.610   4.628 -0.9034  1.4651 -3.2119
15902TIP3   OH269120   4.479   5.488   5.296 -0.0567 -0.0613  0.0495
15902TIP3    H169121   4.410   5.460   5.356 -0.6016 -0.0514 -0.5539
15902TIP3    H269122   4.471   5.430   5.221  0.1669  0.3573 -0.3069
15903TIP3   OH269123   2.819   3.500   5.923  0.3925 -0.1803  0.6154
15903TIP3    H169124   2.825   3.594   5.908 -0.5785 -0.1538  0.2971
15903TIP3    H269125   2.748   3.491   5.987 -0.3492 -0.7700 -0.2712
15904TIP3   OH269126   0.812   0.904  13.491 -0.1653  0.0976  0.3543
15904TIP3    H169127   0.832   0.950  13.409  1.0801  2.2510  1.7763
15904TIP3    H269128   0.720   0.922  13.506  0.0805  1.4002  0.4104
15905TIP3   OH269129   5.717   0.763   3.376  0.4180  0.0144 -0.2659
15905TIP3    H169130   5.790   0.730   3.325  0.7607  1.5490 -0.8293
15905TIP3    H269131   5.640   0.723   3.337  0.9337 -2.0020  0.6432
15906TIP3   OH269132   5.442   3.136  12.064 -0.3677  0.7676 -0.2774
15906TIP3    H169133   5.532   3.106  12.048 -0.6695 -0.0647 -0.4548
15906TIP3    H269134   5.387   3.066  12.030 -1.0934 -0.2863  2.7473
15907TIP3   OH269135   3.075   2.528  11.243 -0.2166  0.5079  0.8902
15907TIP3    H169136   3.152   2.568  11.203 -0.8858 -0.4560 -1.5016
15907TIP3    H269137   3.059   2.449  11.192 -1.7209 -0.3156  2.5152
15908TIP3   OH269138   2.344   5.633  13.221  0.1645 -0.2015  0.1854
15908TIP3    H169139   2.428   5.679  13.226  0.4919 -0.7563 -0.0959
15908TIP3    H269140   2.367   5.541  13.223 -0.2478 -0.4312 -2.1426
15909TIP3   OH269141   1.978   3.529   5.035  0.3799 -0.5597 -0.1550
15909TIP3    H169142   2.016   3.487   5.113  1.5932 -1.0642 -0.9692
15909TIP3    H269143   1.971   3.621   5.058  0.6339 -0.7197  0.5921
15910TIP3   OH269144   0.906   5.560   2.377  0.2223  0.0623  0.1819
15910TIP3    H169145   0.841   5.516   2.322 -0.3603 -0.0475  0.9297
15910TIP3    H269146   0.929   5.495   2.444  1.8586 -0.2447 -0.6412
15911TIP3   OH269147   0.662   5.499   3.342 -0.0703 -0.2673  0.3258
15911TIP3    H169148   0.730   5.516   3.278 -0.3896 -1.9719 -0.5371
15911TIP3    H269149   0.628   5.585   3.366  1.0620  0.4815 -0.6855
15912TIP3   OH269150   3.444   6.406   1.240  0.0899  0.2654 -0.1897
15912TIP3    H169151   3.520   6.435   1.290 -0.2587  0.0362  0.4862
15912TIP3    H269152   3.369   6.441   1.288 -0.2451  0.2563 -0.6960
15913TIP3   OH269153   4.560   4.397   1.324  0.4460  0.1629  0.0320
15913TIP3    H169154   4.532   4.315   1.365 -0.5044  0.3927 -0.1369
15913TIP3    H269155   4.636   4.373   1.272 -0.1735 -0.7326 -0.4888
15914TIP3   OH269156   0.817   5.831   0.795 -0.0968  0.1910 -0.9434
15914TIP3    H169157   0.789   5.786   0.715  0.6993 -1.2846 -0.4345
15914TIP3    H269158   0.750   5.809   0.860  0.9072 -1.3685 -0.3643
15915TIP3   OH269159   6.547   6.616   4.141 -0.0923  0.1800 -0.5425
15915TIP3    H169160   6.577   6.671   4.068 -0.0689  0.9011 -0.0069
15915TIP3    H269161   6.452   6.627   4.141  0.0638  2.0589  0.9401
15916TIP3   OH269162   5.408   1.934  11.430  0.6678  0.3368  0.1220
15916TIP3    H169163   5.360   1.967  11.506 -0.0888 -0.2904 -0.0643
15916TIP3    H269164   5.342   1.932  11.360  0.9776 -0.4738 -0.1570
15917TIP3   OH269165   0.077   3.344  12.111 -0.2496  0.6509  0.0954
15917TIP3    H169166   0.076   3.385  12.025 -1.9278  0.5345  0.0406
15917TIP3    H269167   0.119   3.259  12.098 -0.8810  0.4554 -0.6970
15918TIP3   OH269168   1.481   6.720  15.194  1.0154 -0.4658 -0.7993
15918TIP3    H169169   1.474   6.634  15.151 -0.7636 -0.7870  0.0546
15918TIP3    H269170   1.500   6.699  15.285  1.0598  0.0682 -0.6858
15919TIP3   OH269171   1.515   3.941  16.789  0.3364 -0.0559 -0.0360
15919TIP3    H169172   1.477   4.007  16.732 -1.1248 -0.4238  0.4557
15919TIP3    H269173   1.479   3.858  16.758  2.0992 -0.6445 -0.6082
15920TIP3   OH269174   1.145   3.493   2.556  0.1709 -0.0805  0.1256
15920TIP3    H169175   1.209   3.466   2.621  0.5337  0.7202  0.1097
15920TIP3    H269176   1.182   3.463   2.473  0.0023 -0.5632  0.2219
15921TIP3   OH269177   2.600   3.702  11.491  0.3362 -0.6836 -0.3861
15921TIP3    H169178   2.630   3.687  11.581 -0.1622  1.4209  0.1850
15921TIP3    H269179   2.679   3.701  11.438  0.5304 -3.1128 -0.1646
15922TIP3   OH269180   6.295   3.534   1.761  0.2228  0.1176 -0.2422
15922TIP3    H169181   6.331   3.570   1.680  0.3105  1.5010  0.3935
15922TIP3    H269182   6.358   3.558   1.829 -0.6732  0.4267  0.5036
15923TIP3   OH269183   1.216   5.127  17.007  0.0136 -0.3837  0.0727
15923TIP3    H169184   1.154   5.080  17.062 -1.3989  2.0032  0.6514
15923TIP3    H269185   1.257   5.190  17.065  0.5810  0.2728 -1.0039
15924TIP3   OH269186   5.292   0.100  14.918  0.1962  0.0981 -0.0340
15924TIP3    H169187   5.287   0.119  15.012 -0.9645 -3.2155  0.7119
15924TIP3    H269188   5.378   0.060  14.906 -0.5768 -1.7962  0.2437
15925TIP3   OH269189   4.431   0.802  14.976 -0.5568 -0.0399 -0.1987
15925TIP3    H169190   4.350   0.822  15.022 -0.2196 -1.2423  0.9828
15925TIP3    H269191   4.441   0.708  14.984  1.0249  0.0890 -0.1811
15926TIP3   OH269192   4.615   5.407  11.715  0.6551 -0.0002 -0.4224
15926TIP3    H169193   4.627   5.444  11.803 -2.3985  0.5332 -0.1218
15926TIP3    H269194   4.608   5.313  11.729  1.6650 -0.0687 -0.3155
15927TIP3   OH269195   0.384   2.041   5.184  0.0688 -0.4827 -0.3783
15927TIP3    H169196   0.359   1.988   5.108 -0.8591  0.8129 -1.0169
15927TIP3    H269197   0.471   2.009   5.208 -0.0056 -1.5340 -1.4141
15928TIP3   OH269198   0.579   6.437  15.771 -0.0254 -0.1484  0.5032
15928TIP3    H169199   0.650   6.500  15.787  0.2901 -0.6022  0.9152
15928TIP3    H269200   0.504   6.475  15.817  0.2115 -0.1572  0.9019
15929TIP3   OH269201   5.489   1.906   0.717 -0.1754 -0.2474  0.2494
15929TIP3    H169202   5.468   1.870   0.630  1.1055  1.4388 -0.8079
15929TIP3    H269203   5.419   1.969   0.733 -0.4169 -0.5653  0.4647
15930TIP3   OH269204   2.921   6.069   5.893  0.1933 -0.3575  0.0128
15930TIP3    H169205   3.006   6.057   5.850 -0.0157  0.0974 -0.5392
15930TIP3    H269206   2.883   6.145   5.850 -0.3763 -0.3868  0.4536
15931TIP3   OH269207   4.830   0.275   1.914  0.1267 -0.3057  0.7558
15931TIP3    H169208   4.848   0.346   1.852  0.2722 -0.1654  0.9595
15931TIP3    H269209   4.772   0.313   1.979 -2.8463 -1.3106 -1.0771
15932TIP3   OH269210   3.722   6.116   5.510  0.3241  0.1448  0.0094
15932TIP3    H169211   3.725   6.197   5.458  0.8461 -0.6645 -1.2533
15932TIP3    H269212   3.631   6.086   5.502 -0.3860  1.5134  1.9928
15933TIP3   OH269213   0.873   0.398  16.987 -0.3496  0.1649 -0.0168
15933TIP3    H169214   0.902   0.347  17.062 -1.2762  0.5056  0.5947
15933TIP3    H269215   0.830   0.475  17.026 -0.5123  0.5330 -0.8982
15934TIP3   OH269216   0.942   2.315   4.390  0.4708 -0.1725 -0.0247
15934TIP3    H169217   0.895   2.380   4.441 -0.1992  0.5288 -1.4637
15934TIP3    H269218   1.012   2.284   4.448 -0.8813 -0.2054  1.6510
15935TIP3   OH269219   5.966   1.395  13.288  0.0515 -0.1389  0.3199
15935TIP3    H169220   6.049   1.377  13.244 -0.9102  2.1963 -2.8213
15935TIP3    H269221   5.912   1.318  13.271  1.0502 -1.0608  1.1749
15936TIP3   OH269222   1.688   1.444   0.215 -0.1812 -0.1278  0.0988
15936TIP3    H169223   1.670   1.414   0.126  0.8968  0.3253 -0.2974
15936TIP3    H269224   1.765   1.394   0.242  1.8026  2.2947 -0.6656
15937TIP3   OH269225   0.995   0.900  17.239  0.2500  0.1884  0.3005
15937TIP3    H169226   1.019   0.977  17.290  2.1621  0.7574 -1.3294
15937TIP3    H269227   0.995   0.828  17.302  1.2521  1.0764  1.3447
15938TIP3   OH269228   3.800   5.339  14.303  0.2772  0.5783  0.0673
15938TIP3    H169229   3.886   5.327  14.344 -0.1612 -2.0167  0.3883
15938TIP3    H269230   3.819   5.386  14.222  2.1060 -0.4167 -0.1407
15939TIP3   OH269231   4.603   5.841   4.844  0.4568 -0.4634 -0.2198
15939TIP3    H169232   4.629   5.761   4.890  1.2388 -1.3291 -2.0673
15939TIP3    H269233   4.530   5.813   4.788  1.3344 -0.1323 -1.5641
15940TIP3   OH269234   1.767   1.041  14.918  0.4898  0.5886 -0.4835
15940TIP3    H169235   1.760   1.002  14.831  0.2496  1.4111 -0.8481
15940TIP3    H269236   1.711   1.119  14.913  1.6454  1.4621 -0.0612
15941TIP3   OH269237   1.522   4.953  14.676  0.2721 -0.1639  0.4427
15941TIP3    H169238   1.474   5.033  14.655  0.7951  0.1701  0.5097
15941TIP3    H269239   1.500   4.893  14.604 -0.5613 -0.1564  0.6890
15942TIP3   OH269240   1.506   6.638   4.645 -0.7091  0.0277  0.2553
15942TIP3    H169241   1.588   6.683   4.667 -0.1418  1.3402 -3.7090
15942TIP3    H269242   1.520   6.548   4.676  1.7111  0.5187  0.8408
15943TIP3   OH269243   4.321   6.194  16.062 -0.1916 -0.4583  0.0840
15943TIP3    H169244   4.389   6.146  16.015  0.3511 -0.8136  1.1977
15943TIP3    H269245   4.250   6.130  16.073  0.0951 -0.6908  0.6241
15944TIP3   OH269246   3.992   6.602  16.303  0.1792 -0.0449 -0.4916
15944TIP3    H169247   3.912   6.551  16.317  0.4377 -0.0544  1.2119
15944TIP3    H269248   4.027   6.570  16.220 -1.1169 -0.6663 -0.8259
15945TIP3   OH269249   1.647   2.755  16.023 -0.1356  0.0126  1.2329
15945TIP3    H169250   1.707   2.684  16.045 -0.8310 -0.5406  1.3752
15945TIP3    H269251   1.614   2.786  16.107 -1.5474 -1.0158  1.0963
15946TIP3   OH269252   5.335   4.327  13.300  0.0339  0.9066 -0.2682
15946TIP3    H169253   5.284   4.288  13.371  1.2501  0.1854  0.2413
15946TIP3    H269254   5.308   4.279  13.222 -1.2780  1.6721 -0.3003
15947TIP3   OH269255   5.098   6.065   1.197  0.2044  0.0139 -0.0113
15947TIP3    H169256   5.188   6.062   1.230 -0.4314  1.8534  2.0525
15947TIP3    H269257   5.099   6.134   1.130  0.3480 -0.1048 -0.1343
15948TIP3   OH269258   5.917   2.025  13.664  0.0133  0.1665 -0.0215
15948TIP3    H169259   6.008   2.050  13.675 -0.0479  0.0193  0.8325
15948TIP3    H269260   5.910   2.003  13.571  0.1525  2.9595 -0.7836
15949TIP3   OH269261   3.999   3.441  15.689 -0.0227 -0.4965  0.2637
15949TIP3    H169262   3.912   3.457  15.653  0.3954  2.1178  0.2189
15949TIP3    H269263   4.053   3.417  15.614 -0.2818 -0.0809 -0.0627
15950TIP3   OH269264   3.153   1.787   5.958  0.1277  0.5081 -0.2325
15950TIP3    H169265   3.143   1.789   6.053 -1.7306 -0.5692 -0.3569
15950TIP3    H269266   3.219   1.854   5.940  1.4564 -0.1323  1.9022
15951TIP3   OH269267   2.658   4.969   4.996 -0.2840 -0.3940  0.1559
15951TIP3    H169268   2.721   5.040   4.984 -0.7078  0.0555  0.5577
15951TIP3    H269269   2.668   4.915   4.918  2.2854 -1.6820  1.2538
15952TIP3   OH269270   0.124   1.761   4.830  0.7109 -0.1629 -0.4679
15952TIP3    H169271   0.059   1.821   4.866 -0.0929 -0.6027 -1.1540
15952TIP3    H269272   0.138   1.696   4.899 -0.4142 -0.6882 -0.7057
15953TIP3   OH269273   5.843   2.528   4.897  0.1782 -0.0999 -0.3078
15953TIP3    H169274   5.901   2.515   4.972  1.1853  1.1406 -0.8288
15953TIP3    H269275   5.758   2.494   4.926  0.8349 -0.7569  0.9446
15954TIP3   OH269276   0.243   2.674  12.331  0.3040  0.4228 -0.1444
15954TIP3    H169277   0.243   2.622  12.251 -0.4281  0.5250 -0.2208
15954TIP3    H269278   0.156   2.658  12.370  0.4902  0.7051  0.4074
15955TIP3   OH269279   0.503   4.366   5.968 -0.2712 -0.4726 -0.1637
15955TIP3    H169280   0.446   4.432   6.007  0.1391  0.3480 -0.9180
15955TIP3    H269281   0.481   4.285   6.014 -0.5837  0.2361  0.9890
15956TIP3   OH269282   6.663   0.476   5.185  0.1324  0.6175  0.2379
15956TIP3    H169283   6.699   0.556   5.146  1.0656 -0.9882 -2.4699
15956TIP3    H269284   6.715   0.461   5.264  3.1188  0.3367 -1.6170
15957TIP3   OH269285   3.613   6.643   6.725  0.2622  0.3033  0.6370
15957TIP3    H169286   3.613   6.712   6.658 -0.8133  3.0082  3.2085
15957TIP3    H269287   3.584   6.564   6.678 -0.4855  2.0233 -2.0397
15958TIP3   OH269288   1.913   0.014  16.108  0.8989 -0.6711  0.2072
15958TIP3    H169289   1.970  -0.027  16.043  0.2352  1.2590 -1.6904
15958TIP3    H269290   1.835   0.041  16.059 -0.1410 -0.1368  2.0419
15959TIP3   OH269291   1.228   5.949   3.508 -0.4699  0.1916 -0.0598
15959TIP3    H169292   1.176   5.876   3.472 -2.0770  1.3293 -0.1355
15959TIP3    H269293   1.297   5.962   3.443  0.3240 -1.7412  0.3280
15960TIP3   OH269294   0.422   3.143  10.343 -0.6947  0.3511  0.1070
15960TIP3    H169295   0.373   3.183  10.414 -0.3767  0.4953  0.2482
15960TIP3    H269296   0.462   3.065  10.382  0.7629  1.2743  0.5144
15961TIP3   OH269297   2.045   1.110   0.546 -0.0281  0.6752  0.0235
15961TIP3    H169298   2.021   1.193   0.505 -1.3714  1.1760  1.7459
15961TIP3    H269299   2.061   1.132   0.638 -1.1278 -1.0669  0.6796
15962TIP3   OH269300   4.998   0.167  14.200 -0.5188 -0.0796 -0.2742
15962TIP3    H169301   5.001   0.097  14.265  0.3093  0.6859  0.5494
15962TIP3    H269302   4.905   0.188  14.193 -0.6967 -0.7122  0.0769
15963TIP3   OH269303   5.730   4.005  10.872 -0.3880 -0.3356 -0.2737
15963TIP3    H169304   5.727   3.932  10.934 -2.4245 -1.3564 -1.4435
15963TIP3    H269305   5.822   4.015  10.852  0.2019 -0.8656  1.8592
15964TIP3   OH269306   1.465   2.205   5.110  0.5701 -0.0099 -0.4120
15964TIP3    H169307   1.380   2.225   5.149  0.6072  0.2568 -0.4649
15964TIP3    H269308   1.529   2.244   5.171  0.6006  1.1879 -1.1799
15965TIP3   OH269309   3.760   1.427  11.804  0.2046 -0.5636  0.1440
15965TIP3    H169310   3.704   1.360  11.842 -0.9895 -0.0453 -0.6250
15965TIP3    H269311   3.718   1.450  11.721  2.0003 -0.7221 -0.8810
15966TIP3   OH269312   0.557   5.045   6.035 -0.3512 -0.3088 -0.5974
15966TIP3    H169313   0.476   5.008   6.069  0.9769 -0.8961  2.1904
15966TIP3    H269314   0.591   5.099   6.106  2.4786 -1.3552 -1.0241
15967TIP3   OH269315   3.256   5.911   4.013 -0.8496  0.0323  0.7522
15967TIP3    H169316   3.254   5.861   3.931  0.5442 -0.8323  1.2234
15967TIP3    H269317   3.164   5.936   4.027 -0.7769  3.2894 -2.8801
15968TIP3   OH269318   2.574   5.407   1.465 -0.0815  0.0939  0.9507
15968TIP3    H169319   2.611   5.375   1.547  0.4556 -1.2315  0.2252
15968TIP3    H269320   2.552   5.328   1.416 -2.1195  0.8463  0.5533
15969TIP3   OH269321   4.706   3.338  17.253 -0.5043  0.4016 -0.1449
15969TIP3    H169322   4.732   3.250  17.279 -2.2197  0.2581  1.3303
15969TIP3    H269323   4.716   3.340  17.158  1.3323 -0.7311 -0.0216
15970TIP3   OH269324   1.097   2.061   2.964 -0.2849 -0.2615 -0.1539
15970TIP3    H169325   1.175   2.083   3.015  0.1497  0.9002 -1.2688
15970TIP3    H269326   1.130   2.008   2.892 -0.7840 -1.1763  0.2650
15971TIP3   OH269327   1.231   6.251   3.401 -0.0385  0.6135  0.4240
15971TIP3    H169328   1.267   6.166   3.373  0.9202  1.4688 -1.0335
15971TIP3    H269329   1.152   6.227   3.450  0.4919 -1.1534  0.5077
15972TIP3   OH269330   5.838   0.953   3.052  0.0469  0.0451 -0.4192
15972TIP3    H169331   5.745   0.952   3.073  0.2157 -0.0497  0.3438
15972TIP3    H269332   5.867   1.041   3.076  0.1497  0.0868 -0.6893
15973TIP3   OH269333   3.822   2.251   3.365 -0.5602 -0.3449 -0.2579
15973TIP3    H169334   3.855   2.189   3.300  0.7086  0.8013 -0.7463
15973TIP3    H269335   3.874   2.232   3.444  2.4620  2.3683 -1.4123
15974TIP3   OH269336   0.695   3.911   5.365 -0.3520 -0.2295 -0.1176
15974TIP3    H169337   0.744   3.830   5.371 -1.0689 -0.7386 -0.8969
15974TIP3    H269338   0.724   3.952   5.283  1.5559  1.3861  1.2549
15975TIP3   OH269339   5.333   6.217   0.044  0.0976 -0.2333  0.2124
15975TIP3    H169340   5.341   6.278   0.118  0.6558  0.3796 -0.3484
15975TIP3    H269341   5.249   6.173   0.059 -0.1411  0.4054  0.8237
15976TIP3   OH269342   6.759   4.732  13.013  0.4248 -0.3936 -0.0803
15976TIP3    H169343   6.765   4.784  13.093 -0.2134 -0.2137 -0.1473
15976TIP3    H269344   6.690   4.774  12.962  2.1527  0.7368 -1.6294
15977TIP3   OH269345   3.535   4.677   5.531 -0.8188 -0.4429  0.6692
15977TIP3    H169346   3.468   4.611   5.550 -0.2730 -0.9346  0.9307
15977TIP3    H269347   3.488   4.760   5.533 -1.4441 -0.7894  0.7306
15978TIP3   OH269348   1.741   5.708  17.051 -0.0522  0.0815  0.1715
15978TIP3    H169349   1.807   5.717  16.982  1.5094  0.8814  1.6801
15978TIP3    H269350   1.705   5.796  17.060  0.4331  0.2044  0.9907
15979TIP3   OH269351   3.479   4.609  12.264  1.1127 -0.0552 -0.5309
15979TIP3    H169352   3.555   4.653  12.226  2.1000 -1.1788  0.0565
15979TIP3    H269353   3.500   4.603  12.357  0.0961 -0.0014 -0.2893
15980TIP3   OH269354   5.818   2.999  16.175  0.0159 -0.1358 -0.2023
15980TIP3    H169355   5.860   2.917  16.150  0.4383 -0.4151  1.3302
15980TIP3    H269356   5.886   3.066  16.163 -0.2425 -0.0300 -1.1767
15981TIP3   OH269357   3.427   1.361  11.671 -0.1885 -0.2412 -0.1670
15981TIP3    H169358   3.441   1.270  11.698  0.7226 -0.0810 -0.0635
15981TIP3    H269359   3.509   1.386  11.629 -0.3587  0.6014 -0.0155
15982TIP3   OH269360   2.774   2.994   6.250 -0.1897  0.3128  0.8301
15982TIP3    H169361   2.701   3.039   6.293  0.2856  1.4001  0.5549
15982TIP3    H269362   2.775   2.907   6.288 -3.4122 -0.7543 -1.1873
15983TIP3   OH269363   4.192   4.011  12.458 -0.5066 -0.4296  0.0669
15983TIP3    H169364   4.263   4.015  12.394 -0.1054 -1.7017  0.4133
15983TIP3    H269365   4.235   4.030  12.542 -0.9990  1.0684  0.0053
15984TIP3   OH269366   3.607   1.105  14.271  0.0800  0.1129  0.3954
15984TIP3    H169367   3.560   1.185  14.246  2.2371  1.1432 -0.6920
15984TIP3    H269368   3.603   1.049  14.194  3.5462  1.7476 -1.2479
15985TIP3   OH269369   6.135   0.999   0.582 -0.3053 -0.6481  0.0890
15985TIP3    H169370   6.051   1.021   0.542 -0.2235 -1.2125 -0.4145
15985TIP3    H269371   6.165   1.080   0.622 -0.4866 -0.1125 -0.8376
15986TIP3   OH269372   2.361   3.525   3.397 -0.0100  0.2345  0.0688
15986TIP3    H169373   2.270   3.506   3.377  0.1168  0.1402 -0.4303
15986TIP3    H269374   2.383   3.600   3.342  0.4432 -0.2410 -0.4127
15987TIP3   OH269375   1.939   5.375   0.343  0.5153 -0.0856 -0.2564
15987TIP3    H169376   2.021   5.376   0.293  0.0434  0.2746 -1.0392
15987TIP3    H269377   1.889   5.302   0.305  0.8383 -0.9142  0.8452
15988TIP3   OH269378   0.980   6.370   2.544  0.5549  0.7665 -0.1553
15988TIP3    H169379   1.010   6.279   2.546  0.7110  0.7921 -0.9805
15988TIP3    H269380   0.886   6.365   2.564  0.7127  0.5084  0.5747
15989TIP3   OH269381   6.451   3.753  11.834  0.3535 -0.3865  0.4355
15989TIP3    H169382   6.419   3.818  11.896 -1.0457 -0.2341 -0.4237
15989TIP3    H269383   6.503   3.803  11.771  0.7652 -0.3688  0.7851
15990TIP3   OH269384   6.619   6.686   6.250 -0.0593  0.3126  0.2828
15990TIP3    H169385   6.547   6.748   6.251 -0.2139  0.1318  0.3183
15990TIP3    H269386   6.614   6.640   6.333 -0.1565  0.0096  0.1106
15991TIP3   OH269387   2.883   0.822  12.800  0.1672  0.1096  0.2390
15991TIP3    H169388   2.829   0.814  12.722 -0.9881 -1.4670  1.1428
15991TIP3    H269389   2.825   0.858  12.867  0.5249 -0.5858  0.9389
15992TIP3   OH269390   4.039   1.774   0.551 -0.4334  0.0846 -0.1856
15992TIP3    H169391   3.982   1.723   0.494 -0.2811 -1.6245  1.1295
15992TIP3    H269392   3.987   1.791   0.629  0.6813 -1.2543  0.9195
15993TIP3   OH269393   3.726   4.412   3.649 -0.5830  0.0689 -0.2216
15993TIP3    H169394   3.647   4.411   3.595 -0.2114  0.6819 -0.7937
15993TIP3    H269395   3.703   4.466   3.724 -1.3788 -1.4678  0.7038
15994TIP3   OH269396   2.964   4.009  15.179  0.0451 -0.3516  0.0779
15994TIP3    H169397   2.915   4.061  15.115  0.1933 -0.7943 -0.3993
15994TIP3    H269398   2.952   3.919  15.151  0.0565 -0.5550  0.7200
15995TIP3   OH269399   0.094   6.573   3.824  0.2751  0.0698 -1.1195
15995TIP3    H169400   0.011   6.609   3.792 -1.8102 -2.3426  1.1123
15995TIP3    H269401   0.097   6.485   3.786  1.5835 -0.0526 -0.7585
15996TIP3   OH269402   3.854   2.014  16.150 -0.1427  0.2329  0.4424
15996TIP3    H169403   3.774   2.027  16.099 -0.3800 -1.7755  0.2281
15996TIP3    H269404   3.866   1.919  16.152  2.2448  0.4791  0.4822
15997TIP3   OH269405   6.146   3.992  16.455 -0.1032  0.4091 -0.4525
15997TIP3    H169406   6.190   3.925  16.507  1.2804  1.4011 -0.2897
15997TIP3    H269407   6.064   4.008  16.501 -0.2528 -0.8335 -0.2488
15998TIP3   OH269408   3.496   3.582   5.818  0.1218  0.9585 -0.1205
15998TIP3    H169409   3.429   3.635   5.863 -1.0315  0.8529 -1.6228
15998TIP3    H269410   3.446   3.521   5.764  1.4496 -0.7483  0.5033
15999TIP3   OH269411   0.291   1.364   4.995  0.7268  0.3008  0.4611
15999TIP3    H169412   0.329   1.286   4.954  1.3327  1.5457 -1.4481
15999TIP3    H269413   0.228   1.329   5.059  1.3396 -1.7393  0.0122
16000TIP3   OH269414   2.590   2.462  14.548 -0.5048 -0.2281  0.3144
16000TIP3    H169415   2.602   2.529  14.481 -1.8923 -1.3400 -1.1442
16000TIP3    H269416   2.678   2.439  14.576  0.0223  1.6644  0.3429
16001TIP3   OH269417   0.186   2.574  15.138 -0.1642 -0.2119  0.5357
16001TIP3    H169418   0.113   2.633  15.156  1.2792  2.2236 -0.9606
16001TIP3    H269419   0.239   2.576  15.217  0.2923  1.2638  0.2289
16002TIP3   OH269420   0.181   1.507  16.889 -0.1251 -0.0821 -0.1041
16002TIP3    H169421   0.135   1.423  16.882 -2.8894  1.3542 -0.4557
16002TIP3    H269422   0.245   1.504  16.818 -1.9862 -0.8956 -1.8593
16003TIP3   OH269423   5.094   1.343  13.201  0.4636  0.0381 -0.0331
16003TIP3    H169424   5.153   1.397  13.255 -2.7171  1.9065  1.8914
16003TIP3    H269425   5.035   1.301  13.264 -1.7354  0.1455 -1.8831
16004TIP3   OH269426   1.115   5.539   2.828  0.0721  0.0613  0.0328
16004TIP3    H169427   1.208   5.562   2.821  0.4479 -1.5426 -0.6420
16004TIP3    H269428   1.080   5.552   2.740 -0.0718 -0.3918  0.0188
16005TIP3   OH269429   3.258   1.179   3.662 -0.0790 -0.0445  0.4415
16005TIP3    H169430   3.309   1.123   3.720  0.2128  0.1333  0.3585
16005TIP3    H269431   3.228   1.120   3.592  1.8981  0.2637 -0.7403
16006TIP3   OH269432   3.585   0.055  15.377  0.3331  0.1285 -0.5696
16006TIP3    H169433   3.513   0.117  15.387  0.8107  1.2236 -3.0131
16006TIP3    H269434   3.620   0.044  15.465 -0.6460  2.2777  0.1581
16007TIP3   OH269435   2.490   2.170  16.567 -0.3133  0.4711  0.1954
16007TIP3    H169436   2.512   2.174  16.660 -0.2797 -0.6649  0.2422
16007TIP3    H269437   2.544   2.101  16.531 -0.5925  0.6466 -0.6049
16008TIP3   OH269438   0.284   6.004  16.955  0.0582  0.2598 -0.0724
16008TIP3    H169439   0.229   6.020  16.878  1.5221  0.2912 -1.1704
16008TIP3    H269440   0.224   5.972  17.022 -0.9801 -1.9066 -1.9178
16009TIP3   OH269441   4.833   4.746   0.792  0.5575  0.0050  0.3174
16009TIP3    H169442   4.871   4.662   0.765 -0.0726  0.5297 -2.5196
16009TIP3    H269443   4.862   4.808   0.725  1.5090  2.2711  2.6601
16010TIP3   OH269444   1.043   3.415  13.111  0.3736  0.0721 -0.0649
16010TIP3    H169445   1.088   3.383  13.033 -0.2775  0.2605 -0.5235
16010TIP3    H269446   0.999   3.338  13.146  1.4053 -0.2213  0.6539
16011TIP3   OH269447   0.801   5.417  12.053  0.0812 -0.4361  0.2283
16011TIP3    H169448   0.790   5.507  12.084 -0.6231 -0.3338 -0.2910
16011TIP3    H269449   0.792   5.424  11.958  0.5591 -0.9796  0.1430
16012TIP3   OH269450   4.739   2.767  11.010 -0.3814  0.5213  0.4225
16012TIP3    H169451   4.710   2.850  10.973  0.9134  1.3450  1.1592
16012TIP3    H269452   4.726   2.703  10.940  2.2243  2.0420 -1.6606
16013TIP3   OH269453   3.785   0.518  15.214 -0.2115  0.4069 -0.1200
16013TIP3    H169454   3.866   0.558  15.245  0.6845 -0.7816 -0.8428
16013TIP3    H269455   3.758   0.459  15.284 -0.3704  0.6868  0.0552
16014TIP3   OH269456   5.592   2.397  13.117  0.4815  0.4594  0.0694
16014TIP3    H169457   5.508   2.355  13.097  0.4975 -0.4110  1.7007
16014TIP3    H269458   5.568   2.487  13.141  0.0884  0.3992 -0.0841
16015TIP3   OH269459   1.499   3.070  16.139 -0.0215 -0.4574 -0.1083
16015TIP3    H169460   1.560   3.018  16.190 -1.6764 -0.3864  2.0693
16015TIP3    H269461   1.486   3.150  16.189 -2.0451 -0.5670 -0.3625
16016TIP3   OH269462   5.172   2.287   1.182 -0.0225 -0.6793 -0.0378
16016TIP3    H169463   5.095   2.319   1.229  1.3779  2.0284  0.5590
16016TIP3    H269464   5.144   2.282   1.091 -1.6428 -2.3748  0.4764
16017TIP3   OH269465   3.453   0.498   2.866  0.4264 -0.3151 -0.1526
16017TIP3    H169466   3.372   0.516   2.818  0.4376 -1.8729 -0.8198
16017TIP3    H269467   3.426   0.498   2.958 -0.2100 -0.2211 -0.3337
16018TIP3   OH269468   2.056   3.703   4.804  0.0326  0.0801 -0.4296
16018TIP3    H169469   2.125   3.659   4.854  2.0869  0.7748 -2.4850
16018TIP3    H269470   1.975   3.669   4.841  1.4425 -0.7395  2.1428
16019TIP3   OH269471   1.036   0.974   4.896  0.3329 -0.1540  0.4662
16019TIP3    H169472   0.950   0.985   4.855 -0.7090  0.7650  2.7512
16019TIP3    H269473   1.085   0.921   4.833 -0.0194  3.5529 -3.5017
16020TIP3   OH269474   1.288   2.893   2.428  0.0940 -0.3716 -0.2979
16020TIP3    H169475   1.196   2.869   2.434  0.2998 -1.1037  0.0630
16020TIP3    H269476   1.334   2.810   2.417  0.6284  0.0757 -1.6749
16021TIP3   OH269477   4.526   0.336  11.936 -0.1323  0.8436 -0.0990
16021TIP3    H169478   4.538   0.374  11.849  1.6708  1.3312  0.3316
16021TIP3    H269479   4.490   0.407  11.989  2.6313  1.8643  0.5427
16022TIP3   OH269480   0.778   4.168  15.546 -0.1010 -0.2525  0.6422
16022TIP3    H169481   0.702   4.110  15.546 -0.8547  0.6930 -0.5640
16022TIP3    H269482   0.749   4.246  15.499  1.8142 -0.1473 -0.4733
16023TIP3   OH269483   1.499   1.833   5.933  0.7821  0.1626  0.1271
16023TIP3    H169484   1.553   1.781   5.993  0.8153  0.8391  0.6899
16023TIP3    H269485   1.562   1.878   5.877  0.7811  0.3202  0.2520
16024TIP3   OH269486   5.872   4.481   0.633 -0.0466  0.1351  0.2399
16024TIP3    H169487   5.915   4.530   0.562 -0.1573 -1.2064 -0.8082
16024TIP3    H269488   5.933   4.486   0.706  0.3595  1.0630 -0.1492
16025TIP3   OH269489   5.109   3.721  17.188  0.2474  0.4375  0.7483
16025TIP3    H169490   5.129   3.694  17.278  0.7586  0.0743  0.5308
16025TIP3    H269491   5.191   3.709  17.141 -0.4298 -0.9611 -0.1375
16026TIP3   OH269492   2.493   0.954   2.760 -0.2808 -0.1467 -0.5669
16026TIP3    H169493   2.452   0.960   2.846  1.5148  0.0517  0.3167
16026TIP3    H269494   2.495   1.045   2.728  2.5189  0.4574  0.9560
16027TIP3   OH269495   1.902   5.984   5.972 -0.5621  0.3347  0.5929
16027TIP3    H169496   1.821   6.034   5.982 -0.8960 -0.1314  0.2299
16027TIP3    H269497   1.966   6.033   6.024 -0.5448  1.8688 -0.8036
16028TIP3   OH269498   1.832   1.719   5.289  0.0766 -0.1281  0.5260
16028TIP3    H169499   1.802   1.651   5.229  0.4554 -0.5298  0.7816
16028TIP3    H269500   1.787   1.699   5.371 -1.0056  0.8506  0.1916
16029TIP3   OH269501   2.533   1.752   2.561  0.3612 -0.4087 -0.1261
16029TIP3    H169502   2.520   1.682   2.498 -0.2563 -0.3417 -0.0848
16029TIP3    H269503   2.595   1.812   2.519  1.3497 -1.2637  0.0837
16030TIP3   OH269504   2.905   4.187  11.782 -0.2760 -0.5813  0.2085
16030TIP3    H169505   2.868   4.100  11.769 -1.6134 -0.2667  1.5560
16030TIP3    H269506   2.951   4.206  11.700  0.2900 -2.6434 -0.0006
16031TIP3   OH269507   2.117   6.103  17.040  0.3516 -0.0708 -0.3371
16031TIP3    H169508   2.100   6.102  16.945 -1.3292  2.2346 -0.1451
16031TIP3    H269509   2.161   6.187  17.055  2.7639 -1.4266  0.6769
16032TIP3   OH269510   5.632   3.712   1.878 -0.2275  0.3998 -0.4186
16032TIP3    H169511   5.684   3.769   1.821 -1.2460  2.1874  0.3952
16032TIP3    H269512   5.574   3.771   1.925 -0.2654 -1.1609  1.5956
16033TIP3   OH269513   5.412   4.174   3.097  0.3041 -0.5870  0.2568
16033TIP3    H169514   5.317   4.172   3.112  0.2498 -2.8283 -0.0968
16033TIP3    H269515   5.438   4.083   3.098  2.8041  0.0586  2.1835
16034TIP3   OH269516   4.142   1.974   4.885 -0.2742  0.5673 -0.4768
16034TIP3    H169517   4.151   1.953   4.978  0.7368  1.2572 -0.4082
16034TIP3    H269518   4.231   1.987   4.854 -0.6629  1.3935 -1.2989
16035TIP3   OH269519   3.708   2.901  11.772  0.5231 -0.7357  0.5922
16035TIP3    H169520   3.685   2.849  11.849 -1.0195  0.4809  1.0091
16035TIP3    H269521   3.645   2.875  11.705  2.1113 -2.0874 -0.4611
16036TIP3   OH269522   4.864   2.550   3.592 -0.1399 -0.2028  0.5192
16036TIP3    H169523   4.814   2.571   3.670 -0.4603 -0.3504  0.3554
16036TIP3    H269524   4.802   2.505   3.535  0.1729 -0.3695  0.3062
16037TIP3   OH269525   2.921   6.630   4.202 -0.4363  0.7197  0.0513
16037TIP3    H169526   2.889   6.706   4.250 -0.8128  0.3020  0.4803
16037TIP3    H269527   2.888   6.642   4.113 -1.0181  0.7499  0.2698
16038TIP3   OH269528   0.787   2.501   1.765  0.0664 -0.0736  0.0058
16038TIP3    H169529   0.726   2.518   1.694  0.3168  1.1860  0.0634
16038TIP3    H269530   0.829   2.586   1.781  1.1953 -0.7081  0.5480
16039TIP3   OH269531   4.243   1.985   2.654 -0.3700 -1.0258  0.1850
16039TIP3    H169532   4.322   2.032   2.626 -1.3081  0.0693 -0.7004
16039TIP3    H269533   4.258   1.966   2.746  1.2296 -1.4720 -0.1391
16040TIP3   OH269534   0.879   4.697   1.120 -0.1797 -0.1753  0.1881
16040TIP3    H169535   0.945   4.635   1.152  1.4154  1.5469  0.4029
16040TIP3    H269536   0.887   4.693   1.025 -0.0751 -0.2820  0.2009
16041TIP3   OH269537   1.651   3.368  13.303  0.0275 -0.3196 -0.1223
16041TIP3    H169538   1.733   3.384  13.256  0.0127  1.0011  0.2394
16041TIP3    H269539   1.631   3.276  13.287  2.1682 -0.9884  0.6897
16042TIP3   OH269540   4.006   4.846   0.747 -0.2638  0.0419  0.5312
16042TIP3    H169541   4.048   4.922   0.789  0.7994 -0.0422 -0.3304
16042TIP3    H269542   4.079   4.788   0.726 -0.9102 -0.4852 -0.2860
16043TIP3   OH269543   3.938   2.566  14.854  0.2415 -0.1819  0.5181
16043TIP3    H169544   4.017   2.589  14.806  0.6238 -1.5712  0.4360
16043TIP3    H269545   3.915   2.478  14.822 -1.8688  0.5495 -0.1279
16044TIP3   OH269546   6.288   0.965   2.466  0.5007  0.1857 -1.1862
16044TIP3    H169547   6.285   1.058   2.486  1.6499 -0.3080  1.8720
16044TIP3    H269548   6.378   0.948   2.437  1.4107 -0.4136  1.6543
16045TIP3   OH269549   1.732   4.324   4.878  0.2478 -0.7546 -0.4663
16045TIP3    H169550   1.741   4.271   4.957  0.9428 -0.4066 -0.3063
16045TIP3    H269551   1.665   4.278   4.826  0.0308 -1.1687  0.1638
16046TIP3   OH269552   1.931   5.171  12.964 -0.0850  0.1910 -0.5980
16046TIP3    H169553   1.855   5.222  12.937 -1.4113 -1.6075 -0.4441
16046TIP3    H269554   1.931   5.178  13.060  0.4461  0.8471 -0.6392
16047TIP3   OH269555   2.032   5.489   4.355 -0.1559 -0.0724 -0.2358
16047TIP3    H169556   2.122   5.491   4.322  0.0308  0.4932  0.2966
16047TIP3    H269557   2.042   5.487   4.450 -0.6874 -1.8650 -0.1902
16048TIP3   OH269558   1.742   6.056  15.139  0.0336 -0.3546  0.4900
16048TIP3    H169559   1.835   6.036  15.148 -0.5143 -3.4401  0.2243
16048TIP3    H269560   1.697   5.982  15.179 -2.3716  1.8085  2.0720
16049TIP3   OH269561   0.994   2.361   0.438 -0.0880 -0.2624  0.0792
16049TIP3    H169562   1.007   2.402   0.353 -1.0262  0.0249  0.0598
16049TIP3    H269563   0.928   2.416   0.481  1.1738  0.2527  1.4390
16050TIP3   OH269564   3.657   0.164   1.751 -0.3184 -0.5602  0.2074
16050TIP3    H169565   3.638   0.139   1.660  0.3502  0.3739 -0.2023
16050TIP3    H269566   3.687   0.083   1.792 -2.6721 -1.5118  0.2024
16051TIP3   OH269567   4.922   0.797   4.237  0.2828  0.2005  0.2075
16051TIP3    H169568   4.872   0.719   4.213 -0.4344 -0.1671  2.6271
16051TIP3    H269569   4.990   0.804   4.169 -0.8854 -1.3137 -1.1971
16052TIP3   OH269570   1.159   1.418   0.160 -0.4029  0.1769  0.1081
16052TIP3    H169571   1.191   1.501   0.195  0.0323 -0.3758  1.0636
16052TIP3    H269572   1.143   1.364   0.237 -1.1727 -0.4567 -0.4775
16053TIP3   OH269573   0.485   2.909  13.037 -0.6334 -0.2393 -0.1186
16053TIP3    H169574   0.577   2.931  13.032 -0.7174 -0.1314 -1.4342
16053TIP3    H269575   0.448   2.971  13.101  0.3720 -0.9564  1.2046
16054TIP3   OH269576   2.466   5.125  16.861  0.5857  0.3380  0.5035
16054TIP3    H169577   2.532   5.080  16.810  0.6761 -0.9863  1.7223
16054TIP3    H269578   2.432   5.193  16.803 -0.9227 -2.4702 -2.1380
16055TIP3   OH269579   1.487   2.211   4.812 -0.3764 -0.0655 -0.0012
16055TIP3    H169580   1.542   2.265   4.755 -0.2539 -0.1786  0.0118
16055TIP3    H269581   1.518   2.230   4.901  0.1368 -0.6894 -0.0418
16056TIP3   OH269582   6.115   4.876  12.158  0.4111 -0.2588  0.0325
16056TIP3    H169583   6.041   4.884  12.217  0.2920 -0.7001 -0.0458
16056TIP3    H269584   6.166   4.956  12.170 -0.1461  0.1068 -0.0076
16057TIP3   OH269585   2.243   6.139   3.552  0.6435 -0.2295 -0.1800
16057TIP3    H169586   2.210   6.229   3.555  1.7006  0.1556  0.2207
16057TIP3    H269587   2.168   6.085   3.577  0.2573  0.6092  0.4986
16058TIP3   OH269588   1.557   5.282   1.614 -0.3821 -0.3668  0.2855
16058TIP3    H169589   1.525   5.365   1.649 -0.3213 -0.8897  1.6413
16058TIP3    H269590   1.652   5.294   1.608 -0.3335 -0.4601  0.8352
16059TIP3   OH269591   1.689   5.504  13.321 -0.7175  0.0957 -0.4361
16059TIP3    H169592   1.666   5.597  13.314 -0.3267  0.0832 -2.0936
16059TIP3    H269593   1.778   5.504  13.357 -1.5286  0.2664  1.6969
16060TIP3   OH269594   1.140   5.063   0.224  0.2172 -0.2436 -0.3595
16060TIP3    H169595   1.217   5.097   0.270 -0.8892  0.5191  1.0098
16060TIP3    H269596   1.133   4.972   0.253 -0.6947  0.3370  1.3817
16061TIP3   OH269597   1.361   6.017   3.280  0.1283 -0.2997  0.2233
16061TIP3    H169598   1.364   6.092   3.221 -0.5626 -0.0921  0.4405
16061TIP3    H269599   1.371   5.941   3.223 -1.8991 -0.1847 -0.3738
16062TIP3   OH269600   2.715   5.322  15.906  0.1979 -0.0263  0.1236
16062TIP3    H169601   2.729   5.409  15.868 -2.3748  0.6502  0.5793
16062TIP3    H269602   2.685   5.340  15.995 -0.4474 -1.3925  0.1943
16063TIP3   OH269603   4.238   3.039   0.119  0.1440  0.0678  0.1119
16063TIP3    H169604   4.260   2.989   0.198 -0.3079 -0.1945  0.0778
16063TIP3    H269605   4.308   3.104   0.111  1.0301 -0.8868 -0.1260
16064TIP3   OH269606   3.830   2.541  11.706  0.9015 -0.1462 -0.1801
16064TIP3    H169607   3.763   2.534  11.775  1.6811  0.0174  0.6112
16064TIP3    H269608   3.781   2.572  11.629  0.3448  1.8227  0.8734
16065TIP3   OH269609   6.450   4.386   3.483 -0.9638  0.5139 -0.0375
16065TIP3    H169610   6.427   4.471   3.445  0.9101 -0.4563 -3.7323
16065TIP3    H269611   6.529   4.403   3.534 -0.5112  0.9993 -0.8759
16066TIP3   OH269612   6.391   3.817  16.283  0.3567 -0.0728  0.5269
16066TIP3    H169613   6.399   3.899  16.333 -0.3709 -1.0670  2.4069
16066TIP3    H269614   6.314   3.831  16.228  0.2899  0.5531  0.7581
16067TIP3   OH269615   3.298   5.933   1.240 -0.3092 -0.5984  0.1627
16067TIP3    H169616   3.207   5.963   1.248 -0.4896 -0.8872 -0.6912
16067TIP3    H269617   3.312   5.926   1.146  0.6508 -0.4140  0.2850
16068TIP3   OH269618   2.493   3.250   2.836  0.0897  0.0546 -0.1763
16068TIP3    H169619   2.461   3.241   2.925  0.8253  0.2672  0.1191
16068TIP3    H269620   2.495   3.161   2.802 -1.4582  0.1005 -0.4520
16069TIP3   OH269621   4.022   6.243  16.586 -0.3763  0.1295 -0.4130
16069TIP3    H169622   4.001   6.252  16.679 -0.6094 -2.2312 -0.1783
16069TIP3    H269623   3.941   6.212  16.546  0.2918 -0.9658 -0.9832
16070TIP3   OH269624   5.676   3.464   0.795  0.4419  0.6944  0.2228
16070TIP3    H169625   5.758   3.424   0.825  0.2231  0.3657  0.3986
16070TIP3    H269626   5.651   3.413   0.718 -0.5916 -0.4800  1.2914
16071TIP3   OH269627   4.251   2.370  15.909  0.8676 -0.1779 -0.0483
16071TIP3    H169628   4.190   2.340  15.841  2.2773  0.4250 -1.6535
16071TIP3    H269629   4.223   2.325  15.988 -0.1526 -1.8184 -1.2833
16072TIP3   OH269630   1.015   0.470  12.707 -0.7121 -0.6219  0.0325
16072TIP3    H169631   0.936   0.448  12.757  0.5483 -3.7726  0.8532
16072TIP3    H269632   0.989   0.461  12.615 -1.6853 -0.0141  0.2329
16073TIP3   OH269633   4.814   0.382  12.324 -0.0502 -0.0863 -0.0520
16073TIP3    H169634   4.892   0.425  12.358 -1.8498  0.6465  3.6589
16073TIP3    H269635   4.752   0.453  12.308 -1.9925 -0.8020  3.2103
16074TIP3   OH269636   5.164   1.970   1.580 -0.3103  0.1318  0.3256
16074TIP3    H169637   5.139   2.062   1.590  0.0201  0.1208  1.4120
16074TIP3    H269638   5.134   1.928   1.660  1.2733 -0.2970  0.7331
16075TIP3   OH269639   0.737   6.527   0.953 -0.0311 -0.1930  0.7649
16075TIP3    H169640   0.825   6.505   0.925 -0.4184 -0.2218 -0.4768
16075TIP3    H269641   0.726   6.482   1.037  0.6010 -1.4433  0.2003
16076TIP3   OH269642   6.527   0.722  14.507 -0.0940 -0.1424  0.0928
16076TIP3    H169643   6.617   0.751  14.526 -0.2565  0.3314  0.1566
16076TIP3    H269644   6.488   0.708  14.593 -0.5560  1.1541  0.1132
16077TIP3   OH269645   2.875   3.334   5.248  0.2314 -0.1550  0.2502
16077TIP3    H169646   2.874   3.251   5.295  1.7534  0.2220  1.0000
16077TIP3    H269647   2.937   3.389   5.296 -0.3093  1.2226 -0.5628
16078TIP3   OH269648   2.348   6.432  11.223 -0.5273  0.2067  0.2579
16078TIP3    H169649   2.261   6.406  11.254 -0.6475 -0.3356 -0.5088
16078TIP3    H269650   2.360   6.384  11.141  0.1792  0.8677 -0.0426
16079TIP3   OH269651   6.388   4.683   0.774  0.1969 -0.6878  0.3655
16079TIP3    H169652   6.459   4.619   0.769 -0.2831 -1.2217  0.2013
16079TIP3    H269653   6.379   4.701   0.868  0.0492 -1.1987  0.4552
16080TIP3   OH269654   4.557   6.395  10.989 -1.0362 -0.3260  0.1754
16080TIP3    H169655   4.544   6.423  10.898  0.0166  1.7908  0.6077
16080TIP3    H269656   4.618   6.322  10.984  2.2177  2.2305 -0.6949
16081TIP3   OH269657   6.692   6.184   1.517  0.7571 -0.7995 -0.0496
16081TIP3    H169658   6.634   6.238   1.570  1.0691  0.8146 -1.2924
16081TIP3    H269659   6.645   6.170   1.435  0.7113 -2.3860  0.2187
16082TIP3   OH269660   2.461   1.219   2.403 -0.6137 -0.3720  0.2374
16082TIP3    H169661   2.538   1.174   2.437 -0.2825 -0.1639 -0.2228
16082TIP3    H269662   2.449   1.182   2.315 -0.6041  0.1199  0.0296
16083TIP3   OH269663   5.164   4.717  11.985 -0.7607 -0.3909 -0.1034
16083TIP3    H169664   5.123   4.697  11.901 -0.4856  2.3879 -0.9835
16083TIP3    H269665   5.257   4.697  11.971 -0.9914 -1.7659  0.2090
16084TIP3   OH269666   3.306   0.904   3.771  0.0913 -0.0778 -0.1699
16084TIP3    H169667   3.281   0.828   3.718  0.7870  0.0252 -0.6698
16084TIP3    H269668   3.368   0.869   3.836 -1.5339 -0.3944  1.2735
16085TIP3   OH269669   5.071   0.974  14.520  0.0513 -0.0385 -0.2254
16085TIP3    H169670   4.997   0.913  14.525  0.2306 -0.2056  0.4317
16085TIP3    H269671   5.031   1.061  14.513 -0.2042 -0.1996 -0.8091
16086TIP3   OH269672   1.986   2.027  13.226 -0.7139 -0.2843 -0.2961
16086TIP3    H169673   2.014   2.039  13.135  0.0871  1.4386  0.1432
16086TIP3    H269674   2.057   1.979  13.267 -1.2921 -1.5021 -0.6552
16087TIP3   OH269675   5.695   6.658  12.004  0.0293  0.6212 -0.0883
16087TIP3    H169676   5.773   6.634  11.954  1.1018  0.3515  1.5945
16087TIP3    H269677   5.663   6.574  12.039 -0.2582  0.8669  0.2457
16088TIP3   OH269678   0.125   4.199  14.762 -0.1935  0.2638  0.4925
16088TIP3    H169679   0.162   4.265  14.820  1.3020  0.5541 -0.7292
16088TIP3    H269680   0.188   4.192  14.689 -1.9491 -0.1031 -1.0743
16089TIP3   OH269681   5.656   5.103  14.522  0.0442 -0.4803 -0.1739
16089TIP3    H169682   5.746   5.135  14.524  0.1927 -0.7081 -1.6529
16089TIP3    H269683   5.647   5.048  14.600  0.0757  2.3325  1.9791
16090TIP3   OH269684   4.654   2.316   2.101  0.8087 -0.1852 -0.2393
16090TIP3    H169685   4.666   2.222   2.089 -0.7012 -0.2728 -1.2033
16090TIP3    H269686   4.728   2.342   2.156  2.1189 -1.6481 -1.2263
16091TIP3   OH269687   5.934   5.547   3.032  0.1924 -0.1980  0.3666
16091TIP3    H169688   5.975   5.473   2.987  0.8728 -0.1383  0.8704
16091TIP3    H269689   5.840   5.538   3.012  0.3851 -0.6331 -0.3764
16092TIP3   OH269690   3.187   4.970  10.917  0.3009 -0.3974 -0.1401
16092TIP3    H169691   3.212   4.885  10.880 -0.2730 -0.2745 -0.8296
16092TIP3    H269692   3.238   5.033  10.868 -0.1287 -0.2625 -0.4123
16093TIP3   OH269693   4.890   2.832  12.573  0.2359  0.2035 -0.0938
16093TIP3    H169694   4.916   2.822  12.665 -2.1660  0.9045  0.7389
16093TIP3    H269695   4.858   2.746  12.547 -1.1355  0.5051  0.4830
16094TIP3   OH269696   6.189   4.690   2.676 -0.0993 -0.0276 -0.3058
16094TIP3    H169697   6.163   4.761   2.734  1.2011  1.0349 -0.9905
16094TIP3    H269698   6.141   4.614   2.709  0.7076  0.4998  2.2480
16095TIP3   OH269699   0.644   1.714  15.841  0.3002  0.0749  0.5926
16095TIP3    H169700   0.692   1.632  15.848 -0.2607 -0.3989 -0.6737
16095TIP3    H269701   0.666   1.763  15.920  3.4671  0.2368 -0.2473
16096TIP3   OH269702   0.468   3.613  13.647  0.4901 -0.3402 -0.2472
16096TIP3    H169703   0.398   3.678  13.644 -0.0497 -0.8462  0.7725
16096TIP3    H269704   0.424   3.530  13.627  0.5141 -0.8569  1.6561
16097TIP3   OH269705   3.967   5.278   4.136 -0.2434 -1.1289 -0.5022
16097TIP3    H169706   4.028   5.262   4.064 -1.6527  0.0520 -2.0526
16097TIP3    H269707   3.880   5.267   4.097 -1.1251  1.8324  0.3478
16098TIP3   OH269708   2.695   5.277  16.904  0.0835 -0.1969 -0.0428
16098TIP3    H169709   2.632   5.211  16.931 -0.3065  0.4915  0.7853
16098TIP3    H269710   2.767   5.269  16.967  1.3772 -1.6995 -1.6110
16099TIP3   OH269711   2.824   1.693   1.208  0.0724  0.2157 -0.3806
16099TIP3    H169712   2.742   1.732   1.238 -0.8475 -1.4566 -0.6186
16099TIP3    H269713   2.811   1.599   1.216  2.3559 -0.0938  0.5407
16100TIP3   OH269714   0.403   6.406   1.166  0.2522  0.1721 -0.0143
16100TIP3    H169715   0.420   6.449   1.082 -0.7388 -0.0498 -0.3458
16100TIP3    H269716   0.431   6.470   1.232 -0.2757  0.9341 -0.5097
16101TIP3   OH269717   6.759   0.078   5.349  0.0409  0.0527 -0.6508
16101TIP3    H169718   6.818   0.143   5.310  0.8024  0.1377  0.5757
16101TIP3    H269719   6.817   0.010   5.382 -0.5322  0.1478  0.6122
16102TIP3   OH269720   5.980   2.911   3.448 -0.2670 -0.2710  0.1705
16102TIP3    H169721   5.924   2.936   3.374  1.1194  0.5837 -0.6316
16102TIP3    H269722   5.983   2.989   3.503 -0.0926 -0.4205  0.3747
16103TIP3   OH269723   5.430   3.135  11.306  0.2156 -0.4081  0.0594
16103TIP3    H169724   5.392   3.050  11.326  2.3123 -2.3315 -3.1687
16103TIP3    H269725   5.524   3.121  11.310  0.6171  1.7121 -0.7024
16104TIP3   OH269726   1.840   6.356   4.915 -0.8652  0.1437 -0.1266
16104TIP3    H169727   1.894   6.412   4.970  1.2579 -1.6730 -0.2174
16104TIP3    H269728   1.796   6.297   4.977 -0.3612 -0.3288 -0.2091
16105TIP3   OH269729   1.723   3.050   4.837 -0.6052  0.2707  0.1528
16105TIP3    H169730   1.680   3.049   4.751  0.2308  0.1095 -0.2676
16105TIP3    H269731   1.816   3.049   4.817 -0.3857 -1.7902  1.0788
16106TIP3   OH269732   6.281   5.557  12.837  0.4046  0.1237 -0.3653
16106TIP3    H169733   6.256   5.532  12.748  0.4901  1.8675 -0.9269
16106TIP3    H269734   6.376   5.547  12.839  0.4353  0.3606 -0.5760
16107TIP3   OH269735   5.379   5.719   0.736 -0.3532 -0.0757 -0.1505
16107TIP3    H169736   5.457   5.670   0.762  0.9418  2.5680  1.3866
16107TIP3    H269737   5.369   5.700   0.643  0.5461 -2.5194  0.1786
16108TIP3   OH269738   1.535   6.143  16.191  0.0760  0.8745  0.2858
16108TIP3    H169739   1.569   6.220  16.238  2.3445  0.0196  0.1697
16108TIP3    H269740   1.547   6.070  16.252 -0.0126  0.2640 -0.4152
16109TIP3   OH269741   5.780   3.581  17.130  0.2547 -0.4304 -0.0726
16109TIP3    H169742   5.794   3.576  17.036 -1.6740  1.0643 -0.4985
16109TIP3    H269743   5.867   3.569  17.168  1.8271  2.8965 -2.2195
16110TIP3   OH269744   2.830   1.932   3.566  0.4295 -0.0642 -0.3313
16110TIP3    H169745   2.748   1.884   3.567  0.3473  0.0495 -1.1719
16110TIP3    H269746   2.820   1.998   3.497  1.0816  0.2021 -0.1885
16111TIP3   OH269747   2.778   3.597   4.680 -0.1975  0.6384 -0.0419
16111TIP3    H169748   2.723   3.609   4.757  1.3601  2.4351  0.8931
16111TIP3    H269749   2.867   3.606   4.713  0.5034  2.5277 -2.1501
16112TIP3   OH269750   4.589   6.458  14.948  0.2186  0.1814 -0.8414
16112TIP3    H169751   4.571   6.488  15.037 -0.5710 -2.0458 -0.2050
16112TIP3    H269752   4.547   6.524  14.892  0.4406  1.4301  0.3986
16113TIP3   OH269753   3.018   4.501   4.686 -0.1964  0.3663  0.0842
16113TIP3    H169754   3.004   4.443   4.761  1.1222  0.8756  0.7583
16113TIP3    H269755   3.060   4.446   4.621  0.9435  0.4994  0.6787
16114TIP3   OH269756   3.672   2.828   2.777  0.1343 -0.0152  0.0725
16114TIP3    H169757   3.613   2.786   2.840 -0.2731 -0.2632 -0.4614
16114TIP3    H269758   3.716   2.756   2.733  0.3826  0.1534  0.0463
16115TIP3   OH269759   3.233   3.999  11.644  0.6779  0.1532 -0.5654
16115TIP3    H169760   3.168   4.054  11.600 -0.6670 -2.2746 -1.8147
16115TIP3    H269761   3.275   3.950  11.573  1.4028 -0.8755  0.5375
16116TIP3   OH269762   3.740   5.910   0.329 -0.2371 -0.1411 -0.1450
16116TIP3    H169763   3.700   5.847   0.389 -0.7141  1.8539  1.7880
16116TIP3    H269764   3.834   5.896   0.338 -0.3372 -0.5087  0.3559
16117TIP3   OH269765   5.422   3.820   5.212  0.0496  0.0518  0.0919
16117TIP3    H169766   5.355   3.802   5.146 -0.1396 -1.4642  0.6565
16117TIP3    H269767   5.462   3.903   5.184 -0.6435 -0.0871 -1.3984
16118TIP3   OH269768   1.383   2.103  11.109 -0.0846  0.3323 -0.0802
16118TIP3    H169769   1.400   2.149  11.027  3.3512  0.9202  0.8044
16118TIP3    H269770   1.341   2.168  11.165  1.6882  1.4347  0.0477
16119TIP3   OH269771   4.471   5.146   1.149 -0.1244  0.2077 -0.4344
16119TIP3    H169772   4.490   5.218   1.210 -1.1569 -0.0085  0.1666
16119TIP3    H269773   4.456   5.189   1.065  2.8910  0.4004 -0.9731
16120TIP3   OH269774   5.626   5.501  16.754  0.4600 -0.7196 -0.0775
16120TIP3    H169775   5.586   5.581  16.720  0.5515 -0.6553 -0.0368
16120TIP3    H269776   5.606   5.501  16.847  1.2275 -0.2716  0.1018
16121TIP3   OH269777   3.850   1.130  15.270  0.0074  0.3037  0.0939
16121TIP3    H169778   3.761   1.150  15.299  0.5123  0.8121  1.3440
16121TIP3    H269779   3.844   1.042  15.232 -1.1283  0.5692 -0.3832
16122TIP3   OH269780   3.217   6.428   0.383 -0.8049  0.1365 -0.0683
16122TIP3    H169781   3.124   6.420   0.363 -1.0645  1.0204  0.6742
16122TIP3    H269782   3.248   6.498   0.326 -0.6849  0.1075 -0.0388
16123TIP3   OH269783   6.089   5.681   0.365 -0.3303  0.6519  0.0653
16123TIP3    H169784   6.136   5.658   0.445  0.1863  1.3673 -0.0252
16123TIP3    H269785   5.998   5.655   0.383  0.0071 -0.3449  0.4037
16124TIP3   OH269786   1.579   0.652  12.762 -0.3707 -0.1855  0.1459
16124TIP3    H169787   1.515   0.590  12.797 -0.5083  1.1345  2.4312
16124TIP3    H269788   1.663   0.620  12.797 -0.2564  0.1114  0.1418
16125TIP3   OH269789   5.779   5.130   2.687  0.0814  0.5395 -0.8585
16125TIP3    H169790   5.702   5.090   2.726 -0.3684  1.2596 -0.9909
16125TIP3    H269791   5.829   5.056   2.653 -0.8890  0.1061 -1.3885
16126TIP3   OH269792   6.371   5.659   2.310 -0.3928  0.2215 -0.3976
16126TIP3    H169793   6.382   5.753   2.296 -1.9673  0.5370  0.1958
16126TIP3    H269794   6.417   5.618   2.237  0.0975  1.4562 -0.8113
16127TIP3   OH269795   4.221   0.287   0.237  0.1751  0.0749 -0.5855
16127TIP3    H169796   4.140   0.247   0.204 -0.0779 -0.4614  0.6007
16127TIP3    H269797   4.209   0.380   0.222 -0.5180 -0.0322 -0.7613
16128TIP3   OH269798   1.225   5.536  16.239  0.7937 -0.4807  0.7283
16128TIP3    H169799   1.234   5.448  16.274 -1.7871 -1.3318 -0.5253
16128TIP3    H269800   1.162   5.579  16.297 -1.4084 -1.0164 -1.1213
16129TIP3   OH269801   4.760   0.269  14.355  0.2531  0.4395 -0.4692
16129TIP3    H169802   4.746   0.363  14.349  1.5192  0.5986 -1.3884
16129TIP3    H269803   4.834   0.259  14.415  0.0415  0.0245 -0.2736
16130TIP3   OH269804   3.774   4.513   6.672 -0.8285 -0.2443 -0.0605
16130TIP3    H169805   3.854   4.473   6.638 -1.5281 -2.2909  0.5426
16130TIP3    H269806   3.796   4.605   6.686  1.1674 -0.6074 -0.6498
16131TIP3   OH269807   6.737   3.071   3.906  0.0335  0.1327  0.5693
16131TIP3    H169808   6.680   3.126   3.959 -1.6429 -0.6107 -0.3780
16131TIP3    H269809   6.737   3.112   3.819  0.1226 -0.4304  0.2983
16132TIP3   OH269810   1.900   5.499  17.132  0.1636 -0.0987  0.3079
16132TIP3    H169811   1.961   5.526  17.200  1.2582  2.6134 -1.5717
16132TIP3    H269812   1.855   5.580  17.106 -2.7026 -1.6135  0.0833
16133TIP3   OH269813   0.407   0.503  13.643  0.5423 -0.1419  0.3556
16133TIP3    H169814   0.365   0.426  13.680 -0.4730  0.1183 -0.2058
16133TIP3    H269815   0.419   0.562  13.717 -1.4785  0.3806  0.3453
16134TIP3   OH269816   6.732   4.389  17.127  0.0596  0.1162  0.2340
16134TIP3    H169817   6.755   4.409  17.218 -0.2510  1.0782  0.1189
16134TIP3    H269818   6.816   4.386  17.081  0.2086 -0.2393  0.5284
16135TIP3   OH269819   5.654   5.066  11.338  0.6028  0.2090 -0.5646
16135TIP3    H169820   5.599   5.144  11.344  2.0872  1.2110  1.9669
16135TIP3    H269821   5.615   5.005  11.401  1.4553  0.3152  0.0770
16136TIP3   OH269822   4.653   6.006  11.988 -0.3378 -0.0322  0.4541
16136TIP3    H169823   4.617   6.062  12.058 -2.3715 -0.3743 -0.2478
16136TIP3    H269824   4.632   6.054  11.908  0.5678 -0.4055 -0.0075
16137TIP3   OH269825   3.552   5.202  14.617 -0.5906 -1.0785 -0.4918
16137TIP3    H169826   3.643   5.208  14.646 -0.7733  2.3354 -0.2388
16137TIP3    H269827   3.525   5.113  14.640  2.3011 -1.7972  0.5151
16138TIP3   OH269828   2.711   5.031   0.431  0.2941  0.3051  0.2628
16138TIP3    H169829   2.682   4.954   0.480 -0.6269  1.1958  1.1796
16138TIP3    H269830   2.652   5.035   0.357 -1.1117  1.3172  1.3781
16139TIP3   OH269831   2.939   2.259  17.064  0.4284 -0.2207  0.4485
16139TIP3    H169832   2.867   2.199  17.043  0.5988  0.2461 -1.6572
16139TIP3    H269833   3.002   2.205  17.111  0.2724 -1.5443 -0.8061
16140TIP3   OH269834   1.729   0.440  16.734  0.1551  0.0459  0.4493
16140TIP3    H169835   1.801   0.504  16.731  0.9394 -0.8531 -2.1608
16140TIP3    H269836   1.771   0.358  16.759 -0.1067 -0.3274 -0.3365
16141TIP3   OH269837   6.154   1.861  12.770  0.2126 -1.1074 -0.3630
16141TIP3    H169838   6.139   1.949  12.804 -0.4587 -1.1478 -0.5557
16141TIP3    H269839   6.241   1.866  12.729  0.1433 -0.5145 -0.4474
16142TIP3   OH269840   2.279   4.393  13.546  0.1419  0.0277  0.2536
16142TIP3    H169841   2.268   4.446  13.466  0.3656  1.5876  1.2083
16142TIP3    H269842   2.199   4.411  13.596  0.3113 -0.4095  0.6774
16143TIP3   OH269843   4.482   5.363  15.137  0.5892 -0.3097  0.7372
16143TIP3    H169844   4.576   5.356  15.156  0.7270  2.6388  1.6691
16143TIP3    H269845   4.477   5.430  15.069 -0.8021 -1.3624 -0.2337
16144TIP3   OH269846   5.783   4.161   5.041  0.2482  0.3439 -0.0235
16144TIP3    H169847   5.758   4.178   5.131 -2.0761  0.4340 -0.6282
16144TIP3    H269848   5.837   4.236   5.016 -1.2532  1.6599  0.5201
16145TIP3   OH269849   3.123   3.726  17.173  0.2342 -0.1159  0.4714
16145TIP3    H169850   3.124   3.796  17.237  2.0299 -0.5342  0.9623
16145TIP3    H269851   3.175   3.656  17.213  0.5290 -0.7784 -1.0032
16146TIP3   OH269852   6.087   2.600   0.612 -0.1577  0.4953 -0.7072
16146TIP3    H169853   6.123   2.514   0.636 -0.4946  0.4399 -0.3749
16146TIP3    H269854   6.029   2.622   0.685 -0.3051  0.8685 -0.9342
16147TIP3   OH269855   5.967   0.926   5.066 -0.3474 -0.2735  0.4335
16147TIP3    H169856   5.914   0.969   5.133 -1.4081 -0.1271 -0.4620
16147TIP3    H269857   5.983   0.994   5.000 -1.4043 -1.0153 -0.6330
16148TIP3   OH269858   1.711   2.114   2.145 -0.5754 -0.1075 -0.5168
16148TIP3    H169859   1.778   2.180   2.161  0.2439 -0.8963 -0.6256
16148TIP3    H269860   1.686   2.084   2.232 -1.2407  0.6133 -0.4471
16149TIP3   OH269861   4.656   5.622  16.281  0.1059 -0.2268 -0.2848
16149TIP3    H169862   4.702   5.577  16.210  0.5992 -0.0843 -0.0535
16149TIP3    H269863   4.724   5.644  16.344 -0.4502 -1.1379  0.6635
16150TIP3   OH269864   1.805   3.749  15.760 -0.3007 -0.3903 -0.1232
16150TIP3    H169865   1.709   3.740  15.761 -0.3897  0.0369 -1.6444
16150TIP3    H269866   1.820   3.837  15.726  0.6263 -0.9235 -1.1525
16151TIP3   OH269867   4.194   4.324   0.940  0.4131 -0.2096 -0.1626
16151TIP3    H169868   4.238   4.270   0.875 -0.7037  0.7578 -1.7758
16151TIP3    H269869   4.132   4.377   0.890 -1.0758 -0.0130  1.7706
16152TIP3   OH269870   3.809   0.813   0.438  0.1885  0.1214  0.1490
16152TIP3    H169871   3.763   0.773   0.512  0.5693 -0.1546  0.2411
16152TIP3    H269872   3.739   0.847   0.382 -0.0652  1.4603  1.2473
16153TIP3   OH269873   5.162   3.194   2.615 -0.2049  0.6704 -0.0580
16153TIP3    H169874   5.252   3.207   2.587  0.1651 -0.7218  0.4054
16153TIP3    H269875   5.124   3.282   2.615  1.2331  1.3167  0.0606
16154TIP3   OH269876   6.364   4.408  16.508  0.6863 -0.0369  0.7021
16154TIP3    H169877   6.451   4.395  16.469  0.9982  0.9839  1.0285
16154TIP3    H269878   6.381   4.412  16.602  0.1566 -0.7216  0.8375
16155TIP3   OH269879   6.440   3.061  11.416  0.1909 -0.5189 -0.4093
16155TIP3    H169880   6.533   3.075  11.400 -0.0033  1.5161  0.0291
16155TIP3    H269881   6.413   3.000  11.347  2.0589 -2.1231  0.1846
16156TIP3   OH269882   2.662   6.236  10.986 -0.5007 -0.4764  0.2193
16156TIP3    H169883   2.573   6.236  11.023 -0.0199 -0.8217  1.4050
16156TIP3    H269884   2.703   6.314  11.022 -0.4109 -0.1445 -0.5813
16157TIP3   OH269885   0.607   4.991  14.188  0.1104 -0.5007 -0.7899
16157TIP3    H169886   0.617   4.928  14.116 -0.4568  0.5418 -1.8076
16157TIP3    H269887   0.530   5.043  14.164 -0.0790 -0.1083  0.5662
16158TIP3   OH269888   4.783   4.387  17.157  0.5404  0.0541  0.2098
16158TIP3    H169889   4.804   4.373  17.250 -0.1064  0.5647  0.4399
16158TIP3    H269890   4.867   4.376  17.112  0.7117 -1.0030  0.7560
16159TIP3   OH269891   3.090   3.245   4.358  0.3335 -0.0981 -0.6702
16159TIP3    H169892   3.018   3.271   4.300 -0.5521  1.5686  1.0586
16159TIP3    H269893   3.047   3.204   4.432  1.1555  0.7992  0.3342
16160TIP3   OH269894   0.735   6.094   3.090 -0.0342 -0.3874  0.0148
16160TIP3    H169895   0.825   6.118   3.068  0.0331 -1.3928 -0.9146
16160TIP3    H269896   0.733   5.998   3.082 -0.8394 -0.5139  1.3964
16161TIP3   OH269897   0.806   4.919  11.377  0.3024 -0.2348  0.3900
16161TIP3    H169898   0.870   4.945  11.310 -1.0160 -0.8720 -1.1611
16161TIP3    H269899   0.804   4.824  11.373 -1.6883 -0.1898 -0.5331
16162TIP3   OH269900   4.762   4.481   6.185 -0.5164  0.3698 -0.1151
16162TIP3    H169901   4.668   4.480   6.166 -0.3236 -2.0057 -1.3471
16162TIP3    H269902   4.770   4.438   6.270 -0.4875 -0.1770 -0.3935
16163TIP3   OH269903   3.682   1.813   3.580 -0.0109  0.1226  0.5041
16163TIP3    H169904   3.759   1.821   3.636  0.2268  2.0989 -0.0065
16163TIP3    H269905   3.714   1.837   3.493 -0.6327 -1.7337 -0.2882
16164TIP3   OH269906   1.323   6.610   4.179 -0.1789  0.6464  0.1173
16164TIP3    H169907   1.351   6.689   4.132  1.3778  0.5043  0.7596
16164TIP3    H269908   1.405   6.567   4.203 -1.0076 -1.2992 -0.4216
16165TIP3   OH269909   2.668   0.193   4.513  0.0665  0.3827 -1.1227
16165TIP3    H169910   2.673   0.264   4.449 -0.0311  1.6875  0.2369
16165TIP3    H269911   2.578   0.200   4.548  0.6121  0.7966  0.2896
16166TIP3   OH269912   0.996   4.401   0.669  0.1450 -0.2466 -0.6065
16166TIP3    H169913   1.057   4.355   0.612  0.6484 -1.1002  0.5656
16166TIP3    H269914   0.955   4.332   0.721 -1.5469  0.3487 -1.0855
16167TIP3   OH269915   1.542   5.882  12.105  0.1649  0.0531 -0.3519
16167TIP3    H169916   1.480   5.817  12.138  0.1581  0.7294  1.0325
16167TIP3    H269917   1.541   5.870  12.010 -1.4494 -0.5188 -0.2911
16168TIP3   OH269918   1.428   5.780   5.179  0.5737 -0.0741 -0.0147
16168TIP3    H169919   1.456   5.822   5.260  1.8743 -2.5811  0.9304
16168TIP3    H269920   1.510   5.762   5.132  0.0488 -1.0444 -0.5951
16169TIP3   OH269921   6.765   5.813   5.026  0.0801  0.1189  0.2500
16169TIP3    H169922   6.829   5.804   4.956 -2.1366 -0.0547 -1.8988
16169TIP3    H269923   6.712   5.888   5.001 -1.6076 -0.7492  1.0071
16170TIP3   OH269924   3.113   2.715  16.773 -0.3799 -0.1562 -0.0830
16170TIP3    H169925   3.194   2.722  16.723 -0.6220 -0.0463 -0.4659
16170TIP3    H269926   3.047   2.760  16.719 -0.7419 -0.4334  0.1202
16171TIP3   OH269927   2.564   6.162   2.670 -0.1799 -0.5458  0.3133
16171TIP3    H169928   2.595   6.141   2.583 -1.2450  0.0104 -0.2203
16171TIP3    H269929   2.472   6.187   2.658 -0.1436  0.2415  1.4822
16172TIP3   OH269930   6.220   5.784   4.128  0.3941 -0.4286 -0.4140
16172TIP3    H169931   6.168   5.817   4.054 -1.1489 -0.5104  0.5861
16172TIP3    H269932   6.282   5.855   4.147 -0.6415  0.5249 -0.4387
16173TIP3   OH269933   1.037   4.521   2.449 -0.6311  0.1052  0.7667
16173TIP3    H169934   1.019   4.457   2.380  1.4217 -0.2619  0.5121
16173TIP3    H269935   1.015   4.606   2.409  1.9384  0.0591 -0.9768
16174TIP3   OH269936   2.125   4.005  11.748  0.0868  0.5989 -0.1348
16174TIP3    H169937   2.156   3.937  11.688  0.2226  0.8846 -0.3910
16174TIP3    H269938   2.205   4.041  11.786 -0.0171  0.0864  0.5955
16175TIP3   OH269939   3.813   6.539  15.442  0.5379  0.8168 -0.3445
16175TIP3    H169940   3.843   6.607  15.502 -2.4276  1.9170  0.0610
16175TIP3    H269941   3.748   6.490  15.492  0.3129 -0.2896 -1.6631
16176TIP3   OH269942   3.572   0.221  14.232 -0.3322  0.4471 -0.0314
16176TIP3    H169943   3.589   0.274  14.309  0.9521  0.0998 -0.0603
16176TIP3    H269944   3.657   0.212  14.189 -1.0783  0.9257 -1.6901
16177TIP3   OH269945   6.289   5.071   5.420  0.0785  0.7663 -0.2135
16177TIP3    H169946   6.316   5.086   5.510  0.7679  0.9791 -0.4506
16177TIP3    H269947   6.370   5.073   5.369 -0.1563 -0.5261 -0.6911
16178TIP3   OH269948   3.272   0.681   3.653  0.2125  0.0769  0.0186
16178TIP3    H169949   3.230   0.629   3.585  1.0665  0.1066 -0.5532
16178TIP3    H269950   3.360   0.697   3.619  1.1800 -1.1629  1.7663
16179TIP3   OH269951   5.409   3.653  14.132 -0.4898 -0.5353  0.8524
16179TIP3    H169952   5.455   3.633  14.051 -0.3856  0.7439  0.5694
16179TIP3    H269953   5.436   3.584  14.193  0.9054 -0.4551  0.3603
16180TIP3   OH269954   1.507   0.431   1.091 -0.8196  0.8166 -0.0132
16180TIP3    H169955   1.442   0.483   1.045 -0.8651 -0.2434 -1.1988
16180TIP3    H269956   1.578   0.493   1.111 -0.6426  1.2561 -1.8380
16181TIP3   OH269957   4.713   0.122   3.220 -0.6474  0.2662 -0.4094
16181TIP3    H169958   4.750   0.203   3.184 -0.6213  0.3098 -0.2864
16181TIP3    H269959   4.645   0.152   3.281  0.5703  0.2684  1.0021
16182TIP3   OH269960   6.588   6.724   1.744 -0.1853 -0.6125 -0.1130
16182TIP3    H169961   6.645   6.671   1.690 -1.1842 -1.0177 -0.8051
16182TIP3    H269962   6.586   6.810   1.700  3.2105  0.8560  2.2006
16183TIP3   OH269963   6.314   4.176  11.512 -0.0937 -0.5228  0.6731
16183TIP3    H169964   6.356   4.251  11.554 -0.2826  1.1670 -1.9101
16183TIP3    H269965   6.384   4.134  11.462 -0.5416 -0.4603 -0.0103
16184TIP3   OH269966   2.667   3.986   2.056  0.3690  0.2667  0.2671
16184TIP3    H169967   2.733   3.920   2.033 -0.6403  0.0237 -2.2317
16184TIP3    H269968   2.718   4.067   2.067  1.2593 -0.2346 -0.0399
16185TIP3   OH269969   4.574   0.379  16.072  0.1622  0.6560  0.1355
16185TIP3    H169970   4.571   0.415  15.983  0.3457 -0.5659 -0.3760
16185TIP3    H269971   4.618   0.447  16.124  0.3594  1.2393 -0.7786
16186TIP3   OH269972   3.092   5.639  14.075 -0.3712 -0.2879  0.0988
16186TIP3    H169973   3.138   5.559  14.052 -0.3651 -0.0028 -0.9274
16186TIP3    H269974   3.158   5.708  14.067  0.3852 -0.4235  3.6091
16187TIP3   OH269975   2.001   0.738  15.250  0.2908 -0.3285  0.0348
16187TIP3    H169976   1.908   0.754  15.237  0.4006  0.3541  0.0512
16187TIP3    H269977   2.041   0.825  15.248  0.9516 -0.6293 -0.1752
16188TIP3   OH269978   2.644   3.766  15.934  0.4065 -0.2733  0.0796
16188TIP3    H169979   2.611   3.821  15.862 -0.9762 -0.4073  0.5697
16188TIP3    H269980   2.570   3.762  15.995  1.5332 -0.2137  1.4797
16189TIP3   OH269981   5.029   5.269  14.938  0.4955 -0.1832  0.0062
16189TIP3    H169982   5.107   5.297  14.985  1.3217  0.2204 -1.5608
16189TIP3    H269983   5.038   5.307  14.850 -0.9483 -0.9895 -0.5261
16190TIP3   OH269984   2.004   1.481   5.446 -0.4191 -0.0669 -0.2252
16190TIP3    H169985   2.026   1.556   5.391 -1.3115  0.3142 -0.0865
16190TIP3    H269986   2.058   1.409   5.412  0.5356  0.6542 -0.2811
16191TIP3   OH269987   3.771   6.408   0.970  0.1458 -0.7026 -0.9258
16191TIP3    H169988   3.769   6.313   0.957  0.2934 -0.5795 -1.9840
16191TIP3    H269989   3.694   6.440   0.924  0.3020 -0.2760 -0.8935
16192TIP3   OH269990   1.241   3.656  16.884 -0.3730 -0.3252 -1.1292
16192TIP3    H169991   1.240   3.749  16.860  1.2487 -0.0771 -0.4370
16192TIP3    H269992   1.285   3.613  16.810 -1.9391 -0.7143 -1.8717
16193TIP3   OH269993   0.773   6.327  17.235  0.2271  0.2013  0.1146
16193TIP3    H169994   0.687   6.290  17.217 -0.4653  1.1071  1.4405
16193TIP3    H269995   0.827   6.297  17.162 -1.0841 -0.7528 -0.5087
16194TIP3   OH269996   0.627   6.450  14.854  0.0165  0.2379  0.2680
16194TIP3    H169997   0.662   6.535  14.826 -4.2010  1.3834 -2.5658
16194TIP3    H269998   0.692   6.387  14.824  1.8400  2.2987 -0.4159
16195TIP3   OH269999   0.988   5.610  16.945  0.5260 -0.3990  0.0369
16195TIP3    H170000   1.079   5.580  16.951  0.8839 -0.0943 -2.5734
16195TIP3    H270001   0.955   5.571  16.864 -0.8977  1.3843 -0.3099
16196TIP3   OH270002   4.779   1.500  12.444  0.1365  0.4157  0.4727
16196TIP3    H170003   4.742   1.458  12.522 -0.8573 -1.2338 -0.7970
16196TIP3    H270004   4.771   1.594  12.460 -2.4124  0.1258  1.3430
16197TIP3   OH270005   0.744   6.159   5.793 -0.0357  0.4809  0.0027
16197TIP3    H170006   0.760   6.219   5.720  1.0249 -1.1164 -1.1509
16197TIP3    H270007   0.822   6.104   5.796 -0.8655 -0.6788  1.1683
16198TIP3   OH270008   3.348   2.891  13.598 -0.6174  0.1012 -0.4530
16198TIP3    H170009   3.418   2.855  13.544 -0.0095  1.0598 -0.3283
16198TIP3    H270010   3.267   2.856  13.560 -0.0717 -1.1110 -0.5242
16199TIP3   OH270011   0.172   1.340  16.001  0.2564  0.4634  0.4339
16199TIP3    H170012   0.127   1.423  16.018 -0.3090  0.2464  0.0092
16199TIP3    H270013   0.114   1.274  16.038  0.8664  0.2717  1.0730
16200TIP3   OH270014   1.378   2.260   4.280 -0.2771  0.2007  0.0635
16200TIP3    H170015   1.382   2.198   4.352  0.4001  0.6724  0.4412
16200TIP3    H270016   1.405   2.344   4.318 -1.0485  0.7080 -0.4628
16201TIP3   OH270017   3.369   5.639  16.728 -0.2210  0.0582 -0.1031
16201TIP3    H170018   3.327   5.602  16.650 -0.0525 -0.3540  0.0007
16201TIP3    H270019   3.321   5.720  16.744 -1.0531 -0.4634  0.0823
16202TIP3   OH270020   1.038   2.204  10.934 -0.2655 -0.0546  0.0417
16202TIP3    H170021   1.016   2.144  10.863  0.9273 -0.5229  0.0518
16202TIP3    H270022   1.102   2.264  10.896  1.8733 -1.4959  1.1903
16203TIP3   OH270023   4.024   3.494   3.868  0.2858 -0.1262 -0.3559
16203TIP3    H170024   3.975   3.554   3.924 -1.7265 -1.0175 -1.0552
16203TIP3    H270025   4.064   3.431   3.928 -1.0034 -0.4817  0.1509
16204TIP3   OH270026   1.291   3.590  11.277  0.0444 -0.2639 -0.4783
16204TIP3    H170027   1.380   3.602  11.308  0.5964 -0.9651 -1.7202
16204TIP3    H270028   1.238   3.585  11.357  1.0395  0.5924  0.2561
16205TIP3   OH270029   2.014   4.844   5.547 -0.0429 -0.4470  0.0800
16205TIP3    H170030   2.049   4.932   5.564 -2.3636  0.3868  0.8858
16205TIP3    H270031   1.979   4.816   5.631 -0.7182 -1.5021 -0.5373
16206TIP3   OH270032   4.145   5.107  15.614 -0.1078 -0.4808 -0.1469
16206TIP3    H170033   4.156   5.190  15.659  0.6606  0.3976 -1.8414
16206TIP3    H270034   4.138   5.042  15.684  0.5424  0.8449  1.2082
16207TIP3   OH270035   4.174   1.517   5.297 -0.3156  0.4046  0.2727
16207TIP3    H170036   4.190   1.520   5.202  0.2171 -1.1852  0.2754
16207TIP3    H270037   4.254   1.477   5.333 -0.7416  0.4758  1.3269
16208TIP3   OH270038   5.423   1.078   4.680  0.4355  0.0093  0.3079
16208TIP3    H170039   5.412   0.988   4.650  0.1669 -0.1898  0.9846
16208TIP3    H270040   5.362   1.129   4.627  1.2059 -0.0682 -0.6791
16209TIP3   OH270041   0.442   5.432   0.270 -0.3720  0.0344 -0.2795
16209TIP3    H170042   0.395   5.351   0.251 -0.1252  0.0823 -1.0935
16209TIP3    H270043   0.398   5.499   0.218 -1.1259  0.6119  1.0353
16210TIP3   OH270044   5.108   2.402  12.585 -0.3849  0.2329  0.3367
16210TIP3    H170045   5.025   2.428  12.625 -0.7890 -0.9443  0.3125
16210TIP3    H270046   5.153   2.485  12.566 -1.9319  0.9289 -0.4692
16211TIP3   OH270047   0.078   1.270   5.527  0.8185  0.1261  0.3216
16211TIP3    H170048   0.128   1.196   5.494  0.2559  0.2314 -0.7925
16211TIP3    H270049   0.016   1.232   5.588 -0.4988 -0.5554 -1.3696
16212TIP3   OH270050   3.795   6.770  14.009  0.1099  0.5911 -0.4112
16212TIP3    H170051   3.735   6.740  14.077  0.4632  0.7048 -0.0439
16212TIP3    H270052   3.838   6.847  14.047 -1.9063  2.5892 -1.8930
16213TIP3   OH270053   3.508   3.007  11.324  0.0777  0.0160  0.2785
16213TIP3    H170054   3.578   3.063  11.292  0.8282 -0.8766  0.3098
16213TIP3    H270055   3.427   3.051  11.297  0.6639  0.1593 -1.3595
16214TIP3   OH270056   5.390   3.750   5.684  0.4088 -0.3495 -0.2295
16214TIP3    H170057   5.404   3.672   5.737  0.4241  0.1347  0.4993
16214TIP3    H270058   5.473   3.764   5.638  0.3109 -0.9188 -0.5820
16215TIP3   OH270059   3.727   6.188  17.247  0.3171 -0.7009  0.6370
16215TIP3    H170060   3.661   6.120  17.256 -0.5855  0.1314  0.5054
16215TIP3    H270061   3.757   6.204  17.337 -3.6386  2.7002  1.6881
16216TIP3   OH270062   6.242   4.656   0.236 -0.1586 -0.0565  0.1239
16216TIP3    H170063   6.296   4.577   0.227 -0.2943 -0.0823 -0.4733
16216TIP3    H270064   6.274   4.698   0.316  1.6570  0.6170 -0.8924
16217TIP3   OH270065   4.131   5.585  13.983 -0.0365 -0.3551 -0.1531
16217TIP3    H170066   4.219   5.552  14.000  0.7111  1.3852 -0.4780
16217TIP3    H270067   4.100   5.531  13.910  1.5309  0.2339 -1.3275
16218TIP3   OH270068   1.082   0.217   2.254 -0.0838 -0.2052 -0.1159
16218TIP3    H170069   1.100   0.127   2.228  0.1700 -0.1992  0.0266
16218TIP3    H270070   1.147   0.269   2.207 -0.2105 -0.1006 -0.1756
16219TIP3   OH270071   2.025   0.600   5.004  0.3476 -0.1241  0.0560
16219TIP3    H170072   2.104   0.644   4.970 -0.6363  0.7166 -1.2245
16219TIP3    H270073   2.036   0.604   5.099  1.5648  0.5310 -0.0794
16220TIP3   OH270074   5.529   2.742  14.265 -0.2417  0.3662 -0.0737
16220TIP3    H170075   5.529   2.670  14.328  1.1666 -0.4662 -0.9736
16220TIP3    H270076   5.587   2.808  14.304  1.2206 -0.4552 -0.7808
16221TIP3   OH270077   6.059   6.555  17.090  0.5054 -0.6338 -0.4327
16221TIP3    H170078   6.010   6.482  17.052  1.1346  0.6016 -3.9974
16221TIP3    H270079   6.144   6.553  17.045  1.3108  1.0485  0.9111
16222TIP3   OH270080   5.841   5.462  13.926 -0.1184  0.6651  1.0424
16222TIP3    H170081   5.815   5.377  13.960 -1.9102  1.7184  2.5326
16222TIP3    H270082   5.925   5.480  13.968  2.7213 -2.1771 -2.7317
16223TIP3   OH270083   3.178   1.188  12.429 -0.0797  0.4357  0.3555
16223TIP3    H170084   3.144   1.107  12.391  0.4380 -0.1866  1.2031
16223TIP3    H270085   3.254   1.162  12.480 -0.1559  1.3979  0.9944
16224TIP3   OH270086   4.681   6.457  12.487 -0.5065  0.0981 -0.1815
16224TIP3    H170087   4.735   6.388  12.525 -0.9136 -0.3890 -0.4675
16224TIP3    H270088   4.656   6.423  12.401  1.1973  1.5725 -1.3338
16225TIP3   OH270089   3.009   1.913  16.754 -0.0836 -0.1842  0.7456
16225TIP3    H170090   2.972   1.982  16.700  1.6431 -0.3488 -0.7613
16225TIP3    H270091   3.071   1.959  16.811 -2.1631  0.0430  2.9812
16226TIP3   OH270092   5.945   4.541   6.193 -0.0238  0.0768 -0.3471
16226TIP3    H170093   5.936   4.636   6.186 -0.8709  0.0255 -0.0529
16226TIP3    H270094   5.902   4.507   6.115  0.2707 -0.0727 -0.4464
16227TIP3   OH270095   1.278   1.388   5.178  0.1555 -0.2924 -0.1108
16227TIP3    H170096   1.349   1.363   5.238 -1.6500 -1.6942  1.5515
16227TIP3    H270097   1.324   1.420   5.100  2.6064  0.2919  1.4507
16228TIP3   OH270098   1.100   0.195  14.404  0.4836 -0.6847  0.0279
16228TIP3    H170099   1.168   0.214  14.469 -0.6627  1.6750  0.6285
16228TIP3    H270100   1.018   0.199  14.453 -0.3402  0.1480 -1.3619
16229TIP3   OH270101   5.750   3.653  15.684  0.8325 -0.1893 -0.2406
16229TIP3    H170102   5.706   3.585  15.735  1.3889 -1.7908 -1.8037
16229TIP3    H270103   5.684   3.682  15.621  0.9703 -0.1832 -0.3821
16230TIP3   OH270104   2.164   1.237   4.123  0.8685  0.2625  0.2695
16230TIP3    H170105   2.252   1.258   4.091  0.6081 -0.5767 -1.0977
16230TIP3    H270106   2.134   1.318   4.166  1.7039  1.0870 -0.6416
16231TIP3   OH270107   2.234   1.836   1.951 -0.0837  0.2777  0.1703
16231TIP3    H170108   2.245   1.741   1.956 -1.4129  0.1292  0.5972
16231TIP3    H270109   2.215   1.854   1.859 -0.2294  0.0732  0.1598
16232TIP3   OH270110   4.771   3.452   0.731 -0.2844 -0.0629  0.5829
16232TIP3    H170111   4.747   3.381   0.791 -1.0432  0.1751  0.5764
16232TIP3    H270112   4.700   3.454   0.667  0.1131  0.2133  0.1481
16233TIP3   OH270113   4.674   0.707  16.723  0.0369 -0.0332 -1.0659
16233TIP3    H170114   4.709   0.674  16.807  0.1479 -1.5459 -1.6710
16233TIP3    H270115   4.715   0.793  16.713 -0.0382  0.2123  0.4655
16234TIP3   OH270116   1.311   1.204  16.887 -0.5875 -0.0727 -0.1470
16234TIP3    H170117   1.323   1.135  16.952 -1.8390 -0.3316 -0.1687
16234TIP3    H270118   1.379   1.187  16.821  0.4875  0.0024  0.9015
16235TIP3   OH270119   0.444   6.498  15.522 -0.1712  0.2752  0.2474
16235TIP3    H170120   0.354   6.527  15.537 -0.1242 -0.1223  1.4395
16235TIP3    H270121   0.486   6.505  15.608  0.8452  0.1238 -0.2180
16236TIP3   OH270122   5.314   6.754  13.099 -0.2396 -0.3417 -0.1012
16236TIP3    H170123   5.218   6.759  13.094 -0.2574 -0.3099  0.2445
16236TIP3    H270124   5.344   6.807  13.025 -0.4823  1.0838  0.7741
16237TIP3   OH270125   5.956   2.329   2.958  0.3080  0.9016 -0.5049
16237TIP3    H170126   5.930   2.413   2.920 -0.5555  0.4834 -0.8718
16237TIP3    H270127   5.885   2.269   2.934  0.1285  0.4270  1.0542
16238TIP3   OH270128   6.399   0.470  14.819  0.6495  0.3127 -0.2846
16238TIP3    H170129   6.422   0.543  14.877  0.4916  0.5703 -0.5411
16238TIP3    H270130   6.353   0.408  14.875  0.8721  0.3629 -0.0423
16239TIP3   OH270131   5.381   2.754   5.459  0.5877  0.2241  0.9947
16239TIP3    H170132   5.357   2.675   5.411  0.4513 -0.0036  1.4350
16239TIP3    H270133   5.347   2.740   5.548 -2.2894  2.0871  0.3394
16240TIP3   OH270134   2.486   0.881   3.734 -0.0749 -0.4319 -0.4420
16240TIP3    H170135   2.470   0.945   3.804  0.3053  0.0542 -0.7965
16240TIP3    H270136   2.581   0.878   3.725 -0.0460 -1.6617  0.1268
16241TIP3   OH270137   4.999   4.078  13.161  0.3064  0.1752  0.6241
16241TIP3    H170138   4.914   4.057  13.200 -0.2994  1.0678 -0.1869
16241TIP3    H270139   5.011   4.171  13.179  0.4541  0.3775 -0.4620
16242TIP3   OH270140   6.093   5.993  15.307  0.8048  0.6359  0.1003
16242TIP3    H170141   6.085   6.086  15.286 -0.8436  0.8203  1.3452
16242TIP3    H270142   6.009   5.955  15.279  2.0525 -0.8264 -1.8792
16243TIP3   OH270143   5.773   4.923  12.491  0.6127  0.2682  0.2759
16243TIP3    H170144   5.813   4.837  12.482  1.3778  0.4882  1.4449
16243TIP3    H270145   5.684   4.912  12.456  2.0003  0.1346 -3.7396
16244TIP3   OH270146   3.965   0.424  13.935  0.3310 -0.1381  0.2436
16244TIP3    H170147   4.041   0.466  13.895  0.9780  0.4060  1.9378
16244TIP3    H270148   3.918   0.495  13.978 -0.4298 -0.6611  0.2964
16245TIP3   OH270149   5.194   2.614  13.146  0.1920  0.1805  0.6514
16245TIP3    H170150   5.149   2.678  13.201 -0.5851 -1.1376  1.6104
16245TIP3    H270151   5.242   2.559  13.207 -0.9203 -1.5018  0.0947
16246TIP3   OH270152   3.004   4.961  15.716  0.1447 -0.5091  0.3030
16246TIP3    H170153   3.006   5.051  15.749 -0.1197 -0.6266  0.6397
16246TIP3    H270154   3.084   4.921  15.750 -1.0494 -1.2141  2.4812
16247TIP3   OH270155   5.588   1.051   5.664 -0.2482 -0.2366 -0.4093
16247TIP3    H170156   5.506   1.090   5.695 -1.4591 -0.9499 -2.5008
16247TIP3    H270157   5.565   0.960   5.644  1.3221 -0.7262 -0.1127
16248TIP3   OH270158   1.850   4.849  15.828 -0.1891  0.4531  0.2996
16248TIP3    H170159   1.855   4.826  15.735  0.3093  0.3669  0.3424
16248TIP3    H270160   1.938   4.830  15.862 -0.8698 -1.3087  1.2061
16249TIP3   OH270161   1.599   2.693  15.307 -0.4073 -0.1996  0.3022
16249TIP3    H170162   1.523   2.703  15.250 -0.0268  1.1408 -0.0300
16249TIP3    H270163   1.565   2.702  15.396 -0.8015 -0.8749  0.2257
16250TIP3   OH270164   4.243   0.410   5.293 -0.0789  0.0630  0.7867
16250TIP3    H170165   4.206   0.359   5.365 -1.2683 -0.5830 -0.2398
16250TIP3    H270166   4.333   0.378   5.285 -1.2373 -3.2095 -0.8791
16251TIP3   OH270167   1.738   1.767  15.345 -0.5282 -0.3866  0.3292
16251TIP3    H170168   1.708   1.803  15.261  0.5945 -2.4278 -1.0135
16251TIP3    H270169   1.699   1.680  15.349  0.9398 -1.0343  1.0561
16252TIP3   OH270170   4.051   1.740   4.311  0.2765  0.2382  0.7868
16252TIP3    H170171   4.006   1.799   4.250 -1.8640  1.9716  3.7406
16252TIP3    H270172   4.118   1.796   4.352  0.1855 -0.2355  1.5844
16253TIP3   OH270173   1.880   4.468  15.784 -0.2314 -0.6546  0.6647
16253TIP3    H170174   1.920   4.539  15.733 -0.3562 -0.7425  0.4415
16253TIP3    H270175   1.787   4.471  15.760 -0.0389 -1.6667 -0.2776
16254TIP3   OH270176   3.334   3.037   2.786  0.3424  0.3178 -0.1181
16254TIP3    H170177   3.386   2.978   2.840 -3.6675 -0.0461  3.8045
16254TIP3    H270178   3.267   2.982   2.747 -0.1925  1.5112 -0.9449
16255TIP3   OH270179   6.751   2.373  13.962 -0.1458  0.0049  0.4536
16255TIP3    H170180   6.675   2.410  13.916  0.8628 -1.1144 -2.3140
16255TIP3    H270181   6.822   2.434  13.944  0.5756 -1.1261 -0.6961
16256TIP3   OH270182   3.058   4.761   5.100 -0.0961 -0.1287  0.4295
16256TIP3    H170183   2.983   4.718   5.061  0.4543 -0.5971 -0.1279
16256TIP3    H270184   3.047   4.747   5.194 -1.2680  0.7488  0.4473
16257TIP3   OH270185   4.645   6.218   6.355 -0.3375 -0.1683 -0.7944
16257TIP3    H170186   4.739   6.207   6.340 -0.1523  1.1448 -0.7164
16257TIP3    H270187   4.639   6.265   6.438 -1.0753 -0.4306 -0.6909
16258TIP3   OH270188   1.144   4.237  15.763 -0.4178  0.1858  0.2337
16258TIP3    H170189   1.196   4.275  15.834 -0.3633 -0.2077  0.4062
16258TIP3    H270190   1.199   4.167  15.728 -0.8228 -0.2291  0.4129
16259TIP3   OH270191   4.320   6.656   0.969  0.1465 -0.0912 -0.4513
16259TIP3    H170192   4.310   6.612   0.885  0.4469 -0.5385 -0.2545
16259TIP3    H270193   4.268   6.605   1.031  1.1370 -0.6562 -0.0598
16260TIP3   OH270194   6.599   1.438  16.414 -0.0794  0.8065 -0.2261
16260TIP3    H170195   6.523   1.399  16.458  1.3353 -0.4298  1.2653
16260TIP3    H270196   6.665   1.369  16.414  0.3848  1.0866 -3.5017
16261TIP3   OH270197   4.306   6.166  14.251 -0.2848 -0.1136 -0.1194
16261TIP3    H170198   4.248   6.206  14.316  1.4314  1.8411  0.3238
16261TIP3    H270199   4.360   6.105  14.301  2.1851  2.6014  0.7818
16262TIP3   OH270200   1.498   3.292   3.699  0.1487 -0.1705  0.0297
16262TIP3    H170201   1.564   3.346   3.655  0.4915 -1.7838 -1.5578
16262TIP3    H270202   1.489   3.332   3.786 -0.4213  3.0630 -1.3655
16263TIP3   OH270203   0.090   5.507   0.428  0.4753  0.4299 -0.2884
16263TIP3    H170204   0.102   5.419   0.464 -0.9486  0.1340 -0.4921
16263TIP3    H270205   0.018   5.545   0.479  1.3379  1.6519  0.0710
16264TIP3   OH270206   1.684   4.872   2.994  0.3394 -0.0783  0.4501
16264TIP3    H170207   1.746   4.851   3.064  1.0818  0.4693 -0.0361
16264TIP3    H270208   1.733   4.860   2.913 -0.3803 -0.2543  0.0306
16265TIP3   OH270209   4.938   5.970  13.578  0.0959 -0.2118 -0.5193
16265TIP3    H170210   4.847   5.961  13.607  0.4194  0.4252  0.7375
16265TIP3    H270211   4.935   5.947  13.485 -1.2834 -0.5588 -0.4158
16266TIP3   OH270212   5.021   4.573   5.496  0.4131  0.4563  0.0811
16266TIP3    H170213   5.057   4.578   5.407 -0.7678  0.2273 -0.4358
16266TIP3    H270214   5.059   4.648   5.542 -0.6711  1.9161 -1.2760
16267TIP3   OH270215   1.209   1.999  10.430  0.5010  0.4189  0.2812
16267TIP3    H170216   1.263   1.989  10.351 -0.1557 -1.9629  0.0486
16267TIP3    H270217   1.141   2.062  10.405 -0.7741 -1.6223 -1.7467
16268TIP3   OH270218   4.881   5.817  12.577  0.2420 -0.2878  0.0599
16268TIP3    H170219   4.970   5.849  12.566 -0.0360  1.3391  1.9295
16268TIP3    H270220   4.852   5.791  12.490  2.5200 -0.8512 -0.5760
16269TIP3   OH270221   2.599   2.540  15.922  1.0761 -0.6875  0.1947
16269TIP3    H170222   2.628   2.558  16.011  0.9590 -0.5818  0.2121
16269TIP3    H270223   2.648   2.462  15.895  0.5247 -1.1907  0.6376
16270TIP3   OH270224   3.276   4.495   4.524  0.0493  0.0483  0.2645
16270TIP3    H170225   3.315   4.533   4.603 -0.2973 -1.1736  1.0519
16270TIP3    H270226   3.338   4.518   4.454 -0.4534  2.5703  0.5447
16271TIP3   OH270227   0.818   0.172  14.501 -0.5044 -0.0739 -0.5844
16271TIP3    H170228   0.792   0.219  14.580 -0.7081  1.1371 -1.3465
16271TIP3    H270229   0.736   0.159  14.453  0.0021  2.4581 -2.3021
16272TIP3   OH270230   4.525   1.299   2.701  0.6539 -0.0426  0.3597
16272TIP3    H170231   4.572   1.293   2.783  0.9208 -0.6841  0.1643
16272TIP3    H270232   4.479   1.215   2.693 -0.9943  0.7595  0.8201
16273TIP3   OH270233   3.159   3.544  12.806 -0.1619 -0.1812  0.2123
16273TIP3    H170234   3.217   3.501  12.743  0.4239 -2.0605  1.9266
16273TIP3    H270235   3.075   3.552  12.761 -0.0649 -2.4756 -0.4815
16274TIP3   OH270236   0.532   1.183   1.768  0.2259  0.0387 -0.6911
16274TIP3    H170237   0.477   1.239   1.823  0.2971  1.9738 -2.4805
16274TIP3    H270238   0.472   1.115   1.736 -0.1321 -0.2763  0.5528
16275TIP3   OH270239   5.501   4.298   5.965 -0.0986  0.5385 -0.6198
16275TIP3    H170240   5.476   4.223   5.911 -0.6102 -0.5008  0.9741
16275TIP3    H270241   5.576   4.267   6.016  1.2265  1.9316 -1.6309
16276TIP3   OH270242   4.037   4.989  14.918  0.0316 -0.0947  0.3892
16276TIP3    H170243   4.081   4.953  14.841 -0.8127  0.7008 -0.4980
16276TIP3    H270244   3.995   4.913  14.959  0.6942 -0.5649  0.2179
16277TIP3   OH270245   6.690   2.488   0.525 -0.0339 -0.1829  0.4511
16277TIP3    H170246   6.639   2.539   0.462 -0.2432 -0.4867  0.3721
16277TIP3    H270247   6.746   2.432   0.470  0.1141 -0.1174  0.5359
16278TIP3   OH270248   2.847   6.306  14.952 -0.2565  0.2755 -0.9150
16278TIP3    H170249   2.795   6.378  14.916 -0.7024 -0.5077 -1.9052
16278TIP3    H270250   2.882   6.340  15.034 -1.0538  1.3635 -1.0036
16279TIP3   OH270251   0.301   6.347   1.919 -0.5019 -0.2486 -0.0379
16279TIP3    H170252   0.286   6.370   1.827  3.5896  2.3811 -0.3198
16279TIP3    H270253   0.259   6.417   1.969 -1.4865 -0.8961  0.0710
16280TIP3   OH270254   4.734   4.455  10.415 -0.9718  0.1483 -0.2085
16280TIP3    H170255   4.681   4.456  10.495 -0.5010  0.3696  0.1102
16280TIP3    H270256   4.819   4.491  10.443 -1.2231  1.5067 -1.1007
16281TIP3   OH270257   2.525   1.237  14.925  0.3168  0.4522 -0.3838
16281TIP3    H170258   2.531   1.190  14.842 -1.2482  0.9414 -0.8187
16281TIP3    H270259   2.489   1.174  14.987 -0.2330  0.5985 -0.5501
16282TIP3   OH270260   5.188   1.085   3.047 -0.1475 -0.2117 -0.3469
16282TIP3    H170261   5.222   1.163   3.004  2.3186 -1.0491 -0.1110
16282TIP3    H270262   5.113   1.116   3.098  0.2337  1.8223 -0.9320
16283TIP3   OH270263   4.256   3.968  10.705  0.3443 -0.1372 -0.0437
16283TIP3    H170264   4.225   4.058  10.696 -1.1393 -0.8493 -4.0404
16283TIP3    H270265   4.351   3.976  10.713  0.1508  1.7422  1.1019
16284TIP3   OH270266   3.927   2.919   4.492 -0.4456 -0.4466 -0.7202
16284TIP3    H170267   3.936   2.838   4.442 -1.8241 -2.0973  1.4947
16284TIP3    H270268   3.851   2.963   4.453 -0.8339 -1.1710 -0.7990
16285TIP3   OH270269   4.558   2.424  14.588  0.5452 -1.0504 -0.6099
16285TIP3    H170270   4.548   2.457  14.498 -0.3869  1.0117  0.1980
16285TIP3    H270271   4.647   2.388  14.590  1.1985  0.3887 -1.8976
16286TIP3   OH270272   2.330   0.541  14.707 -0.2143  0.1273  0.0991
16286TIP3    H170273   2.337   0.459  14.658  0.1043 -0.3557  0.9258
16286TIP3    H270274   2.249   0.581  14.674 -0.3242 -0.4687 -0.3889
16287TIP3   OH270275   2.721   3.309  12.467 -0.2957  0.1016 -0.1490
16287TIP3    H170276   2.649   3.323  12.405  0.6747 -0.6108 -1.4986
16287TIP3    H270277   2.678   3.294  12.551 -1.7870 -1.1736 -1.0833
16288TIP3   OH270278   0.834   5.228  14.054 -0.1669  0.2287  0.3568
16288TIP3    H170279   0.891   5.204  13.981 -1.7142  0.6191 -1.0214
16288TIP3    H270280   0.818   5.145  14.100 -0.0354 -0.2152 -0.3835
16289TIP3   OH270281   0.710   4.373  15.390 -0.8154 -0.4078 -0.7748
16289TIP3    H170282   0.757   4.349  15.311 -0.1949 -0.4860 -0.3816
16289TIP3    H270283   0.629   4.414  15.357 -1.1909 -1.6407 -1.4407
16290TIP3   OH270284   3.311   6.725  16.299  0.3549 -0.3273 -0.1817
16290TIP3    H170285   3.353   6.759  16.220 -0.9389  0.0622 -0.7288
16290TIP3    H270286   3.218   6.742  16.286 -0.2055 -2.6387  0.2384
16291TIP3   OH270287   1.597   4.395  16.805  0.3552  0.5891  0.0065
16291TIP3    H170288   1.690   4.400  16.783  0.4909 -1.3453 -0.0234
16291TIP3    H270289   1.588   4.311  16.850 -1.7654 -0.3482 -2.0149
16292TIP3   OH270290   0.745   5.628  15.602  0.0162  0.5289  0.3302
16292TIP3    H170291   0.825   5.599  15.560 -0.7692  1.0831 -1.7261
16292TIP3    H270292   0.678   5.566  15.572 -0.3614  0.1130  1.9497
16293TIP3   OH270293   3.272   0.117  16.070  0.6182 -0.1921 -0.1099
16293TIP3    H170294   3.228   0.171  16.004 -2.8542  1.8825  3.4342
16293TIP3    H270295   3.326   0.179  16.119 -0.7348 -0.4909  1.8959
16294TIP3   OH270296   2.684   4.819  15.974 -0.5932  0.4337 -0.5821
16294TIP3    H170297   2.686   4.825  15.878  1.3648 -0.2328 -0.6117
16294TIP3    H270298   2.775   4.806  16.000 -1.1704 -0.1732  1.3286
16295TIP3   OH270299   4.936   0.258  13.654  0.3466  0.4684 -0.4389
16295TIP3    H170300   4.954   0.351  13.642 -0.4425  0.7096  0.1333
16295TIP3    H270301   4.880   0.234  13.580  0.1201  0.5756 -0.3020
16296TIP3   OH270302   2.582   2.241  13.158 -0.6453  0.1725  0.3516
16296TIP3    H170303   2.541   2.278  13.080 -1.1538  1.0533  1.0161
16296TIP3    H270304   2.526   2.167  13.181 -0.8228  0.2580  0.2020
16297TIP3   OH270305   2.366   4.847  16.892  0.1384 -0.4697  0.3073
16297TIP3    H170306   2.396   4.937  16.886  2.0769 -1.1502 -2.8618
16297TIP3    H270307   2.274   4.849  16.865  1.0969  0.2979 -3.4247
16298TIP3   OH270308   4.092   2.455  12.155  0.7358  0.4545  0.1444
16298TIP3    H170309   4.034   2.529  12.175 -0.2087 -0.6132  1.5787
16298TIP3    H270310   4.138   2.482  12.075  1.2648  3.0509  1.2087
16299TIP3   OH270311   0.654   3.268   5.445  0.2737 -0.3655 -0.0946
16299TIP3    H170312   0.632   3.306   5.360 -0.6780  1.1595  0.8027
16299TIP3    H270313   0.598   3.191   5.452  0.3796 -0.5219 -0.8368
16300TIP3   OH270314   6.500   3.097   0.295 -0.4218 -0.4277  0.6992
16300TIP3    H170315   6.589   3.107   0.263 -0.3391  0.0652  1.0623
16300TIP3    H270316   6.447   3.154   0.239 -0.7512 -1.8233 -0.4579
16301TIP3   OH270317   2.880   1.551  14.174  0.0786 -0.0350  0.1214
16301TIP3    H170318   2.885   1.608  14.097  3.9740  1.7175  1.4034
16301TIP3    H270319   2.824   1.597  14.235 -1.3638 -0.4426 -0.8331
16302TIP3   OH270320   4.742   3.163  13.913 -0.5336 -0.6553 -0.0761
16302TIP3    H170321   4.804   3.208  13.970 -0.5459 -2.1078  1.1614
16302TIP3    H270322   4.732   3.221  13.838  0.1074  0.9618  1.0219
16303TIP3   OH270323   3.114   3.097  16.818  0.3855 -0.7179 -0.1164
16303TIP3    H170324   3.092   3.114  16.726 -2.2677  0.9588  0.7101
16303TIP3    H270325   3.029   3.092  16.862  1.4688 -3.8151  1.9552
16304TIP3   OH270326   4.230   4.527   1.416  0.0682 -0.0544 -0.0691
16304TIP3    H170327   4.228   4.617   1.383 -0.0452 -0.5760 -1.5575
16304TIP3    H270328   4.285   4.531   1.494 -0.9271  1.5247  0.5987
16305TIP3   OH270329   2.761   3.866  14.991 -0.2771 -0.0958 -0.6702
16305TIP3    H170330   2.715   3.802  14.936 -0.4403 -0.3476 -0.2455
16305TIP3    H270331   2.792   3.933  14.929 -0.5929 -0.2920 -1.0467
16306TIP3   OH270332   4.180   6.501  16.543 -0.2894  0.0148 -0.2078
16306TIP3    H170333   4.148   6.414  16.566  1.5537 -0.4634  0.8069
16306TIP3    H270334   4.131   6.526  16.465 -3.1332 -0.5401  1.2821
16307TIP3   OH270335   4.287   2.459   3.823  0.0858 -0.4888 -0.5098
16307TIP3    H170336   4.285   2.403   3.901 -0.1566 -1.1841 -1.0022
16307TIP3    H270337   4.290   2.548   3.857 -0.2658 -0.7787  0.3011
16308TIP3   OH270338   1.312   0.554  17.227 -0.1441  0.2155  0.5028
16308TIP3    H170339   1.405   0.575  17.228  0.4385 -2.2100  1.9920
16308TIP3    H270340   1.272   0.621  17.283  0.5535  1.5952 -0.5612
16309TIP3   OH270341   3.532   1.407  12.091  1.0259  0.3264 -0.2441
16309TIP3    H170342   3.560   1.322  12.055  2.0217  1.2869 -1.8744
16309TIP3    H270343   3.597   1.427  12.158  0.4043 -0.4812  0.6272
16310TIP3   OH270344   1.595   2.767   5.390  0.2470  0.3645  0.2136
16310TIP3    H170345   1.500   2.763   5.381 -0.0506  2.9881  1.4209
16310TIP3    H270346   1.628   2.708   5.322 -2.2180 -1.2132  0.2790
16311TIP3   OH270347   2.584   0.193   0.687  0.6912  0.2789  0.4150
16311TIP3    H170348   2.597   0.225   0.598 -1.5202  0.9623  0.2714
16311TIP3    H270349   2.501   0.145   0.683  2.2653 -2.8186  1.3476
16312TIP3   OH270350   0.960   5.391   0.332 -0.6412 -0.2609  1.0281
16312TIP3    H170351   0.976   5.482   0.356 -0.8627 -0.4138  1.7989
16312TIP3    H270352   0.887   5.395   0.270 -0.5130  0.0999  0.8991
16313TIP3   OH270353   2.773   3.275   1.974  0.4726  0.3351 -0.0616
16313TIP3    H170354   2.732   3.354   1.937  2.9716  1.7423 -0.0480
16313TIP3    H270355   2.819   3.236   1.900  1.2699  0.2757  0.4622
16314TIP3   OH270356   4.133   4.462  15.101  0.2281 -0.2475  0.3304
16314TIP3    H170357   4.227   4.469  15.117  0.2753  0.4729 -0.2422
16314TIP3    H270358   4.124   4.465  15.005 -0.5248  1.8712  0.4082
16315TIP3   OH270359   4.148   6.005   1.367 -0.4599 -0.1763  0.3565
16315TIP3    H170360   4.072   5.976   1.316 -1.9123  2.6743  0.6961
16315TIP3    H270361   4.191   6.070   1.311 -0.2222  0.6531  1.4628
16316TIP3   OH270362   5.598   3.567   2.171  0.4910  0.1695  0.6426
16316TIP3    H170363   5.535   3.560   2.099 -0.1702  0.2518  1.1993
16316TIP3    H270364   5.683   3.550   2.131  0.1077  0.0166 -0.1170
16317TIP3   OH270365   2.095   2.242  13.083  0.2331  0.5384  0.1062
16317TIP3    H170366   2.131   2.200  13.004 -1.0867 -2.1880  0.8136
16317TIP3    H270367   2.062   2.326  13.053  0.6878  0.0054 -2.0497
16318TIP3   OH270368   4.224   1.769  11.660  0.2836 -0.4819  0.6980
16318TIP3    H170369   4.256   1.859  11.651 -2.5561  0.7511  1.5140
16318TIP3    H270370   4.231   1.749  11.753 -0.7414 -0.3584  0.8198
16319TIP3   OH270371   5.753   1.346   4.877  0.8875  0.1680 -0.3567
16319TIP3    H170372   5.685   1.402   4.913  1.6748 -0.5451  2.5039
16319TIP3    H270373   5.834   1.394   4.890  1.3143 -0.5829 -0.1496
16320TIP3   OH270374   2.781   2.267  11.820 -0.1733 -0.6385 -0.3604
16320TIP3    H170375   2.805   2.280  11.911 -0.2971  0.4853 -0.4710
16320TIP3    H270376   2.703   2.211  11.823 -0.0994 -0.7092  0.2128
16321TIP3   OH270377   3.104   5.682   1.088  0.8804 -0.0371  0.1437
16321TIP3    H170378   3.153   5.676   1.006  0.7357 -0.3875  0.0794
16321TIP3    H270379   3.161   5.641   1.153  1.2003  0.6732  0.3147
16322TIP3   OH270380   5.826   1.573   5.927  0.1656  0.1678  0.0482
16322TIP3    H170381   5.853   1.610   5.842 -1.4017  0.4656 -0.3405
16322TIP3    H270382   5.893   1.507   5.946  1.1763  0.8877 -0.8540
16323TIP3   OH270383   1.851   6.731  14.525 -0.4017 -0.2550 -0.2424
16323TIP3    H170384   1.756   6.729  14.535 -0.4261 -2.6328 -0.4902
16323TIP3    H270385   1.884   6.732  14.615 -0.5742  2.4185 -0.1097
16324TIP3   OH270386   4.319   6.180   5.397  0.7225 -0.5358  0.5168
16324TIP3    H170387   4.228   6.208   5.396  0.2989 -1.7555 -1.7859
16324TIP3    H270388   4.340   6.167   5.489 -1.3417  0.0378  1.1016
16325TIP3   OH270389   4.988   2.569   0.951  0.0894  0.0790 -0.5669
16325TIP3    H170390   4.986   2.625   0.872 -2.9550  2.0602  0.7332
16325TIP3    H270391   5.024   2.626   1.019  0.5966 -0.8815 -0.0110
16326TIP3   OH270392   3.719   1.523  11.022 -0.1630  0.1052 -0.9504
16326TIP3    H170393   3.805   1.550  11.055 -0.6293 -1.5448  1.9755
16326TIP3    H270394   3.738   1.447  10.966  0.2804 -1.3371  1.0264
16327TIP3   OH270395   5.060   4.225  11.050 -0.2145  0.3737  0.2770
16327TIP3    H170396   4.978   4.272  11.034 -0.0487  0.5152 -0.1663
16327TIP3    H270397   5.033   4.146  11.098 -0.5801  0.5441  0.3578
16328TIP3   OH270398   4.379   6.184  11.295 -0.2262 -0.1328  0.3343
16328TIP3    H170399   4.417   6.120  11.235  1.7905  1.1539  0.1410
16328TIP3    H270400   4.286   6.163  11.297 -0.3681 -0.3797 -3.0781
16329TIP3   OH270401   1.305   1.131   3.795  0.1221  0.0802 -0.2717
16329TIP3    H170402   1.280   1.130   3.703 -0.2064  1.8400 -0.2325
16329TIP3    H270403   1.398   1.154   3.794  0.5545 -1.5233 -0.1986
16330TIP3   OH270404   1.041   3.167  13.231  0.7960 -0.1885  0.7974
16330TIP3    H170405   1.041   3.116  13.313  0.6118 -2.2323 -0.3903
16330TIP3    H270406   1.117   3.133  13.183 -0.3805 -0.6818 -0.8027
16331TIP3   OH270407   4.107   5.600  14.545  0.3725  0.1708 -0.2241
16331TIP3    H170408   4.057   5.518  14.548  0.8717 -0.1177  1.5092
16331TIP3    H270409   4.105   5.626  14.453  0.3729 -1.8953 -0.8635
16332TIP3   OH270410   1.204   3.035  16.395  0.3840 -0.1853  0.1412
16332TIP3    H170411   1.190   3.045  16.300  2.5575  0.6555 -0.1520
16332TIP3    H270412   1.117   3.047  16.433 -0.2520  1.3805 -1.6152
16333TIP3   OH270413   5.442   3.964   1.472 -0.0258 -0.2462  0.0369
16333TIP3    H170414   5.493   3.932   1.397 -1.0716 -0.2310 -0.6974
16333TIP3    H270415   5.409   4.049   1.444 -0.3695 -0.2054  0.5481
16334TIP3   OH270416   5.300   6.079  13.914  0.4238  0.1546 -0.2841
16334TIP3    H170417   5.316   6.032  13.996  0.8474  1.4754  0.4077
16334TIP3    H270418   5.220   6.040  13.880  1.2246 -1.6966 -0.2067
16335TIP3   OH270419   5.127   1.997  13.556 -0.1750 -0.3233 -0.1190
16335TIP3    H170420   5.173   1.916  13.577  1.1272  0.4812  0.2947
16335TIP3    H270421   5.127   2.001  13.460  2.4453  0.5833 -0.1690
16336TIP3   OH270422   5.047   3.262   1.935  0.2775 -0.5268  0.1114
16336TIP3    H170423   5.027   3.206   1.861 -0.0215  0.1026 -0.2946
16336TIP3    H270424   4.963   3.272   1.981 -0.5369  2.3201 -1.7334
16337TIP3   OH270425   3.012   5.795  16.584 -0.3544  0.2033  0.7977
16337TIP3    H170426   3.031   5.821  16.494  0.0482  0.0147  0.8294
16337TIP3    H270427   3.026   5.700  16.586 -3.3825 -0.3462  0.2739
16338TIP3   OH270428   1.457   3.178   5.949 -0.0479 -0.2156  0.1045
16338TIP3    H170429   1.366   3.206   5.956 -0.1109 -0.3550 -0.1420
16338TIP3    H270430   1.454   3.097   5.898 -0.0787 -1.7938  2.4288
16339TIP3   OH270431   1.522   1.011  15.924  0.5256  0.2650 -0.7510
16339TIP3    H170432   1.579   1.011  15.848  2.4766  1.1879  0.6274
16339TIP3    H270433   1.581   1.019  15.999 -1.4480  3.3557  0.6852
16340TIP3   OH270434   6.160   3.667   0.593 -0.1683 -1.0651  0.6364
16340TIP3    H170435   6.083   3.611   0.607  1.3828 -3.8342 -1.0255
16340TIP3    H270436   6.164   3.678   0.498 -0.4002  2.0638  0.8860
16341TIP3   OH270437   5.736   6.553  11.615  0.0008  0.1850  0.8510
16341TIP3    H170438   5.671   6.486  11.594  0.2213  0.5663 -1.3485
16341TIP3    H270439   5.684   6.633  11.628 -0.0406  0.6351 -1.5407
16342TIP3   OH270440   4.648   5.009   0.402 -0.2298 -0.1000  0.2134
16342TIP3    H170441   4.616   4.961   0.326  0.7227  0.9505 -0.8838
16342TIP3    H270442   4.743   4.994   0.402 -0.1424  0.3975  0.8491
16343TIP3   OH270443   5.653   1.280  11.246 -0.2532 -0.2322 -0.4507
16343TIP3    H170444   5.619   1.282  11.336 -0.8101 -2.0490 -0.5792
16343TIP3    H270445   5.598   1.216  11.201  0.9977 -0.4899 -1.6837
16344TIP3   OH270446   0.723   5.941  12.120  0.1364  0.4643  0.0026
16344TIP3    H170447   0.806   5.929  12.166 -0.0490  2.7500  1.0518
16344TIP3    H270448   0.747   5.942  12.027  1.1755  0.3679  0.2561
16345TIP3   OH270449   2.617   5.305   3.571  0.6848  0.0948 -0.7611
16345TIP3    H170450   2.692   5.350   3.610  1.2433  0.5143 -2.2493
16345TIP3    H270451   2.631   5.311   3.477 -1.4620  0.6018 -1.1110
16346TIP3   OH270452   0.226   6.488  11.517  0.2720  0.1775  0.5535
16346TIP3    H170453   0.161   6.556  11.502  0.3451  0.0009 -0.6526
16346TIP3    H270454   0.180   6.406  11.497  0.2813 -0.1290  1.6765
16347TIP3   OH270455   3.964   0.905  12.238 -0.5721 -0.5039  0.1110
16347TIP3    H170456   3.929   0.869  12.157  0.9405 -3.4505  0.6214
16347TIP3    H270457   4.035   0.962  12.211 -1.1049 -0.1899 -0.6537
16348TIP3   OH270458   6.380   2.530  12.716  0.0953 -0.5079 -0.0342
16348TIP3    H170459   6.429   2.456  12.681 -1.3216 -1.8492  0.6819
16348TIP3    H270460   6.371   2.591  12.642  0.1507 -1.6779 -1.0257
16349TIP3   OH270461   3.018   5.506  12.950  0.3149 -0.2776  0.1568
16349TIP3    H170462   3.040   5.420  12.913  1.3689  0.4473 -0.9924
16349TIP3    H270463   2.965   5.549  12.882 -2.0370 -0.7650  1.5825
16350TIP3   OH270464   2.600   4.984  16.687 -0.2812 -0.4569  0.3588
16350TIP3    H170465   2.671   4.925  16.662  0.0821  0.0075  0.2902
16350TIP3    H270466   2.529   4.962  16.627 -0.0958 -0.7130  0.2287
16351TIP3   OH270467   0.764   1.465  15.935  0.4549 -0.2789 -0.4273
16351TIP3    H170468   0.724   1.442  16.019  2.3958  1.7342  1.1630
16351TIP3    H270469   0.817   1.388  15.912 -2.6146 -2.2381 -1.6632
16352TIP3   OH270470   1.888   0.321   3.811 -0.0931 -0.4437 -0.3952
16352TIP3    H170471   1.828   0.297   3.741 -1.1985  2.4556 -0.5990
16352TIP3    H270472   1.948   0.384   3.770 -0.3072  0.7486  1.0263
16353TIP3   OH270473   6.136   0.258   0.768  0.7387 -0.0643 -0.4094
16353TIP3    H170474   6.124   0.188   0.832  0.5821 -0.5247 -0.9315
16353TIP3    H270475   6.128   0.215   0.683  5.3585 -0.3872 -0.9272
16354TIP3   OH270476   0.517   3.495  14.316 -0.0770  0.3764 -0.5220
16354TIP3    H170477   0.447   3.550  14.282 -1.3728  1.9614  4.0012
16354TIP3    H270478   0.473   3.416  14.349  0.8664 -0.4351 -1.1280
16355TIP3   OH270479   2.319   5.928  16.668 -0.4544 -0.2855  0.0175
16355TIP3    H170480   2.239   5.957  16.713  0.6988  1.2504  1.1739
16355TIP3    H270481   2.383   5.996  16.686  0.4210 -0.1034 -3.1122
16356TIP3   OH270482   3.709   5.648  11.988  0.3125 -0.2696  0.1974
16356TIP3    H170483   3.669   5.724  11.946 -0.4056 -0.8257 -0.1377
16356TIP3    H270484   3.636   5.591  12.012  0.7167 -0.1068  1.9773
16357TIP3   OH270485   4.989   0.432   3.596  0.0411  0.0524  0.7136
16357TIP3    H170486   5.067   0.451   3.648 -0.1627 -1.4100  1.6232
16357TIP3    H270487   4.916   0.455   3.654 -0.1902 -1.2106  0.9464
16358TIP3   OH270488   5.039   4.846   1.908 -0.0449  0.0502  0.1382
16358TIP3    H170489   5.127   4.849   1.944 -0.5615  0.5147  1.4423
16358TIP3    H270490   5.046   4.887   1.822  1.2385 -1.0748 -0.3104
16359TIP3   OH270491   4.158   4.843  14.723 -0.2055  0.6704  0.2395
16359TIP3    H170492   4.124   4.802  14.643 -0.0149 -0.3526  0.6681
16359TIP3    H270493   4.149   4.776  14.790  2.0177  0.5732  0.5240
16360TIP3   OH270494   4.523   3.494  14.751 -0.1076 -0.2177  0.3638
16360TIP3    H170495   4.541   3.575  14.799 -0.0856 -0.1526  0.2468
16360TIP3    H270496   4.499   3.431  14.819 -0.1509 -0.1060  0.4534
16361TIP3   OH270497   5.159   4.616   5.216 -0.5242 -0.0225  0.0741
16361TIP3    H170498   5.223   4.603   5.286  0.1954  0.7172 -0.4272
16361TIP3    H270499   5.192   4.691   5.167 -0.4704 -1.1009 -1.6604
16362TIP3   OH270500   4.773   0.238   2.897 -0.0397 -0.5486  0.0536
16362TIP3    H170501   4.799   0.307   2.837  0.2951 -0.9794 -0.3058
16362TIP3    H270502   4.835   0.245   2.970  0.5643 -1.0264 -0.3993
16363TIP3   OH270503   0.311   0.670  16.609 -0.5621  0.0571 -0.1455
16363TIP3    H170504   0.384   0.707  16.560 -0.5341  1.2630  0.7618
16363TIP3    H270505   0.262   0.746  16.642 -0.6668 -0.6793  1.5304
16364TIP3   OH270506   6.248   2.309  14.094  0.3851 -0.0777  0.1768
16364TIP3    H170507   6.190   2.274  14.161  0.3289  0.3225  0.3410
16364TIP3    H270508   6.318   2.244  14.086  0.8030  0.2287  1.1728
16365TIP3   OH270509   3.582   2.076  14.050 -0.4580  0.4513  0.1586
16365TIP3    H170510   3.492   2.043  14.051 -0.4735  0.3136 -2.0620
16365TIP3    H270511   3.630   2.014  14.106 -1.4323 -0.4626  0.0236
16366TIP3   OH270512   6.775   5.564  11.535 -0.1536  0.2112  0.0820
16366TIP3    H170513   6.722   5.547  11.613 -0.3545  0.6219  0.0356
16366TIP3    H270514   6.842   5.496  11.537  0.2955  0.6602  1.0176
16367TIP3   OH270515   0.771   4.385  14.790  0.8167 -0.1561  0.2136
16367TIP3    H170516   0.856   4.386  14.835  1.0241  0.5385 -0.1895
16367TIP3    H270517   0.783   4.441  14.713 -0.4488  1.2253  0.9681
16368TIP3   OH270518   5.756   5.571   4.527 -0.3418  0.0918 -0.0866
16368TIP3    H170519   5.796   5.658   4.522  0.3139 -0.1441  0.8670
16368TIP3    H270520   5.798   5.530   4.603 -0.3099 -1.2319 -0.8092
16369TIP3   OH270521   6.241   6.450  11.785 -0.1129  0.1540  0.1648
16369TIP3    H170522   6.158   6.406  11.805  0.0209  0.1061  0.6226
16369TIP3    H270523   6.216   6.535  11.749 -0.3581  0.2615  0.5858
16370TIP3   OH270524   5.552   2.970  11.872  0.0149  0.3685  0.5428
16370TIP3    H170525   5.527   3.010  11.789 -0.1234 -3.6311 -1.5964
16370TIP3    H270526   5.647   2.972  11.873  0.0466 -0.2609 -0.1667
16371TIP3   OH270527   2.709   3.678  13.681 -0.8320  0.5976 -0.8063
16371TIP3    H170528   2.614   3.669  13.691 -0.7954  0.4094 -0.6229
16371TIP3    H270529   2.727   3.652  13.591 -1.0080  1.0623 -0.9824
16372TIP3   OH270530   3.778   0.498  14.684 -0.4161  0.5805  0.0997
16372TIP3    H170531   3.810   0.450  14.761 -0.1186  0.1641 -0.2728
16372TIP3    H270532   3.856   0.512  14.631 -0.8639 -0.7436 -0.9881
16373TIP3   OH270533   0.336   6.000   1.002  0.0930 -0.0540  0.6355
16373TIP3    H170534   0.329   6.081   1.053  1.2685  0.3807  0.1498
16373TIP3    H270535   0.246   5.969   0.993 -0.3904  1.2726  0.7184
16374TIP3   OH270536   4.697   1.311   3.262 -0.3057 -0.3128  0.0061
16374TIP3    H170537   4.713   1.382   3.325 -1.9136  0.2790 -0.2232
16374TIP3    H270538   4.636   1.253   3.306  0.8231 -1.4871  0.0985
16375TIP3   OH270539   6.674   1.333  12.383  0.4508  0.2157 -0.3168
16375TIP3    H170540   6.586   1.299  12.371  0.0589  1.0389  0.1686
16375TIP3    H270541   6.721   1.262  12.426  1.0720 -1.6656 -3.7096
16376TIP3   OH270542   6.146   6.013  14.140  0.0120  0.1354 -0.3086
16376TIP3    H170543   6.219   6.066  14.174  0.2934  0.9791 -2.1237
16376TIP3    H270544   6.187   5.951  14.080 -0.4406 -1.5940  1.0556
16377TIP3   OH270545   5.807   0.651   2.122  0.4015 -0.4130 -0.3369
16377TIP3    H170546   5.776   0.579   2.067  1.5858  0.0552 -1.6739
16377TIP3    H270547   5.775   0.629   2.210 -0.5199 -1.7977 -0.9793
16378TIP3   OH270548   1.218   0.296  17.122 -0.0803  0.3490  0.4477
16378TIP3    H170549   1.240   0.382  17.159 -0.5085  0.2697  0.8988
16378TIP3    H270550   1.122   0.293  17.124 -0.3319  1.3546 -2.9720
16379TIP3   OH270551   2.548   4.280   3.034  0.4018 -0.2323 -0.4007
16379TIP3    H170552   2.589   4.194   3.038 -1.0455 -1.0292 -1.7136
16379TIP3    H270553   2.457   4.263   3.008 -0.0329  1.6633 -0.3078
16380TIP3   OH270554   3.088   6.373   3.315  0.0865 -0.5449  0.3917
16380TIP3    H170555   3.054   6.288   3.342 -0.0017 -1.1803 -1.6200
16380TIP3    H270556   3.174   6.354   3.276 -0.0715  0.2300 -0.3715
16381TIP3   OH270557   2.503   3.916  11.069 -0.1463 -0.1155  0.6775
16381TIP3    H170558   2.576   3.962  11.027 -1.2161 -0.1240 -1.3078
16381TIP3    H270559   2.445   3.891  10.997 -1.2946 -1.5990  2.0236
16382TIP3   OH270560   1.483   1.271  14.148 -0.3350 -0.1621 -0.1507
16382TIP3    H170561   1.568   1.281  14.191  0.1612  1.8855 -1.4082
16382TIP3    H270562   1.496   1.201  14.084 -0.5368 -1.9218  1.6476
16383TIP3   OH270563   0.684   1.183   4.868 -0.3574 -0.6995 -0.2543
16383TIP3    H170564   0.593   1.164   4.889 -0.3125 -0.3584  0.2724
16383TIP3    H270565   0.685   1.197   4.773 -0.9218 -0.3320 -0.2099
16384TIP3   OH270566   5.465   4.915  13.394 -0.7244 -0.2586  0.4704
16384TIP3    H170567   5.383   4.924  13.346 -1.5455 -0.8224  1.7502
16384TIP3    H270568   5.499   4.829  13.370 -0.3535  0.0762 -0.2545
16385TIP3   OH270569   5.418   5.089  14.050 -0.5091 -0.3260  0.5947
16385TIP3    H170570   5.371   5.021  14.002 -1.0218  0.3951  0.0407
16385TIP3    H270571   5.490   5.043  14.093 -1.6171 -1.4346  1.3314
16386TIP3   OH270572   1.267   4.112  17.110 -0.2144 -0.2735 -0.0788
16386TIP3    H170573   1.297   4.073  17.192  1.2414  0.9947  0.0667
16386TIP3    H270574   1.338   4.173  17.086 -3.0611  3.8586  0.8304
16387TIP3   OH270575   1.000   4.720   4.435  0.3033 -0.0344 -0.0025
16387TIP3    H170576   1.078   4.775   4.428  1.3120 -1.1820  1.5009
16387TIP3    H270577   0.977   4.723   4.528 -0.4683 -0.9946 -0.1466
16388TIP3   OH270578   0.993   4.217   4.429 -0.1121  0.4332  0.1471
16388TIP3    H170579   1.028   4.306   4.426  0.1852  0.3756  1.4620
16388TIP3    H270580   1.044   4.173   4.497  0.9918 -1.3107 -1.7068
16389TIP3   OH270581   6.615   4.965  16.465  0.6629  0.0354  0.7527
16389TIP3    H170582   6.563   4.884  16.471 -0.9286  0.8965 -0.4622
16389TIP3    H270583   6.678   4.947  16.395  0.0148 -0.0374  0.1682
16390TIP3   OH270584   2.768   3.568   4.147  0.0627 -0.5302  0.3456
16390TIP3    H170585   2.812   3.648   4.116  1.9364 -1.3890  0.6684
16390TIP3    H270586   2.686   3.565   4.097  1.6950 -0.4293 -2.5567
16391TIP3   OH270587   4.597   1.457  16.708 -0.0104 -0.2248 -0.6881
16391TIP3    H170588   4.561   1.459  16.797 -0.7644 -0.9993 -0.9639
16391TIP3    H270589   4.673   1.514  16.712  0.1337 -0.4759  0.5315
16392TIP3   OH270590   6.657   3.289  13.218  0.5705 -0.3681 -0.3658
16392TIP3    H170591   6.586   3.227  13.202  0.3925 -0.1076 -0.5941
16392TIP3    H270592   6.737   3.235  13.220  0.3363 -0.7092  0.2406
16393TIP3   OH270593   3.428   6.283  15.911 -0.3517  0.1472 -0.7002
16393TIP3    H170594   3.502   6.308  15.966 -0.9078  0.4140 -0.0718
16393TIP3    H270595   3.387   6.366  15.886  0.2449  0.0702 -2.0211
16394TIP3   OH270596   6.564   6.569   1.425 -0.0825  0.0296 -0.1920
16394TIP3    H170597   6.594   6.499   1.368 -1.4420  0.4968 -1.5696
16394TIP3    H270598   6.521   6.525   1.499 -1.0306 -0.6216 -1.1043
16395TIP3   OH270599   0.885   1.798  11.731 -0.5023 -0.2769 -0.6298
16395TIP3    H170600   0.944   1.871  11.749 -0.0770 -0.4290 -1.3658
16395TIP3    H270601   0.873   1.755  11.816 -1.4508  1.1445 -0.0026
16396TIP3   OH270602   3.837   2.311   0.267  0.6363 -0.5451 -0.1551
16396TIP3    H170603   3.770   2.334   0.203 -0.3158  1.1615  1.3828
16396TIP3    H270604   3.884   2.238   0.226 -0.1458  0.2325 -2.6106
16397TIP3   OH270605   1.423   3.499   6.115 -0.5799 -0.3520 -0.3026
16397TIP3    H170606   1.473   3.571   6.154 -0.3618 -1.3337  1.3037
16397TIP3    H270607   1.452   3.497   6.023  1.4017 -0.0985  0.2793
16398TIP3   OH270608   6.284   3.472  13.001 -0.4800  0.1345  0.5215
16398TIP3    H170609   6.340   3.511  12.933 -0.8305 -0.1007  0.0898
16398TIP3    H270610   6.225   3.543  13.026 -0.6499  0.0899  0.2503
16399TIP3   OH270611   3.265   4.553   5.220  0.3658  0.1225  0.5167
16399TIP3    H170612   3.220   4.477   5.184 -1.4402  0.5064  1.8162
16399TIP3    H270613   3.311   4.520   5.297 -0.2537  0.2726  0.9637
16400TIP3   OH270614   2.051   2.222  15.986  0.0307  0.0747 -0.2553
16400TIP3    H170615   2.077   2.160  15.918  0.0994  1.7764 -1.8789
16400TIP3    H270616   2.125   2.282  15.993 -0.4701  0.6269  0.4829
16401TIP3   OH270617   2.249   2.128  13.294  0.0204  0.6470  0.3912
16401TIP3    H170618   2.203   2.183  13.231 -0.8163 -0.6439 -0.1778
16401TIP3    H270619   2.180   2.098  13.354 -0.2786 -2.3786 -1.2419
16402TIP3   OH270620   6.451   3.466  13.500 -0.1667 -0.7656  0.2303
16402TIP3    H170621   6.416   3.475  13.411 -0.5211  2.0125  0.5582
16402TIP3    H270622   6.531   3.517  13.500 -0.2967 -0.5211  1.5563
16403TIP3   OH270623   4.570   6.544  14.472 -0.3515 -0.2273 -0.0581
16403TIP3    H170624   4.559   6.639  14.481  1.2896  0.0018 -0.1898
16403TIP3    H270625   4.497   6.507  14.522 -1.3608  1.0846 -0.4887
16404TIP3   OH270626   2.339   1.130   2.156 -0.1684  0.1945  0.6414
16404TIP3    H170627   2.270   1.110   2.092 -0.1442  0.6687  0.4612
16404TIP3    H270628   2.317   1.076   2.232 -1.8543  1.7204  1.3331
16405TIP3   OH270629   5.231   3.917  11.559 -0.1348 -0.1046  0.0400
16405TIP3    H170630   5.291   3.847  11.583 -0.4558  0.2724  2.2048
16405TIP3    H270631   5.287   3.993  11.542  0.1398 -0.5289 -1.0002
16406TIP3   OH270632   4.469   2.886  14.450  0.3321  0.0292 -0.3445
16406TIP3    H170633   4.419   2.854  14.374 -2.4853  3.4504 -0.1664
16406TIP3    H270634   4.467   2.813  14.512 -3.7548 -0.4443 -0.7688
16407TIP3   OH270635   0.314   0.687  11.747 -0.0970 -0.2132 -0.1743
16407TIP3    H170636   0.410   0.690  11.747 -0.0539 -0.0886  1.9828
16407TIP3    H270637   0.288   0.778  11.730  0.0952 -0.4683 -2.0905
16408TIP3   OH270638   0.367   3.245  12.385  0.2459  0.5272  0.0730
16408TIP3    H170639   0.328   3.325  12.350 -1.3550 -0.8174 -1.4006
16408TIP3    H270640   0.404   3.201  12.308 -2.0670 -1.8128  0.1593
16409TIP3   OH270641   4.481   0.108  16.859 -0.2761 -0.6951  0.0722
16409TIP3    H170642   4.519   0.097  16.772 -2.4418 -1.0472 -0.8945
16409TIP3    H270643   4.437   0.024  16.876 -3.2849  0.6709 -0.3167
16410TIP3   OH270644   0.449   6.569   4.414  0.4469  0.4924 -0.2439
16410TIP3    H170645   0.377   6.579   4.476 -0.0128  1.8347 -0.9583
16410TIP3    H270646   0.527   6.564   4.470  0.0725  2.0161  0.4586
16411TIP3   OH270647   3.701   3.446  15.847  0.3798  0.4861 -0.1149
16411TIP3    H170648   3.661   3.528  15.819 -0.8694 -0.3960 -1.0208
16411TIP3    H270649   3.738   3.409  15.766 -2.6543 -1.7621 -0.6440
16412TIP3   OH270650   3.247   4.441   2.118 -0.5556 -0.2023  0.2038
16412TIP3    H170651   3.297   4.436   2.199  0.3316 -2.3407 -0.3959
16412TIP3    H270652   3.299   4.496   2.060 -0.0654 -0.4991  0.3583
16413TIP3   OH270653   6.091   3.373  15.315 -0.5576  0.0384  0.3898
16413TIP3    H170654   6.134   3.401  15.396 -0.6124  0.0417  0.4177
16413TIP3    H270655   6.025   3.440  15.300  2.0956  2.4490 -1.8807
16414TIP3   OH270656   5.075   1.929  13.100 -0.4980  0.1586  0.2388
16414TIP3    H170657   5.134   1.947  13.027 -0.9969  0.5733 -0.0730
16414TIP3    H270658   4.997   1.892  13.059 -0.6318  0.0316  0.6024
16415TIP3   OH270659   4.806   1.682   3.152 -0.1957 -0.4439 -0.0559
16415TIP3    H170660   4.720   1.655   3.185 -0.9542  0.2379 -1.4075
16415TIP3    H270661   4.817   1.772   3.183  0.6758 -0.9807  1.2872
16416TIP3   OH270662   4.700   2.832  17.003 -0.8152 -0.5959  0.0028
16416TIP3    H170663   4.768   2.799  16.945  0.0022  0.5859  0.2504
16416TIP3    H270664   4.730   2.920  17.028 -1.0961 -1.0590  2.2291
16417TIP3   OH270665   1.991   3.512  15.995 -0.2577  0.2115  0.2969
16417TIP3    H170666   2.072   3.497  16.045  0.1273 -0.6076 -0.5556
16417TIP3    H270667   2.020   3.522  15.905 -0.8832  2.4074  0.2886
16418TIP3   OH270668   1.917   1.146   1.503 -0.3260 -0.3885 -0.0245
16418TIP3    H170669   1.896   1.174   1.414  0.4886  1.7027  0.3792
16418TIP3    H270670   1.966   1.064   1.492 -0.6448 -0.3991 -1.4670
16419TIP3   OH270671   4.999   0.282   0.848 -0.4712  0.3767 -0.4959
16419TIP3    H170672   5.024   0.329   0.928  1.0402  0.1940 -0.8224
16419TIP3    H270673   4.959   0.201   0.879 -1.8728  1.2503  0.0663
16420TIP3   OH270674   0.105   0.860   2.292 -0.2041  0.8182 -0.6035
16420TIP3    H170675   0.122   0.940   2.342 -0.5516 -0.2472  1.2998
16420TIP3    H270676   0.042   0.811   2.345 -0.0750 -0.6814 -1.7750
16421TIP3   OH270677   5.308   1.802  10.776 -0.1590  0.4922 -0.3709
16421TIP3    H170678   5.217   1.828  10.781  0.5843  3.0836  1.5495
16421TIP3    H270679   5.314   1.751  10.695 -3.3025  0.0539 -0.4274
16422TIP3   OH270680   6.454   1.564  13.619 -0.1250 -0.1557 -0.0399
16422TIP3    H170681   6.478   1.645  13.574 -0.4437 -0.4371 -0.7343
16422TIP3    H270682   6.471   1.581  13.711  0.4238  0.4764 -0.2584
16423TIP3   OH270683   4.457   2.714   6.126 -0.2388  0.1598 -0.1703
16423TIP3    H170684   4.377   2.661   6.130  1.1025 -1.9025  1.6031
16423TIP3    H270685   4.438   2.790   6.182 -0.1097 -1.7186  2.6353
16424TIP3   OH270686   1.388   3.429  13.705  0.3665  0.5648 -0.1833
16424TIP3    H170687   1.416   3.425  13.614  1.4859  1.3192  0.1149
16424TIP3    H270688   1.444   3.366  13.751 -1.2820 -1.0533 -0.2354
16425TIP3   OH270689   2.184   4.398   1.102 -0.6479  0.4742 -0.2456
16425TIP3    H170690   2.235   4.467   1.061  0.5901 -0.1602  0.1830
16425TIP3    H270691   2.182   4.422   1.195 -0.2587 -0.0242 -0.1035
16426TIP3   OH270692   0.897   5.798  13.713 -0.2254 -0.2228  0.1428
16426TIP3    H170693   0.821   5.854  13.731 -0.0124  0.5273 -1.2266
16426TIP3    H270694   0.859   5.717  13.680 -0.4440 -0.0229 -0.0981
16427TIP3   OH270695   6.491   4.800  15.927  0.3409 -0.2373 -0.8159
16427TIP3    H170696   6.473   4.894  15.926  0.8806 -0.0560  1.0497
16427TIP3    H270697   6.587   4.794  15.930  0.3219 -0.6680  2.0320
16428TIP3   OH270698   3.155   0.162  12.497 -0.3667 -0.7856  0.2504
16428TIP3    H170699   3.126   0.091  12.554 -0.2228  0.4136  1.8872
16428TIP3    H270700   3.162   0.238  12.555 -1.3499  0.7968 -1.5906
16429TIP3   OH270701   3.933   2.089   1.550 -0.0843 -0.5037  0.2606
16429TIP3    H170702   3.972   2.125   1.470 -0.3875 -0.5106  0.1085
16429TIP3    H270703   4.008   2.073   1.608  0.0540  0.4291  0.3535
16430TIP3   OH270704   3.614   3.066   2.115  0.1784 -0.1914 -0.5006
16430TIP3    H170705   3.600   2.973   2.097  1.7964  0.2172 -5.3725
16430TIP3    H270706   3.709   3.074   2.125  0.2774  1.1153 -2.1042
16431TIP3   OH270707   2.633   2.291   2.133 -0.3698 -0.7607 -0.2690
16431TIP3    H170708   2.678   2.213   2.167 -0.6049 -0.6028  0.4326
16431TIP3    H270709   2.623   2.348   2.209  0.6732  0.3965 -0.9729
16432TIP3   OH270710   1.241   0.776   0.792  0.6520 -0.4128 -0.5353
16432TIP3    H170711   1.264   0.868   0.805 -0.3887  0.4511 -3.8041
16432TIP3    H270712   1.149   0.771   0.819  0.5910 -0.3786 -0.7336
16433TIP3   OH270713   5.774   4.400  14.595  0.0723  0.0712 -0.2647
16433TIP3    H170714   5.776   4.419  14.501  0.5218  0.7233 -0.1298
16433TIP3    H270715   5.769   4.486  14.637  1.7995 -0.0764  0.3578
16434TIP3   OH270716   5.578   5.417   6.104 -0.4043 -0.1076 -0.0493
16434TIP3    H170717   5.562   5.493   6.160 -1.7791 -0.0294 -0.4970
16434TIP3    H270718   5.562   5.341   6.160  1.0234 -0.0905  0.4131
16435TIP3   OH270719   2.990   4.993  13.202 -0.2859 -0.7014  0.1332
16435TIP3    H170720   3.009   4.900  13.217 -1.1591 -0.7476  1.0634
16435TIP3    H270721   2.904   5.007  13.242  0.2969  0.7588  0.9730
16436TIP3   OH270722   1.945   2.859  10.942 -0.0810  0.2134 -0.0526
16436TIP3    H170723   2.020   2.864  10.882 -1.8108 -0.1297 -2.3708
16436TIP3    H270724   1.895   2.938  10.924 -0.7463  0.0143  0.8427
16437TIP3   OH270725   5.346   5.803   2.283 -0.1418  0.5114 -0.1109
16437TIP3    H170726   5.330   5.714   2.251  0.9414  0.1180  0.3982
16437TIP3    H270727   5.418   5.835   2.229 -0.7513  1.2116 -0.5175
16438TIP3   OH270728   5.107   3.150   0.604 -0.1725  0.2788  0.0907
16438TIP3    H170729   5.015   3.122   0.601 -0.1955  0.4323 -0.6613
16438TIP3    H270730   5.112   3.223   0.543  0.1416  1.1914  1.1850
16439TIP3   OH270731   4.611   2.209   1.063  0.3912  0.5204  0.6858
16439TIP3    H170732   4.534   2.180   1.012  0.2965  5.8611 -2.9930
16439TIP3    H270733   4.576   2.227   1.150 -2.0193  0.6243 -0.2225
16440TIP3   OH270734   4.617   0.219   3.906  0.5071 -0.4496 -0.4908
16440TIP3    H170735   4.660   0.277   3.968 -2.9167  0.1097  1.6285
16440TIP3    H270736   4.608   0.270   3.827 -0.7800  1.3260  0.7319
16441TIP3   OH270737   4.887   4.667  13.987  0.0511  0.1082  0.1829
16441TIP3    H170738   4.798   4.700  14.000  0.6133  1.3465  1.1852
16441TIP3    H270739   4.884   4.577  14.019 -1.1070 -0.2628 -0.9021
16442TIP3   OH270740   2.563   6.649   6.246  0.0878 -0.1787  0.1990
16442TIP3    H170741   2.516   6.574   6.281  1.5068 -0.7728  0.9207
16442TIP3    H270742   2.562   6.714   6.317 -0.2575  0.0901 -0.0488
16443TIP3   OH270743   4.972   5.515   5.616 -0.5236  0.0212  0.2789
16443TIP3    H170744   4.966   5.420   5.629  0.0215 -0.2586 -1.3254
16443TIP3    H270745   4.881   5.545   5.614 -0.8203 -0.8790 -1.8176
16444TIP3   OH270746   0.982   0.126  14.897 -0.4018  0.2707  0.0562
16444TIP3    H170747   1.009   0.078  14.975 -0.2076  0.7331  0.2794
16444TIP3    H270748   0.909   0.076  14.861 -0.7998  0.3114  0.7985
16445TIP3   OH270749   1.039   4.596   2.089  0.1663  0.1852 -0.0649
16445TIP3    H170750   0.963   4.603   2.031 -0.3178  0.0473  0.5425
16445TIP3    H270751   1.009   4.630   2.173  1.1780  1.3988 -0.1703
16446TIP3   OH270752   6.347   1.409  16.547  0.0465 -0.2574  0.1727
16446TIP3    H170753   6.251   1.405  16.551 -0.1483  2.8183  0.8878
16446TIP3    H270754   6.374   1.318  16.533 -2.9853 -1.1239 -0.9274
16447TIP3   OH270755   0.605   5.535   6.036  0.1843  0.2698 -0.2894
16447TIP3    H170756   0.550   5.457   6.040  0.3445  0.1532 -0.3509
16447TIP3    H270757   0.549   5.605   6.068 -0.2844  0.3063 -1.1582
16448TIP3   OH270758   1.702   5.606  13.976 -0.1616 -0.7878 -0.1541
16448TIP3    H170759   1.722   5.664  13.902 -0.5665 -1.0748 -0.4924
16448TIP3    H270760   1.772   5.622  14.039  0.7998 -1.3318 -1.0569
16449TIP3   OH270761   5.540   2.657   5.104  0.2667  0.6688 -0.3305
16449TIP3    H170762   5.622   2.672   5.151 -0.6897  1.8020  1.0481
16449TIP3    H270763   5.482   2.616   5.168 -0.3057 -0.0495 -1.2651
16450TIP3   OH270764   4.163   3.359  15.190  0.3896  0.9052 -0.0720
16450TIP3    H170765   4.160   3.263  15.184 -1.3305  0.9652 -0.8253
16450TIP3    H270766   4.137   3.389  15.102  0.6300  2.0570  0.2366
16451TIP3   OH270767   0.574   1.261   5.804 -0.5046 -0.6379  0.1516
16451TIP3    H170768   0.661   1.236   5.834  0.4180  1.1313 -0.8664
16451TIP3    H270769   0.548   1.193   5.742  0.2792 -1.0173  0.2365
16452TIP3   OH270770   3.736   5.469  13.811  0.0161  0.1540 -0.0191
16452TIP3    H170771   3.644   5.493  13.817 -0.1503 -0.7104  1.0984
16452TIP3    H270772   3.753   5.464  13.716 -1.0085  0.5608 -0.2330
16453TIP3   OH270773   0.149   5.431  15.835  0.3717  0.2121  0.6948
16453TIP3    H170774   0.185   5.466  15.754  0.1025 -0.5832  0.2241
16453TIP3    H270775   0.069   5.481  15.850 -1.1783 -1.5485 -1.1212
16454TIP3   OH270776   2.138   5.370   4.579  1.1281  0.0719 -0.2585
16454TIP3    H170777   2.060   5.332   4.620  1.5916  0.8480  1.4215
16454TIP3    H270778   2.155   5.313   4.504  1.3371 -2.6540  1.6749
16455TIP3   OH270779   3.627   0.265  16.732 -0.0243 -0.6082 -0.5519
16455TIP3    H170780   3.716   0.246  16.761  0.0579 -0.3603 -0.6418
16455TIP3    H270781   3.635   0.278  16.637 -0.0229  0.2008 -0.4485
16456TIP3   OH270782   2.258   5.544  12.552  0.7908  0.0469 -0.4590
16456TIP3    H170783   2.232   5.617  12.495  0.4686 -0.0630 -0.4524
16456TIP3    H270784   2.233   5.572  12.640 -0.4305 -0.5658 -0.5931
16457TIP3   OH270785   1.301   5.293  17.201 -0.4156 -0.0197  0.1430
16457TIP3    H170786   1.388   5.332  17.187 -0.2610 -0.0016  1.0905
16457TIP3    H270787   1.266   5.339  17.277 -2.0494  1.2737 -1.3088
16458TIP3   OH270788   3.519   0.116   3.757 -0.3838  0.0011  0.1824
16458TIP3    H170789   3.447   0.167   3.793 -1.9933 -1.7588 -0.3903
16458TIP3    H270790   3.556   0.071   3.833 -1.4866 -0.9545  0.1837
16459TIP3   OH270791   6.699   5.860  14.669  0.5563 -0.1712 -0.1856
16459TIP3    H170792   6.631   5.792  14.666  0.9829 -0.5940 -0.3048
16459TIP3    H270793   6.777   5.815  14.699  0.8969  0.2290 -0.4638
16460TIP3   OH270794   0.984   6.567  12.973 -0.0427 -0.1499  0.0900
16460TIP3    H170795   0.982   6.627  12.898  1.5674  0.5764  0.5872
16460TIP3    H270796   0.937   6.489  12.943 -0.4188  0.5662 -1.2675
16461TIP3   OH270797   5.149   5.144   3.377 -0.0487  0.5237 -0.0014
16461TIP3    H170798   5.204   5.155   3.455  0.3001 -1.5275  0.1214
16461TIP3    H270799   5.203   5.090   3.318 -1.4640 -0.5655 -0.3534
16462TIP3   OH270800   0.592   3.766   3.120 -0.4747  0.0621  0.3125
16462TIP3    H170801   0.553   3.805   3.198  1.8212  0.4878  1.3268
16462TIP3    H270802   0.640   3.689   3.152 -0.4743 -0.4410 -0.8508
16463TIP3   OH270803   3.728   1.196  13.367  0.1041  0.0607 -0.4978
16463TIP3    H170804   3.811   1.200  13.320 -1.0469  1.0091 -2.5540
16463TIP3    H270805   3.698   1.105  13.357  1.4328 -0.6535  1.3695
16464TIP3   OH270806   4.816   0.993  14.271 -0.0186  0.4199  0.1705
16464TIP3    H170807   4.832   1.064  14.334  0.7822 -0.5589  1.0927
16464TIP3    H270808   4.901   0.976  14.232  0.2154 -1.3261  1.3577
16465TIP3   OH270809   5.999   2.325   5.469 -0.3848 -1.0730 -0.1630
16465TIP3    H170810   5.917   2.281   5.489  0.1102 -1.4943  1.0207
16465TIP3    H270811   6.026   2.364   5.552  0.6906 -1.0641 -0.5047
16466TIP3   OH270812   6.638   5.028   3.467 -0.4593  0.6660  0.0001
16466TIP3    H170813   6.633   4.974   3.388  1.1377 -0.3638  0.5622
16466TIP3    H270814   6.665   5.114   3.435  2.0090 -0.1995 -0.4643
16467TIP3   OH270815   6.536   4.087  11.390  0.5472 -0.4466  0.0684
16467TIP3    H170816   6.614   4.136  11.364 -1.1769  0.3579 -4.6494
16467TIP3    H270817   6.552   3.997  11.359  1.1722 -1.4603  3.0155
16468TIP3   OH270818   4.817   5.061   4.122  0.3926 -0.8155  0.1992
16468TIP3    H170819   4.736   5.010   4.119 -0.0416 -0.2599  1.7390
16468TIP3    H270820   4.803   5.132   4.060 -0.3849 -0.6211  0.5841
16469TIP3   OH270821   5.379   5.763  11.736  0.3827  0.3631 -0.0128
16469TIP3    H170822   5.349   5.682  11.778  0.9208  0.0687 -0.1910
16469TIP3    H270823   5.398   5.737  11.646  1.1104  0.5518  0.0800
16470TIP3   OH270824   6.585   1.696  16.544 -0.0169  0.4613 -0.2651
16470TIP3    H170825   6.555   1.735  16.462 -0.2277  1.1588  0.1401
16470TIP3    H270826   6.562   1.604  16.537 -0.2496  0.5656 -0.8893
16471TIP3   OH270827   4.175   2.666  14.741 -0.2578 -0.2418  0.5776
16471TIP3    H170828   4.140   2.614  14.668  0.6356 -1.8800  1.2718
16471TIP3    H270829   4.266   2.682  14.717 -0.8816  2.5236 -0.4007
16472TIP3   OH270830   3.992   0.879  16.684 -0.2786 -0.5014 -0.2483
16472TIP3    H170831   4.085   0.861  16.695 -0.3374 -1.2713 -0.9396
16472TIP3    H270832   3.967   0.832  16.604 -1.6243 -1.6560  0.7971
16473TIP3   OH270833   6.248   1.019  10.844 -0.0438  0.3143 -0.4379
16473TIP3    H170834   6.246   0.932  10.803  2.2093 -0.5339  1.0342
16473TIP3    H270835   6.329   1.059  10.813  1.2235  0.0415  2.2024
16474TIP3   OH270836   0.830   0.724   3.098 -0.3424 -0.4086  0.1989
16474TIP3    H170837   0.806   0.686   3.014  0.7862  0.8978 -0.7600
16474TIP3    H270838   0.920   0.693   3.114  0.4995  1.4962 -0.4663
16475TIP3   OH270839   2.953   6.230  12.167 -0.0309 -0.4029  0.1114
16475TIP3    H170840   2.859   6.226  12.151 -0.3606  1.6141  1.2846
16475TIP3    H270841   2.964   6.292  12.239  2.1468 -1.2177  0.5757
16476TIP3   OH270842   1.256   1.705  14.977 -0.0769  0.1345 -0.0786
16476TIP3    H170843   1.251   1.684  15.070  1.1352  0.9174  0.1765
16476TIP3    H270844   1.299   1.790  14.973 -1.0060  0.5892 -1.3187
16477TIP3   OH270845   4.263   1.898   0.239 -0.0802 -0.0191  0.2887
16477TIP3    H170846   4.212   1.821   0.265 -1.3719 -0.9267 -4.0826
16477TIP3    H270847   4.353   1.875   0.259 -0.7021 -1.3203  1.8665
16478TIP3   OH270848   5.220   0.637  13.567 -0.2977 -0.0166 -0.2048
16478TIP3    H170849   5.244   0.713  13.619  0.1883 -0.1443 -0.2364
16478TIP3    H270850   5.272   0.646  13.486 -0.4221 -0.2515 -0.3122
16479TIP3   OH270851   3.053   3.120  16.552 -0.2380  0.1653  0.3227
16479TIP3    H170852   3.074   3.108  16.459 -1.5931 -0.5164  0.0880
16479TIP3    H270853   3.066   3.214  16.567 -1.0321  0.4845 -0.8396
16480TIP3   OH270854   4.490   0.736   5.941  0.5466  0.1175  0.3885
16480TIP3    H170855   4.420   0.680   5.974  1.4151 -0.8231  0.6800
16480TIP3    H270856   4.445   0.815   5.911 -0.9485 -1.4555 -1.8435
16481TIP3   OH270857   5.288   4.009  17.109  0.9393  0.2467  0.5159
16481TIP3    H170858   5.358   3.985  17.050  0.9094 -0.7573  0.8750
16481TIP3    H270859   5.227   4.060  17.056  1.6899  0.7018  0.0845
16482TIP3   OH270860   2.602   2.482   0.867  0.4180 -0.0575 -0.4784
16482TIP3    H170861   2.676   2.468   0.807  2.2258 -0.1021  1.6182
16482TIP3    H270862   2.599   2.402   0.920 -1.9605 -0.5609 -1.2602
16483TIP3   OH270863   0.502   6.606  13.767  0.9927 -0.1635 -0.2179
16483TIP3    H170864   0.480   6.555  13.690  0.9706  2.2306 -1.9200
16483TIP3    H270865   0.419   6.618  13.813  0.7824 -0.6123 -0.4786
16484TIP3   OH270866   0.097   0.079   1.985 -0.1904  0.3336  0.1676
16484TIP3    H170867   0.127   0.169   1.972  0.4528  0.5211  2.5095
16484TIP3    H270868   0.165   0.025   1.946 -0.0667  0.8542 -0.3453
16485TIP3   OH270869   5.061   5.209   2.849 -0.3193 -0.3035  0.6787
16485TIP3    H170870   5.120   5.164   2.909  1.8550  0.4784 -0.7495
16485TIP3    H270871   5.019   5.139   2.798  0.1957 -0.8432  0.9894
16486TIP3   OH270872   3.563   0.713  16.851  0.0322  0.3978  0.6176
16486TIP3    H170873   3.489   0.772  16.834  0.0334  0.3979  0.6123
16486TIP3    H270874   3.618   0.720  16.773 -0.2824 -0.0816  0.3474
16487TIP3   OH270875   5.925   3.364   4.785 -0.6746  0.2363  0.2283
16487TIP3    H170876   6.019   3.367   4.765 -1.1361  1.0753 -2.2012
16487TIP3    H270877   5.908   3.273   4.807  0.7075  0.0781  0.7447
16488TIP3   OH270878   0.983   6.736   5.352 -0.0271 -0.6425  0.4056
16488TIP3    H170879   0.975   6.829   5.372 -0.5492 -0.3099 -1.2156
16488TIP3    H270880   0.994   6.694   5.438  1.3524  0.9986  1.0949
16489TIP3   OH270881   6.446   1.291  12.079 -0.2186 -0.2313  0.5566
16489TIP3    H170882   6.438   1.274  11.985  0.1701  2.0188  0.0659
16489TIP3    H270883   6.523   1.240  12.106  0.7946  0.5224 -0.7688
16490TIP3   OH270884   5.041   1.942  11.052 -0.3843  0.0996  0.3144
16490TIP3    H170885   5.037   1.922  10.958  0.9477  1.7906 -0.1616
16490TIP3    H270886   5.000   2.029  11.059  0.2913  0.3609  1.1446
16491TIP3   OH270887   2.558   6.094   4.234  0.1147 -0.2290  0.1377
16491TIP3    H170888   2.480   6.094   4.290  0.4387  1.8689  0.6643
16491TIP3    H270889   2.631   6.086   4.295  0.5101  2.8098  0.1760
16492TIP3   OH270890   2.589   2.848   3.767 -0.4413 -0.0325 -0.7431
16492TIP3    H170891   2.544   2.933   3.766 -0.3862 -0.0102 -1.5141
16492TIP3    H270892   2.526   2.788   3.805 -0.1763  0.5143  0.6271
16493TIP3   OH270893   3.026   2.133  14.565  0.4308 -0.3162  0.0819
16493TIP3    H170894   3.049   2.217  14.525 -2.2407  0.8993  0.8895
16493TIP3    H270895   3.076   2.132  14.647  0.4332  0.5374  0.1003
16494TIP3   OH270896   3.501   2.265   0.417 -0.4747  0.0751  0.6358
16494TIP3    H170897   3.563   2.205   0.374 -1.0830  0.0586 -0.2505
16494TIP3    H270898   3.524   2.351   0.383 -1.2078  0.0143 -0.0403
16495TIP3   OH270899   6.610   1.693   3.020 -0.1132  0.7937 -0.0604
16495TIP3    H170900   6.677   1.672   2.956  1.5425  0.2265  1.7615
16495TIP3    H270901   6.625   1.784   3.043 -1.1420  1.2063 -0.9258
16496TIP3   OH270902   1.602   2.799  14.456  0.0339  0.8851 -0.0777
16496TIP3    H170903   1.520   2.804  14.407  0.1047 -0.2515 -0.3248
16496TIP3    H270904   1.619   2.890  14.483 -1.5923  1.0633  0.4722
16497TIP3   OH270905   6.207   3.834   2.651 -0.1799 -0.0477 -0.5059
16497TIP3    H170906   6.191   3.740   2.660  0.3941 -0.1964 -1.0268
16497TIP3    H270907   6.276   3.854   2.714 -2.0098  0.5230  1.4537
16498TIP3   OH270908   3.847   4.019  14.778 -0.4163  0.4527  0.5718
16498TIP3    H170909   3.789   3.944  14.787  1.6136 -1.1040  1.3094
16498TIP3    H270910   3.815   4.065  14.700 -0.6915 -2.1450 -0.9613
16499TIP3   OH270911   1.664   0.825   2.668 -0.2236 -0.4892 -0.0548
16499TIP3    H170912   1.739   0.784   2.710  0.1792  0.2108 -0.0597
16499TIP3    H270913   1.593   0.762   2.676  0.4218 -1.2472 -0.2279
16500TIP3   OH270914   3.402   0.038  14.081 -0.2873  0.0949  0.1808
16500TIP3    H170915   3.373   0.104  14.017  0.8343 -0.5549 -1.0554
16500TIP3    H270916   3.452   0.087  14.146  1.1697  0.4180 -1.1226
16501TIP3   OH270917   1.446   6.497   6.369 -0.4203 -0.4528  0.0668
16501TIP3    H170918   1.452   6.592   6.372  1.2903 -0.5483  1.9955
16501TIP3    H270919   1.356   6.477   6.392 -0.8190  0.6807 -0.4410
16502TIP3   OH270920   6.368   2.905   5.047  0.1859  0.2454  0.1548
16502TIP3    H170921   6.295   2.878   5.101 -0.2865 -0.5718 -0.8503
16502TIP3    H270922   6.445   2.868   5.090 -0.0254  0.7494  0.9853
16503TIP3   OH270923   5.308   2.856  12.499 -0.4108 -0.3863  0.3870
16503TIP3    H170924   5.315   2.762  12.518 -2.2392 -0.8082 -0.6978
16503TIP3    H270925   5.246   2.889  12.564  0.2707  0.0973  0.8006
16504TIP3   OH270926   5.795   6.098  13.708 -0.3597 -0.0760  0.6171
16504TIP3    H170927   5.721   6.108  13.768 -0.3806  2.6989  0.2684
16504TIP3    H270928   5.829   6.187  13.698  1.1094 -0.8201 -1.6404
16505TIP3   OH270929   1.448   0.822   1.181  0.3402 -0.2797  0.0448
16505TIP3    H170930   1.543   0.834   1.187  0.2888 -0.3278  1.1720
16505TIP3    H270931   1.422   0.790   1.268 -0.3919 -2.5814 -0.9363
16506TIP3   OH270932   5.176   1.477   5.026  0.2549  0.3381 -0.0226
16506TIP3    H170933   5.125   1.398   5.044 -0.3035  0.1230 -2.2080
16506TIP3    H270934   5.133   1.546   5.076 -0.8023 -0.2685 -0.0732
16507TIP3   OH270935   0.562   4.001   5.843  0.0231  0.3692 -0.2058
16507TIP3    H170936   0.653   4.019   5.819  0.5245 -1.7396 -0.0784
16507TIP3    H270937   0.569   3.955   5.927 -0.7774 -3.5415 -2.0842
16508TIP3   OH270938   1.553   1.261   3.767 -0.8603  0.0649  0.1703
16508TIP3    H170939   1.523   1.347   3.736 -2.2918 -0.2700  0.5648
16508TIP3    H270940   1.604   1.226   3.694 -1.2304  0.7718 -0.4413
16509TIP3   OH270941   4.156   2.548   4.569 -0.2619 -0.5520 -0.0313
16509TIP3    H170942   4.127   2.620   4.626  0.1335 -1.8106  1.8716
16509TIP3    H270943   4.164   2.588   4.482  0.3136  1.8121  1.0018
16510TIP3   OH270944   3.554   4.833  17.126 -0.7002  0.0655  0.3987
16510TIP3    H170945   3.636   4.832  17.176 -0.6146  0.7899  0.2962
16510TIP3    H270946   3.485   4.838  17.193 -0.5920  0.8929  0.4590
16511TIP3   OH270947   2.889   0.675   5.932  0.0189 -0.4322  0.4410
16511TIP3    H170948   2.937   0.594   5.949 -0.0999 -0.6527 -0.2175
16511TIP3    H270949   2.957   0.738   5.910  0.3442  0.3462  3.3191
16512TIP3   OH270950   0.970   4.276   1.223 -0.2462  0.1756  0.0894
16512TIP3    H170951   1.062   4.273   1.248 -0.0808  0.8876 -0.4141
16512TIP3    H270952   0.942   4.365   1.245 -0.6747  0.1268 -0.2479
16513TIP3   OH270953   5.072   4.623   0.406  0.2830  0.3462  0.9113
16513TIP3    H170954   5.150   4.579   0.440  1.2308  1.4358  0.2188
16513TIP3    H270955   5.096   4.716   0.403 -0.3842  0.5041 -0.9976
16514TIP3   OH270956   2.409   0.792  15.032 -0.8317 -0.4664 -0.3172
16514TIP3    H170957   2.498   0.810  15.060 -0.5488 -0.8709 -0.9357
16514TIP3    H270958   2.357   0.797  15.112  0.0815 -2.4965  0.4732
16515TIP3   OH270959   4.737   1.400  15.388 -0.7690  0.2826 -0.0403
16515TIP3    H170960   4.693   1.346  15.322 -1.0601  1.1078 -0.5412
16515TIP3    H270961   4.705   1.488  15.371  0.1424  0.7070  0.3812
16516TIP3   OH270962   1.250   2.960   6.749 -0.6489  0.2303 -0.0219
16516TIP3    H170963   1.189   3.026   6.781  0.5786  1.1860  0.4407
16516TIP3    H270964   1.332   3.008   6.735 -0.5572 -0.5781 -2.6669
16517TIP3   OH270965   5.012   4.449   5.830 -0.2847 -0.9411  0.1773
16517TIP3    H170966   5.005   4.398   5.750 -0.1530 -0.7354  0.0355
16517TIP3    H270967   4.929   4.434   5.875 -0.4854 -0.8056 -0.1450
16518TIP3   OH270968   6.630   6.197   3.347  0.7197 -0.3174  0.2618
16518TIP3    H170969   6.624   6.134   3.418  1.4204  0.5766  1.1373
16518TIP3    H270970   6.716   6.237   3.357  1.2728 -0.8713 -1.7030
16519TIP3   OH270971   3.646   1.675   3.869  0.4098  0.0379 -0.2397
16519TIP3    H170972   3.666   1.700   3.779  1.3935  1.7902  0.4260
16519TIP3    H270973   3.730   1.651   3.907 -0.0398 -0.9753  0.1497
16520TIP3   OH270974   0.044   5.142   2.444  0.2467  0.9099 -0.0828
16520TIP3    H170975  -0.034   5.149   2.499  0.4209  2.1012  0.0437
16520TIP3    H270976   0.061   5.048   2.438 -1.6056  0.5695 -0.7182
16521TIP3   OH270977   1.288   1.853   3.485 -0.4161  0.2158 -0.3109
16521TIP3    H170978   1.198   1.885   3.494 -0.0582  0.8712  1.1304
16521TIP3    H270979   1.279   1.759   3.473 -1.2448 -0.1207  2.3357
16522TIP3   OH270980   3.530   5.155   3.488 -0.1645 -0.4289  0.4534
16522TIP3    H170981   3.476   5.198   3.554 -1.6748 -0.3183 -0.7942
16522TIP3    H270982   3.553   5.225   3.426 -3.3865 -1.3834 -2.0853
16523TIP3   OH270983   4.252   6.440   3.792 -0.2427 -0.2777 -0.1501
16523TIP3    H170984   4.329   6.494   3.811 -1.1705  0.9454  0.3139
16523TIP3    H270985   4.239   6.387   3.871  0.4931 -0.9742 -0.4865
16524TIP3   OH270986   1.751   5.520   6.234 -0.4806 -0.5987 -0.0031
16524TIP3    H170987   1.774   5.457   6.302  2.2040  0.6722  0.4121
16524TIP3    H270988   1.736   5.602   6.282 -0.9061 -0.2242 -0.7574
16525TIP3   OH270989   6.635   5.938  12.100 -0.2001 -0.0047 -0.1940
16525TIP3    H170990   6.612   5.954  12.192  0.2637 -0.2219 -0.0359
16525TIP3    H270991   6.554   5.906  12.061 -0.6364  0.9521 -0.0793
16526TIP3   OH270992   0.705   1.574   2.524 -0.1453  0.2501  0.2422
16526TIP3    H170993   0.756   1.599   2.447 -0.8809  1.8351  0.2427
16526TIP3    H270994   0.650   1.650   2.543  0.1904  0.0115  2.4925
16527TIP3   OH270995   6.245   5.373  15.595 -0.1431 -0.1330 -0.0945
16527TIP3    H170996   6.340   5.359  15.593 -0.2053 -0.8230  1.2552
16527TIP3    H270997   6.229   5.417  15.678 -1.1364 -0.9994  0.1814
16528TIP3   OH270998   2.568   2.595   2.021 -0.1215 -0.1596  0.0277
16528TIP3    H170999   2.606   2.508   2.014 -1.7892 -0.8551 -0.9908
16528TIP3    H271000   2.537   2.615   1.933 -1.3451  0.6908  0.6089
16529TIP3   OH271001   3.170   3.751   5.437  0.3575 -0.6482  0.4851
16529TIP3    H171002   3.249   3.772   5.485 -0.4348 -0.4031  1.7251
16529TIP3    H271003   3.198   3.690   5.369  1.9670  1.1035 -0.5084
16530TIP3   OH271004   3.325   2.212  12.547 -0.3090  0.0810  0.9430
16530TIP3    H171005   3.347   2.119  12.546 -2.8919 -0.6583 -1.2952
16530TIP3    H271006   3.405   2.256  12.521  1.0977 -1.4105  2.4652
16531TIP3   OH271007   2.151   4.727  14.866  0.1129  0.5035  0.5191
16531TIP3    H171008   2.239   4.701  14.891  1.1689  1.0719 -2.2360
16531TIP3    H271009   2.099   4.715  14.945  2.1592 -2.0615  1.6419
16532TIP3   OH271010   2.009   5.188   6.015  0.1404  0.0138 -0.1735
16532TIP3    H171011   2.091   5.147   6.043  0.9349  0.7426 -1.3396
16532TIP3    H271012   1.941   5.124   6.037  0.9692 -0.4301  1.1873
16533TIP3   OH271013   2.439   5.246   0.129 -0.1005 -0.6353  0.0486
16533TIP3    H171014   2.526   5.284   0.133 -0.3348 -0.0442 -0.2382
16533TIP3    H271015   2.422   5.234   0.036  0.2333 -2.1031  0.1522
16534TIP3   OH271016   2.104   2.289  14.262  0.3040  0.4354  0.0704
16534TIP3    H171017   2.025   2.271  14.313  0.4206  0.6014  0.3117
16534TIP3    H271018   2.148   2.205  14.256  0.2871  0.4135  0.2399
16535TIP3   OH271019   3.121   6.135   0.945  0.4695 -0.0425 -0.0162
16535TIP3    H171020   3.181   6.075   0.901 -0.8440 -2.8081  1.7045
16535TIP3    H271021   3.039   6.128   0.897  0.5543  1.2020 -0.3864
16536TIP3   OH271022   2.178   2.764   3.568  0.0459  0.0400 -0.5486
16536TIP3    H171023   2.237   2.837   3.550 -1.0998  0.3030 -3.8005
16536TIP3    H271024   2.112   2.767   3.499 -1.2952 -2.8259  0.4079
16537TIP3   OH271025   0.828   5.264   1.476 -0.4689 -0.2641 -0.0972
16537TIP3    H171026   0.765   5.310   1.531  0.5114 -0.8815  1.6359
16537TIP3    H271027   0.775   5.211   1.417 -1.5613  0.5212  0.1474
16538TIP3   OH271028   1.392   4.423  13.360  0.4637 -0.9607  0.1231
16538TIP3    H171029   1.471   4.468  13.328  0.0893 -0.3837 -0.0044
16538TIP3    H271030   1.360   4.375  13.284  0.2700 -0.5831 -0.0381
16539TIP3   OH271031   0.539   0.367  12.567  0.2372  0.2704 -0.2506
16539TIP3    H171032   0.573   0.336  12.483  0.1864 -0.6470  0.0604
16539TIP3    H271033   0.609   0.422  12.603  0.1420  0.9166 -1.0170
16540TIP3   OH271034   2.776   6.280  17.144  0.0258  0.0717  0.0995
16540TIP3    H171035   2.760   6.187  17.160  0.0261 -0.1682 -1.1501
16540TIP3    H271036   2.871   6.288  17.147  0.0684 -0.1258 -0.4960
16541TIP3   OH271037   3.929   0.232   3.835 -1.0194 -0.1305  0.3227
16541TIP3    H171038   3.855   0.228   3.774 -0.1754 -0.7104 -0.7010
16541TIP3    H271039   3.929   0.146   3.878 -0.2463 -0.5821 -0.5487
16542TIP3   OH271040   5.905   1.676  14.935  0.2007 -0.2539 -0.2424
16542TIP3    H171041   5.874   1.725  15.010  0.2708 -1.8338  0.8731
16542TIP3    H271042   5.870   1.588  14.947 -0.5827 -0.3429 -2.5658
16543TIP3   OH271043   4.844   1.480  12.147  0.4441 -0.3226  0.2608
16543TIP3    H171044   4.885   1.564  12.125  1.1688 -0.5814  0.5725
16543TIP3    H271045   4.800   1.495  12.230 -0.9641  0.2291 -0.5585
16544TIP3   OH271046   6.218   6.515  12.380 -1.0605 -0.4910  0.0571
16544TIP3    H171047   6.217   6.606  12.411 -1.7669 -1.2184  2.3844
16544TIP3    H271048   6.125   6.492  12.370 -0.8698 -0.6411 -1.6683
16545TIP3   OH271049   3.777   4.049   1.916  0.3056  0.0098 -0.2249
16545TIP3    H171050   3.726   4.081   1.991 -0.8724 -0.3776 -0.8301
16545TIP3    H271051   3.852   4.004   1.956 -1.0229 -1.4153  0.8104
16546TIP3   OH271052   1.780   1.564   2.142 -0.1584 -0.1345 -0.2156
16546TIP3    H171053   1.798   1.542   2.234 -0.6002  1.8387  0.3818
16546TIP3    H271054   1.859   1.610   2.113 -0.3751  0.0195 -0.5568
16547TIP3   OH271055   4.445   5.181   1.500  0.2931 -0.6319  0.0092
16547TIP3    H171056   4.407   5.167   1.587  0.0269 -0.2631 -0.0425
16547TIP3    H271057   4.465   5.275   1.498 -0.3365 -0.4966 -0.5692
16548TIP3   OH271058   2.349   6.259  16.933 -0.5463 -0.1036 -0.2964
16548TIP3    H171059   2.388   6.310  17.004 -0.8410  1.6706 -1.3356
16548TIP3    H271060   2.377   6.169  16.949  0.6099  0.4927  1.2210
16549TIP3   OH271061   3.121   1.078  15.690  0.0852 -0.3780  0.7605
16549TIP3    H171062   3.131   1.147  15.625  1.6527  0.8484  2.1880
16549TIP3    H271063   3.067   1.117  15.759  2.2872  0.0886  2.3246
16550TIP3   OH271064   1.759   1.642   5.016 -0.8500  0.4954  0.4956
16550TIP3    H171065   1.831   1.597   4.972  0.7692  0.4030  3.0353
16550TIP3    H271066   1.759   1.730   4.978 -0.4609  0.0313 -0.6277
16551TIP3   OH271067   4.281   2.737   5.654  0.3889  0.4181  0.4615
16551TIP3    H171068   4.290   2.725   5.559  1.4326  2.2372  0.2799
16551TIP3    H271069   4.264   2.649   5.688  1.9893 -0.6194 -1.2111
16552TIP3   OH271070   4.370   1.394   1.458  0.3926  0.1579  0.5722
16552TIP3    H171071   4.465   1.400   1.441  0.1062  0.2565 -1.2283
16552TIP3    H271072   4.348   1.304   1.434  0.4281 -0.7555  3.5620
16553TIP3   OH271073   0.183   3.856  16.757  0.1768  0.0756  0.2360
16553TIP3    H171074   0.234   3.806  16.693  2.1414  1.2190  0.8217
16553TIP3    H271075   0.203   3.948  16.736 -1.5187  0.5707  0.6357
16554TIP3   OH271076   2.682   3.055  14.464  0.2651  0.0255  0.2750
16554TIP3    H171077   2.728   2.974  14.488  1.2896  0.2490 -0.8393
16554TIP3    H271078   2.592   3.027  14.449  0.2325 -0.6076  1.5065
16555TIP3   OH271079   3.794   0.800  10.942  0.5885  0.0184 -0.2778
16555TIP3    H171080   3.885   0.788  10.914  0.1972 -1.5348 -0.9861
16555TIP3    H271081   3.749   0.832  10.863  0.1634 -1.0176 -0.4650
16556TIP3   OH271082   4.755   6.406   1.209 -0.3586  0.2674 -0.0872
16556TIP3    H171083   4.723   6.478   1.155  1.1157  1.6053  0.7303
16556TIP3    H271084   4.840   6.437   1.242  1.9844 -3.1060 -2.3102
16557TIP3   OH271085   3.575   0.308   0.823  0.4253 -0.4574  0.2939
16557TIP3    H171086   3.614   0.228   0.788  0.7128 -0.6356  1.0260
16557TIP3    H271087   3.636   0.339   0.889 -0.6453 -0.7134  1.4291
16558TIP3   OH271088   2.505   2.050  14.655  0.3037 -0.1845  0.7223
16558TIP3    H171089   2.460   1.974  14.618  0.3390 -0.5935  1.5028
16558TIP3    H271090   2.560   2.082  14.584 -1.5998  0.6601 -0.4376
16559TIP3   OH271091   2.040   2.988   4.456 -0.2143 -0.3009  0.2891
16559TIP3    H171092   2.114   2.985   4.396 -1.4643 -0.2801 -1.3135
16559TIP3    H271093   2.077   3.021   4.538  1.6898 -1.1027 -0.2001
16560TIP3   OH271094   0.559   3.161  15.277  0.0724  0.1912  0.0240
16560TIP3    H171095   0.485   3.219  15.290  0.1999  0.3502  0.0398
16560TIP3    H271096   0.529   3.076  15.310 -0.2112  0.1795 -0.2642
16561TIP3   OH271097   4.511   2.598  12.957  0.2710 -0.1928  0.3336
16561TIP3    H171098   4.455   2.534  13.001 -2.2088  1.5980  0.0468
16561TIP3    H271099   4.580   2.617  13.019 -0.5168 -1.1073  1.5380
16562TIP3   OH271100   0.231   5.299  13.506 -0.1650  0.1956  0.1413
16562TIP3    H171101   0.220   5.349  13.425  0.7434  1.1904  0.6066
16562TIP3    H271102   0.192   5.354  13.574 -0.1522 -0.2448  0.5137
16563TIP3   OH271103   4.075   6.183  13.406 -0.3068 -0.3576  0.0842
16563TIP3    H171104   4.145   6.140  13.357 -0.5974  0.8467 -1.4608
16563TIP3    H271105   4.103   6.176  13.498  1.8542  0.1002 -0.4768
16564TIP3   OH271106   1.226   0.889  15.861 -0.4073 -0.3081 -0.3686
16564TIP3    H171107   1.210   0.930  15.776 -1.9425 -0.3952 -0.1494
16564TIP3    H271108   1.318   0.907  15.880 -0.5578  1.3936 -1.1481
16565TIP3   OH271109   2.346   0.023  14.130  1.1461  0.2110 -0.1464
16565TIP3    H171110   2.339  -0.026  14.212 -0.9053 -0.8756 -0.8786
16565TIP3    H271111   2.397  -0.035  14.072 -0.1806 -0.5610 -0.6033
16566TIP3   OH271112   0.240   0.417   6.396 -0.5350 -0.0601  0.1478
16566TIP3    H171113   0.264   0.416   6.489  0.1524  0.2315 -0.0156
16566TIP3    H271114   0.302   0.357   6.355 -2.0619 -1.6771  0.1460
16567TIP3   OH271115   5.487   3.590  16.663  0.4382  0.1996 -0.4024
16567TIP3    H171116   5.533   3.542  16.595  1.3821  1.4021 -0.6318
16567TIP3    H271117   5.431   3.651  16.616  1.4440  1.3655 -0.1293
16568TIP3   OH271118   1.369   6.456   1.920 -0.0108 -0.3252  0.2963
16568TIP3    H171119   1.330   6.417   1.998 -2.7440 -1.4050 -1.4387
16568TIP3    H271120   1.445   6.401   1.901 -0.2641 -1.0359  1.2697
16569TIP3   OH271121   0.615   0.158   5.558 -0.1458 -0.2305  0.1036
16569TIP3    H171122   0.676   0.193   5.623 -0.2985  0.3527 -0.0638
16569TIP3    H271123   0.550   0.110   5.609  0.6222 -1.1362  0.2680
16570TIP3   OH271124   3.925   0.626   4.355 -0.2148 -0.1124  0.0317
16570TIP3    H171125   3.918   0.590   4.444 -0.0858  0.1799  0.1600
16570TIP3    H271126   3.902   0.552   4.298  1.8297 -0.9362  0.2084
16571TIP3   OH271127   0.632   3.940   4.266 -0.7445 -0.4052 -0.2640
16571TIP3    H171128   0.623   4.013   4.326 -0.1675 -0.0169 -0.6384
16571TIP3    H271129   0.558   3.948   4.206 -0.7190 -0.1660 -0.2626
16572TIP3   OH271130   5.319   6.138  16.390  0.3827 -0.7348 -0.0525
16572TIP3    H171131   5.245   6.094  16.348  0.3226  0.0825 -0.8404
16572TIP3    H271132   5.341   6.210  16.331  1.9211 -1.0462  0.0962
16573TIP3   OH271133   3.926   4.302   0.644  0.8138 -0.3069 -0.0730
16573TIP3    H171134   3.931   4.215   0.683 -1.2038 -0.2583  0.4184
16573TIP3    H271135   3.979   4.358   0.701 -0.6892 -0.5765  1.6591
16574TIP3   OH271136   1.575   3.825   3.686 -0.4374 -0.5825  0.0028
16574TIP3    H171137   1.545   3.908   3.722 -0.2193 -0.1206 -0.8421
16574TIP3    H271138   1.556   3.832   3.592  0.0453 -1.2856 -0.1557
16575TIP3   OH271139   1.255   2.465  13.926 -0.0011 -0.5363 -0.0918
16575TIP3    H171140   1.197   2.390  13.944 -1.9080  0.8139 -0.3213
16575TIP3    H271141   1.236   2.527  13.996  2.3110 -0.6164  0.6849
16576TIP3   OH271142   1.661   2.217  12.104 -0.6525 -0.1613  0.5364
16576TIP3    H171143   1.647   2.248  12.015  3.8593  1.2740  0.0712
16576TIP3    H271144   1.656   2.295  12.158 -1.7251 -0.7568  1.3222
16577TIP3   OH271145   5.701   4.277   5.281 -0.2672 -0.0595 -0.7536
16577TIP3    H171146   5.686   4.287   5.376 -1.3154  1.3821 -1.0287
16577TIP3    H271147   5.757   4.351   5.258  0.4756 -0.7477 -1.1720
16578TIP3   OH271148   1.238   6.724   3.438  0.5000 -0.1017 -0.0080
16578TIP3    H171149   1.183   6.772   3.377 -0.9591 -1.6346  0.0076
16578TIP3    H271150   1.295   6.671   3.383 -2.1745 -3.0261 -0.2605
16579TIP3   OH271151   3.027   3.497   0.266  0.0515 -0.4226  0.2106
16579TIP3    H171152   2.974   3.461   0.195 -0.2534 -2.0850  1.2254
16579TIP3    H271153   2.973   3.566   0.305 -0.4518 -0.6087 -0.1543
16580TIP3   OH271154   6.725   0.244  13.444 -0.4010 -0.2154 -0.0626
16580TIP3    H171155   6.798   0.184  13.432 -0.7958 -0.5477 -0.8461
16580TIP3    H271156   6.739   0.314  13.380 -0.1612  0.3254  0.5673
16581TIP3   OH271157   1.543   4.970   0.641 -0.1721  0.2600  0.1425
16581TIP3    H171158   1.549   4.986   0.547 -0.3178  1.6503  0.3507
16581TIP3    H271159   1.634   4.962   0.670 -0.0400  1.5071  0.1308
16582TIP3   OH271160   1.540   5.450  16.212 -0.4057  0.2931  0.3587
16582TIP3    H171161   1.466   5.505  16.188 -1.7350 -1.2943  0.6774
16582TIP3    H271162   1.511   5.360  16.194  2.2053 -0.2934 -1.5785
16583TIP3   OH271163   2.753   3.486  13.885  0.5443  0.1976 -0.9455
16583TIP3    H171164   2.793   3.409  13.844 -1.0723 -0.7334 -0.8884
16583TIP3    H271165   2.736   3.545  13.812 -1.7612 -1.1942 -1.6430
16584TIP3   OH271166   3.607   4.513  17.118 -0.5208 -0.4770  0.2876
16584TIP3    H171167   3.532   4.494  17.176 -2.0027 -0.6512 -1.5908
16584TIP3    H271168   3.656   4.431  17.116 -1.4684 -1.0587 -0.1048
16585TIP3   OH271169   6.597   4.884  11.876  0.3691  0.3134 -0.1640
16585TIP3    H171170   6.510   4.856  11.905  0.9670 -2.5952 -0.8750
16585TIP3    H271171   6.647   4.893  11.957 -0.1498  0.4355  0.1508
16586TIP3   OH271172   6.521   0.403  13.954  0.3369 -0.4555  0.5218
16586TIP3    H171173   6.550   0.455  13.879 -0.3218  0.7280  1.0580
16586TIP3    H271174   6.586   0.332  13.961 -0.3528 -1.4640 -2.0150
16587TIP3   OH271175   5.547   1.187   3.923  0.6206  0.0481  0.2007
16587TIP3    H171176   5.641   1.201   3.907  0.7735 -0.0513  0.9838
16587TIP3    H271177   5.508   1.275   3.918  1.0899  0.4016  1.9524
16588TIP3   OH271178   0.788   2.275  13.297 -0.2049 -0.4279  0.0091
16588TIP3    H171179   0.809   2.183  13.310 -2.2812 -0.7642  1.5295
16588TIP3    H271180   0.828   2.319  13.371  0.5725 -0.1063 -0.5831
16589TIP3   OH271181   6.283   1.113  17.110  0.2194  0.9377  0.0261
16589TIP3    H171182   6.349   1.047  17.131  0.1791  0.5346 -1.0520
16589TIP3    H271183   6.290   1.177  17.180 -1.0563 -1.1705  2.2338
16590TIP3   OH271184   2.257   0.705   5.384  0.0395  0.8894  0.6041
16590TIP3    H171185   2.339   0.685   5.429 -0.6468 -2.4701  0.5785
16590TIP3    H271186   2.230   0.623   5.344 -3.2501  1.9175  0.3853
16591TIP3   OH271187   5.841   3.753  12.995 -0.1934  0.2849 -0.4157
16591TIP3    H171188   5.778   3.769  12.925 -2.7095 -0.4802  1.5465
16591TIP3    H271189   5.829   3.826  13.055  0.3817 -0.1826  0.2760
16592TIP3   OH271190   5.210   0.613  14.502  0.5653  0.1772  0.0195
16592TIP3    H171191   5.199   0.602  14.407  0.5413  1.1797 -0.1079
16592TIP3    H271192   5.280   0.552  14.525 -1.4464 -2.3576 -0.0774
16593TIP3   OH271193   6.662   1.363   2.984  0.1338  0.7009  0.7313
16593TIP3    H171194   6.738   1.400   2.939 -0.3371  0.4564 -0.2729
16593TIP3    H271195   6.683   1.373   3.077  0.6515  2.1569  0.4782
16594TIP3   OH271196   0.269   3.006  12.497 -0.4045  0.4978  0.4262
16594TIP3    H171197   0.316   2.957  12.429  0.4171  0.5297  0.9488
16594TIP3    H271198   0.258   3.094  12.460 -1.9514 -0.0738 -0.5453
16595TIP3   OH271199   3.719   6.652  14.731  0.1718  0.3803 -0.0309
16595TIP3    H171200   3.786   6.592  14.697 -0.0641 -0.1546  0.4301
16595TIP3    H271201   3.673   6.601  14.797  0.4191  1.3018  0.8723
16596TIP3   OH271202   6.576   6.460  13.933  0.4097  0.5779  0.5842
16596TIP3    H171203   6.617   6.392  13.879  0.6526  1.2743 -0.1366
16596TIP3    H271204   6.540   6.413  14.008 -0.0031 -0.4401 -0.2182
16597TIP3   OH271205   1.559   0.815   0.848  0.4036  0.2414 -0.2248
16597TIP3    H171206   1.512   0.898   0.851  1.1301  0.6464  0.1411
16597TIP3    H271207   1.502   0.753   0.893  0.7503  1.0022  1.3336
16598TIP3   OH271208   6.429   3.546  12.788  0.1650 -0.2196  0.2344
16598TIP3    H171209   6.480   3.626  12.779  2.0366 -1.4106 -0.4907
16598TIP3    H271210   6.435   3.504  12.702  0.0719 -1.5942  0.8638
16599TIP3   OH271211   5.000   3.288  15.462 -0.1134  0.0236  0.3753
16599TIP3    H171212   5.062   3.221  15.489 -0.2894  0.5931  2.3486
16599TIP3    H271213   5.053   3.352  15.416  0.2729 -0.8271 -0.3876
16600TIP3   OH271214   2.210   2.849  16.731 -0.1301  0.0228 -0.8474
16600TIP3    H171215   2.142   2.899  16.686  0.3882  0.0351 -1.6278
16600TIP3    H271216   2.205   2.761  16.693  0.9673  0.2938 -1.6736
16601TIP3   OH271217   3.565   5.623   3.431 -0.4232  0.1406  0.3685
16601TIP3    H171218   3.645   5.632   3.380 -1.0266 -0.3246 -0.7114
16601TIP3    H271219   3.500   5.676   3.383 -1.1355 -0.7204  0.3545
16602TIP3   OH271220   5.578   6.556   4.500  0.3377  0.1663  0.2254
16602TIP3    H171221   5.562   6.511   4.583 -1.5426 -0.1571 -0.2651
16602TIP3    H271222   5.627   6.635   4.525 -0.9696  0.5426  1.7797
16603TIP3   OH271223   4.372   6.491  14.665 -0.1964  0.0517  0.0617
16603TIP3    H171224   4.354   6.558  14.730 -0.2706 -0.4941  0.6197
16603TIP3    H271225   4.315   6.418  14.689 -1.3019  0.3672 -1.4880
16604TIP3   OH271226   5.983   1.419   4.602 -0.0182  0.3080 -0.3813
16604TIP3    H171227   6.016   1.505   4.575  2.6768 -0.0923  1.1785
16604TIP3    H271228   5.976   1.425   4.697 -2.2337 -0.4976 -0.4384
16605TIP3   OH271229   6.625   1.872   0.389 -0.2386  0.0193  0.0709
16605TIP3    H171230   6.557   1.812   0.356 -0.9383  0.6496  0.3439
16605TIP3    H271231   6.656   1.918   0.311  0.3423 -0.7250 -0.1492
16606TIP3   OH271232   6.009   4.805   0.727 -0.2200  0.4915  0.2623
16606TIP3    H171233   6.036   4.713   0.724 -2.3342 -0.1782 -0.3775
16606TIP3    H271234   6.051   4.845   0.651 -1.2931 -0.6043 -0.9673
16607TIP3   OH271235   2.454   1.171   1.148 -0.4017 -0.4626 -0.5840
16607TIP3    H171236   2.442   1.089   1.101 -0.9567 -1.0256  0.5052
16607TIP3    H271237   2.547   1.191   1.139 -0.6363 -0.0380 -2.6956
16608TIP3   OH271238   1.334   1.920   2.237 -0.2518 -0.0536  0.1293
16608TIP3    H171239   1.309   1.999   2.189  0.7770  0.1771 -0.0344
16608TIP3    H271240   1.427   1.908   2.218 -0.4585 -1.4872 -0.1101
16609TIP3   OH271241   1.861   1.942  15.635 -0.2635  0.3505 -0.3123
16609TIP3    H171242   1.830   1.864  15.682 -0.6156  0.4950 -0.3040
16609TIP3    H271243   1.782   1.978  15.595 -0.3532  1.5303  0.8758
16610TIP3   OH271244   6.254   5.252  11.126  0.0683 -0.0606  0.0963
16610TIP3    H171245   6.286   5.314  11.060 -2.2795 -0.7490 -1.8530
16610TIP3    H271246   6.264   5.166  11.085 -1.0017 -0.5497  0.8163
16611TIP3   OH271247   0.217   0.275   5.940 -0.5706 -0.1729  0.1295
16611TIP3    H171248   0.243   0.213   6.007  0.0314 -0.7982 -0.6557
16611TIP3    H271249   0.204   0.358   5.986  1.3575 -0.2060  0.7764
16612TIP3   OH271250   5.059   0.671   0.227  0.1195  0.1330  0.2110
16612TIP3    H171251   5.125   0.740   0.234 -0.4697  0.6520  0.7300
16612TIP3    H271252   5.107   0.595   0.194  1.3837 -0.0761  2.3953
16613TIP3   OH271253   0.675   4.577   4.581  0.5073  0.6817 -0.1934
16613TIP3    H171254   0.706   4.656   4.537  0.3419  0.5519 -0.5464
16613TIP3    H271255   0.591   4.558   4.539  0.3632  0.5329  0.1516
16614TIP3   OH271256   4.712   4.384   4.360 -0.1147 -0.4103  0.6827
16614TIP3    H171257   4.672   4.456   4.310 -2.3904 -0.5972  2.0924
16614TIP3    H271258   4.804   4.408   4.367  0.1117  0.1400 -2.6312
16615TIP3   OH271259   0.512   1.431  12.841  0.3724  0.3224  0.3273
16615TIP3    H171260   0.440   1.483  12.807  0.2932  0.0929  0.1448
16615TIP3    H271261   0.536   1.373  12.769 -0.0507 -0.4303  0.7834
16616TIP3   OH271262   2.226   3.467   5.467  0.5807 -0.4821  0.3440
16616TIP3    H171263   2.316   3.496   5.481 -0.0195  1.6103  0.2430
16616TIP3    H271264   2.176   3.509   5.537 -0.9199  1.9325 -1.9588
16617TIP3   OH271265   4.715   3.072   2.651  0.4696  0.0068 -0.2800
16617TIP3    H171266   4.753   2.996   2.694 -1.0285 -0.3763  0.4531
16617TIP3    H271267   4.635   3.040   2.610 -0.0683  1.1318 -0.1658
16618TIP3   OH271268   5.759   1.904  15.048 -0.4261 -0.7111  0.3677
16618TIP3    H171269   5.717   1.970  14.992 -2.0512 -3.2234 -1.5567
16618TIP3    H271270   5.712   1.909  15.131 -0.9663  0.0885  0.0225
16619TIP3   OH271271   5.375   4.051  15.938  0.8783 -0.1240 -0.8383
16619TIP3    H171272   5.301   4.108  15.919  0.9616  1.3364  2.4832
16619TIP3    H271273   5.336   3.975  15.983  1.2579  0.4691  0.5693
16620TIP3   OH271274   2.116   2.372   0.476  0.3763  0.2618 -0.3710
16620TIP3    H171275   2.104   2.425   0.555 -0.2716  1.6779 -1.3779
16620TIP3    H271276   2.200   2.328   0.489  0.7048  1.1615  0.7193
16621TIP3   OH271277   4.538   3.344   2.126 -0.4517 -0.3062  0.2108
16621TIP3    H171278   4.525   3.252   2.105 -2.0219 -0.0751  0.0601
16621TIP3    H271279   4.469   3.390   2.079 -0.1096  0.8845  0.8133
16622TIP3   OH271280   3.772   4.178   2.873 -0.2457  0.1741 -0.1084
16622TIP3    H171281   3.831   4.177   2.949  2.5191 -1.2083 -2.1353
16622TIP3    H271282   3.796   4.258   2.826  0.6552 -0.7961 -1.3558
16623TIP3   OH271283   1.857   6.124  16.309 -0.2066  0.1969 -0.3611
16623TIP3    H171284   1.907   6.127  16.228 -0.1427 -0.2200 -0.3387
16623TIP3    H271285   1.797   6.198  16.303 -1.2414 -0.6882 -1.4762
16624TIP3   OH271286   0.664   5.173   4.948 -0.4425  0.6982 -0.3360
16624TIP3    H171287   0.665   5.231   4.873  0.0529  0.1405 -0.7689
16624TIP3    H271288   0.572   5.167   4.973 -0.5877  1.0150 -0.7936
16625TIP3   OH271289   1.672   1.093   1.115  0.7439  0.2849 -0.0628
16625TIP3    H171290   1.724   1.143   1.177 -0.1350  1.5198 -0.2880
16625TIP3    H271291   1.682   1.139   1.032  2.7293 -1.9119 -1.1576
16626TIP3   OH271292   6.320   6.356  16.123  0.4413 -0.2936 -0.1593
16626TIP3    H171293   6.259   6.291  16.157 -0.2839  1.3186  1.8645
16626TIP3    H271294   6.401   6.341  16.171  0.9862 -1.1069 -1.3213
16627TIP3   OH271295   3.371   6.234   2.377 -0.1703  0.5029 -0.5948
16627TIP3    H171296   3.325   6.153   2.401  1.2759 -0.0754  0.4198
16627TIP3    H271297   3.389   6.277   2.461  0.1600  1.2516 -1.0365
16628TIP3   OH271298   0.849   5.296  11.202 -0.3059 -0.3196  0.3113
16628TIP3    H171299   0.929   5.280  11.251  1.0971  2.4757 -0.8608
16628TIP3    H271300   0.862   5.250  11.119 -0.7770 -1.4296  0.8373
16629TIP3   OH271301   3.856   2.956  10.541  0.6338  0.2352  0.0237
16629TIP3    H171302   3.781   2.916  10.498  0.0343  0.5620  0.7462
16629TIP3    H271303   3.924   2.960  10.473  0.5371 -1.5024 -0.2110
16630TIP3   OH271304   0.822   6.270  11.859  0.5487 -0.1001 -0.3412
16630TIP3    H171305   0.744   6.266  11.914  0.6725  3.9970  0.3969
16630TIP3    H271306   0.888   6.220  11.907 -0.2198  0.7726  1.7316
16631TIP3   OH271307   0.361   2.164  12.583 -0.0920  0.1725  0.3256
16631TIP3    H171308   0.403   2.096  12.636  2.6376  0.7993 -0.8575
16631TIP3    H271309   0.369   2.243  12.636 -0.2740  0.1982  0.3146
16632TIP3   OH271310   3.781   3.175   3.869 -0.2774  0.2229 -0.5136
16632TIP3    H171311   3.796   3.268   3.887 -0.0133  0.2328 -0.7797
16632TIP3    H271312   3.687   3.168   3.854 -0.1886  0.5810 -1.2735
16633TIP3   OH271313   0.552   4.125   2.464  0.0840  0.7524 -0.5495
16633TIP3    H171314   0.583   4.210   2.493  1.7882 -0.7933  2.7806
16633TIP3    H271315   0.627   4.085   2.420  1.3041 -0.9049  2.6804
16634TIP3   OH271316   0.225   0.059  16.889 -0.3125 -0.1040 -0.0425
16634TIP3    H171317   0.159  -0.010  16.879  0.6624 -1.3108  1.4404
16634TIP3    H271318   0.307   0.019  16.860  0.0787  0.8305 -0.2701
16635TIP3   OH271319   5.289   2.902  11.387  0.2183  0.1673 -0.1486
16635TIP3    H171320   5.356   2.840  11.417  0.0138  0.3168  0.6519
16635TIP3    H271321   5.253   2.861  11.308  1.0216 -0.0708 -0.4085
16636TIP3   OH271322   2.420   2.955   0.978 -0.5285  0.0197 -0.1768
16636TIP3    H171323   2.385   2.914   0.899  0.4469  0.0324 -0.6361
16636TIP3    H271324   2.361   3.027   0.997 -0.8716 -0.0948 -0.7941
16637TIP3   OH271325   0.383   3.495  11.199  0.4399  0.6157  0.5757
16637TIP3    H171326   0.318   3.440  11.155  1.8922 -1.7443  1.1514
16637TIP3    H271327   0.417   3.553  11.131 -1.4284  1.1079  0.0197
16638TIP3   OH271328   1.657   5.553   3.281 -0.0291  0.0815  0.3720
16638TIP3    H171329   1.667   5.640   3.243  0.3506 -0.2242 -0.2348
16638TIP3    H271330   1.621   5.569   3.368  2.8750  1.0823  1.5307
16639TIP3   OH271331   5.844   6.130   4.842  0.1870  0.1609 -0.7461
16639TIP3    H171332   5.876   6.183   4.769 -0.3804 -1.0919 -1.9511
16639TIP3    H271333   5.922   6.113   4.895  0.7380  0.5277 -1.4273
16640TIP3   OH271334   4.343   3.283   0.027 -0.5667 -0.2788 -0.1896
16640TIP3    H171335   4.422   3.310   0.073 -0.5466 -0.2435 -0.2445
16640TIP3    H271336   4.338   3.341  -0.049 -1.8772  1.2786  1.0031
16641TIP3   OH271337   0.552   2.756   3.001  0.2045  0.1311  0.1040
16641TIP3    H171338   0.545   2.784   3.093  0.5645 -2.1956  0.8925
16641TIP3    H271339   0.643   2.776   2.977 -0.5415  3.1342 -0.6687
16642TIP3   OH271340   1.708   4.648   3.858  0.3057  0.5037  0.2508
16642TIP3    H171341   1.781   4.590   3.881  0.8040  0.0415 -2.1792
16642TIP3    H271342   1.631   4.592   3.860  0.7910 -0.3984 -2.1351
16643TIP3   OH271343   0.486   4.368  11.290  0.2405  0.0704  0.3662
16643TIP3    H171344   0.399   4.379  11.253  1.1166 -1.0187 -2.2851
16643TIP3    H271345   0.542   4.426  11.238  1.2109  0.3073  1.6219
16644TIP3   OH271346   4.578   3.862  11.421 -0.3766  0.0802 -0.2407
16644TIP3    H171347   4.597   3.945  11.465 -0.6693 -0.2282  0.4822
16644TIP3    H271348   4.483   3.853  11.427 -0.5911  0.6318 -2.0500
16645TIP3   OH271349   2.639   3.918   4.029 -0.3049  0.1843 -0.7547
16645TIP3    H171350   2.718   3.877   3.994 -1.0615 -1.4636 -0.6598
16645TIP3    H271351   2.664   3.950   4.115  0.5302  0.6356 -1.1630
16646TIP3   OH271352   5.206   2.031  15.068 -0.3841 -0.2223  0.3847
16646TIP3    H171353   5.122   2.023  15.112 -1.2034  0.8114 -0.9182
16646TIP3    H271354   5.184   2.048  14.976  1.2479 -0.9437 -0.1914
16647TIP3   OH271355   6.148   0.568   5.781  0.1817 -0.0466  0.6270
16647TIP3    H171356   6.208   0.641   5.770  1.3792 -0.9196  1.0750
16647TIP3    H271357   6.096   0.591   5.858 -0.1769  0.7879  0.1452
16648TIP3   OH271358   5.547   5.633   6.233 -0.3301 -0.2202 -0.0717
16648TIP3    H171359   5.496   5.699   6.186  0.4208 -0.3331 -1.0847
16648TIP3    H271360   5.515   5.637   6.323  1.3705  3.3012  0.5485
16649TIP3   OH271361   5.411   0.463  10.804 -0.1147  0.3504 -0.4558
16649TIP3    H171362   5.461   0.402  10.751  0.3775  0.8517 -0.5767
16649TIP3    H271363   5.470   0.537  10.818 -0.2324  0.2391  0.7743
16650TIP3   OH271364   3.599   1.808   2.681 -0.7840 -0.2905  0.0565
16650TIP3    H171365   3.630   1.887   2.635 -1.7662 -1.4140 -2.7226
16650TIP3    H271366   3.592   1.836   2.772  2.8342  1.6562 -0.0377
16651TIP3   OH271367   5.872   2.410  14.831  0.1431 -0.3167 -0.1250
16651TIP3    H171368   5.879   2.354  14.753 -1.4156  0.7405 -1.0857
16651TIP3    H271369   5.959   2.409  14.870  1.6325  0.9170 -3.1634
16652TIP3   OH271370   2.016   2.050   4.141  0.0962 -0.2817 -0.2714
16652TIP3    H171371   2.093   2.001   4.113 -0.8689 -1.6433 -0.6369
16652TIP3    H271372   1.983   2.002   4.217 -0.2316  0.4420  0.0487
16653TIP3   OH271373   3.318   0.365  13.194  0.4799 -0.0797  0.3370
16653TIP3    H171374   3.324   0.333  13.104 -2.1611 -0.1127  0.1107
16653TIP3    H271375   3.275   0.450  13.187  1.0251  0.3188  1.5277
16654TIP3   OH271376   3.719   0.325  15.403 -0.2778 -0.2728 -0.4945
16654TIP3    H171377   3.787   0.345  15.468 -0.5613  0.6261 -0.4673
16654TIP3    H271378   3.675   0.248  15.438 -0.6776  0.4251  0.5917
16655TIP3   OH271379   1.452   2.921   4.828 -0.4724 -0.0617  0.0659
16655TIP3    H171380   1.431   2.920   4.734 -1.0855  0.0093  0.1931
16655TIP3    H271381   1.522   2.857   4.838 -0.3327  0.0091 -0.4608
16656TIP3   OH271382   2.663   3.459  14.595 -0.2440  0.2813 -0.3965
16656TIP3    H171383   2.747   3.429  14.628 -0.5362  0.0820  0.1763
16656TIP3    H271384   2.640   3.533  14.650 -0.1462  0.7421 -0.9645
16657TIP3   OH271385   3.601   3.201   3.338  0.9551 -0.6417 -0.3928
16657TIP3    H171386   3.585   3.237   3.426  0.9792 -0.2146 -0.5607
16657TIP3    H271387   3.657   3.266   3.295  1.3520 -1.0881 -0.5561
16658TIP3   OH271388   4.852   6.577   1.665 -0.4225 -0.3944 -0.4818
16658TIP3    H171389   4.885   6.667   1.658 -2.2242  0.3512  0.1030
16658TIP3    H271390   4.791   6.569   1.591  0.6987 -1.6200 -1.3238
16659TIP3   OH271391   6.519   6.138   0.950  0.7641  0.3775  0.1527
16659TIP3    H171392   6.533   6.228   0.920 -1.8765  0.6414 -0.4757
16659TIP3    H271393   6.543   6.084   0.875  0.4890  0.6663 -0.1446
16660TIP3   OH271394   6.510   3.140  12.653  0.1717  0.3465  0.0964
16660TIP3    H171395   6.425   3.178  12.632  0.9988  1.9157 -0.6333
16660TIP3    H271396   6.500   3.105  12.741 -1.8359 -1.4828 -0.7505
16661TIP3   OH271397   3.378   1.419  13.219 -0.2630 -0.0264 -0.6292
16661TIP3    H171398   3.346   1.468  13.295 -0.5995 -1.6915  0.3359
16661TIP3    H271399   3.473   1.424  13.226 -0.2856 -0.6807  0.2547
16662TIP3   OH271400   5.350   1.497  13.032  0.1756 -0.1076 -0.4772
16662TIP3    H171401   5.355   1.536  13.120  1.2145 -1.2442 -0.0035
16662TIP3    H271402   5.260   1.513  13.004 -0.4367 -0.4616  1.1606
16663TIP3   OH271403   6.580   2.046   5.356  0.1424 -0.2096  0.2405
16663TIP3    H171404   6.666   2.088   5.358 -0.3461  1.0475 -1.8735
16663TIP3    H271405   6.573   2.000   5.440  3.2207 -1.0917  0.1245
16664TIP3   OH271406   6.386   2.826  14.962 -0.3604  0.0330 -0.4250
16664TIP3    H171407   6.436   2.745  14.953  1.2054  0.8094  0.6878
16664TIP3    H271408   6.440   2.892  14.917 -0.7190  0.7862  0.2308
16665TIP3   OH271409   3.153   4.141   6.004 -0.4978  0.1352  0.5123
16665TIP3    H171410   3.099   4.067   6.030  1.9329 -2.5553 -1.3487
16665TIP3    H271411   3.207   4.160   6.081  1.0540 -2.3166  0.1558
16666TIP3   OH271412   2.294   0.416  14.098 -0.4143 -0.0600  0.5021
16666TIP3    H171413   2.369   0.458  14.057 -1.4610  1.9571  0.5236
16666TIP3    H271414   2.302   0.438  14.191  0.1920 -1.8435  0.9143
16667TIP3   OH271415   0.009   6.583   0.152  0.2103  0.4955  0.0116
16667TIP3    H171416  -0.052   6.590   0.079  2.2958  2.4097 -1.6916
16667TIP3    H271417  -0.014   6.500   0.194 -1.5745 -0.3286 -2.3555
16668TIP3   OH271418   5.615   0.873  12.818 -0.6544  0.7172 -0.3373
16668TIP3    H171419   5.529   0.913  12.828 -1.7784 -1.6627  0.2569
16668TIP3    H271420   5.621   0.849  12.726 -0.5760  0.9705 -0.3993
16669TIP3   OH271421   4.399   1.728  13.873  0.2355 -0.3294  0.0394
16669TIP3    H171422   4.400   1.807  13.819  0.3997 -0.7206 -0.5472
16669TIP3    H271423   4.311   1.691  13.861  1.3834 -2.5093 -3.1558
16670TIP3   OH271424   2.822   5.596  11.639 -0.1506  0.6269 -0.2014
16670TIP3    H171425   2.790   5.676  11.597 -3.9167 -1.6746 -2.3560
16670TIP3    H271426   2.900   5.573  11.588 -1.4555  0.8350 -2.4665
16671TIP3   OH271427   2.176   0.098  17.248 -0.1243 -0.1103 -0.0818
16671TIP3    H171428   2.256   0.072  17.203 -0.2289 -0.0730 -0.2950
16671TIP3    H271429   2.142   0.171  17.195  1.2005  1.8033  1.5897
16672TIP3   OH271430   0.281   3.256  10.862 -0.2058 -0.4480  0.0160
16672TIP3    H171431   0.371   3.231  10.844 -0.2427 -0.9531  0.5253
16672TIP3    H271432   0.235   3.242  10.779  0.4995  1.3573 -0.7183
16673TIP3   OH271433   3.213   5.493   5.214  0.3941 -0.5189  0.3931
16673TIP3    H171434   3.247   5.552   5.147  0.5389  0.1136  1.0159
16673TIP3    H271435   3.286   5.435   5.235  0.7731  0.1423  0.9507
16674TIP3   OH271436   6.574   2.499   5.575  0.2346  0.1871  0.2031
16674TIP3    H171437   6.578   2.413   5.617 -2.3667  1.0496  2.5359
16674TIP3    H271438   6.544   2.558   5.644 -0.7341  2.4449 -1.9965
16675TIP3   OH271439   3.682   5.328  11.337  0.1627 -0.0010  0.1006
16675TIP3    H171440   3.599   5.282  11.348  0.3986 -0.2841  0.7131
16675TIP3    H271441   3.663   5.398  11.274  0.0175 -1.4728 -1.5444
16676TIP3   OH271442   4.500   6.320  15.416 -0.5109  0.2333  0.4803
16676TIP3    H171443   4.586   6.282  15.428 -0.3602  0.8586  1.4795
16676TIP3    H271444   4.471   6.287  15.331  1.2336  0.9837 -0.4721
16677TIP3   OH271445   4.500   2.424  16.668  0.7737  0.2099 -0.3779
16677TIP3    H171446   4.446   2.357  16.710 -1.1657  1.3890 -0.8903
16677TIP3    H271447   4.590   2.393  16.682  0.1066 -0.9125  2.0797
16678TIP3   OH271448   1.384   3.950   1.525  0.3116 -0.2961  0.0275
16678TIP3    H171449   1.438   3.995   1.591  0.9148 -0.1666 -0.5421
16678TIP3    H271450   1.447   3.917   1.461 -0.3148  0.4523 -1.0160
16679TIP3   OH271451   1.518   5.925   1.028 -0.1559  0.1436 -0.2650
16679TIP3    H171452   1.431   5.948   0.995 -0.6932  0.6695  1.4100
16679TIP3    H271453   1.515   5.830   1.039  0.0816 -0.0627 -1.7812
16680TIP3   OH271454   3.491   0.082  13.501  0.2756 -0.0561  0.1425
16680TIP3    H171455   3.409   0.098  13.453  0.6983  0.3838 -0.4424
16680TIP3    H271456   3.541   0.163  13.490 -0.3019  0.7566  2.7765
16681TIP3   OH271457   6.623   5.208   2.870 -0.4544  0.2078 -0.0012
16681TIP3    H171458   6.704   5.219   2.920  0.1173  1.1678 -1.0877
16681TIP3    H271459   6.562   5.272   2.907 -0.0169  0.9508 -0.5502
16682TIP3   OH271460   6.500   4.253  17.004  0.2471 -0.3435  0.8038
16682TIP3    H171461   6.474   4.163  17.027  1.4575 -1.1938 -0.9427
16682TIP3    H271462   6.579   4.269  17.055  0.8566 -0.8533  0.0500
16683TIP3   OH271463   0.604   0.346  16.675 -0.4601 -0.3071  0.0980
16683TIP3    H171464   0.580   0.385  16.759  0.9922  1.5242 -0.2787
16683TIP3    H271465   0.636   0.258  16.698 -0.5082 -0.0007  1.4008
16684TIP3   OH271466   3.074   5.103   2.489  0.0486 -0.0529  0.2992
16684TIP3    H171467   3.038   5.022   2.452 -0.7187 -1.3175  3.4925
16684TIP3    H271468   3.162   5.079   2.518  0.8621  1.0696 -1.1073
16685TIP3   OH271469   6.561   4.237  12.106 -0.4977 -0.0500 -0.7819
16685TIP3    H171470   6.605   4.215  12.188 -0.6942  0.0782 -0.6409
16685TIP3    H271471   6.627   4.222  12.038 -1.0015 -2.3872 -0.8472
16686TIP3   OH271472   6.146   6.371   0.704  0.4642 -0.0238 -0.0045
16686TIP3    H171473   6.175   6.296   0.755  1.3611  0.9413  0.9425
16686TIP3    H271474   6.080   6.335   0.644  2.2453 -1.9360 -0.9424
16687TIP3   OH271475   5.800   3.397   0.320 -0.0083 -0.0293  0.2941
16687TIP3    H171476   5.817   3.429   0.231 -0.0547 -2.7486 -0.8083
16687TIP3    H271477   5.723   3.446   0.348 -0.2346  0.6322 -1.3398
16688TIP3   OH271478   3.723   0.249   3.650 -0.4762 -0.9015  0.5022
16688TIP3    H171479   3.693   0.321   3.595  0.8707 -0.1990  0.6512
16688TIP3    H271480   3.644   0.199   3.670 -1.6746  1.3143  1.5707
16689TIP3   OH271481   5.969   0.880   1.666  0.0551 -0.1046 -0.1869
16689TIP3    H171482   5.887   0.877   1.615  0.9008  0.6722 -1.6599
16689TIP3    H271483   6.024   0.942   1.619  0.6330  1.2490  2.1231
16690TIP3   OH271484   2.109   0.862   5.580 -0.3819  0.7268  0.6816
16690TIP3    H171485   2.150   0.941   5.547 -1.4168  1.1018  0.2632
16690TIP3    H271486   2.159   0.790   5.540 -0.1599  1.1695  0.1604
16691TIP3   OH271487   1.262   4.192   4.178 -0.0981 -0.1935  0.0285
16691TIP3    H171488   1.271   4.139   4.257  1.2708 -0.8938 -0.5731
16691TIP3    H271489   1.169   4.186   4.156 -0.8774  1.3643  2.4678
16692TIP3   OH271490   5.134   6.456  14.863  0.3203  0.6139 -0.2063
16692TIP3    H171491   5.043   6.428  14.855  0.3056  0.5218  0.2634
16692TIP3    H271492   5.143   6.527  14.800 -0.1013  0.6885 -0.1850
16693TIP3   OH271493   1.660   4.094   4.452  0.0477  0.4997 -0.1861
16693TIP3    H171494   1.643   4.055   4.367 -0.3306 -1.1552  0.6226
16693TIP3    H271495   1.583   4.074   4.504 -0.1092  2.2513  0.3203
16694TIP3   OH271496   4.480   6.454  11.242  0.4924  0.0539  0.4695
16694TIP3    H171497   4.510   6.430  11.155 -0.3005 -0.4184  0.3073
16694TIP3    H271498   4.402   6.399  11.256  2.0967 -1.9486  2.5458
16695TIP3   OH271499   4.236   4.523   5.256  0.0755  0.3622  0.7442
16695TIP3    H171500   4.317   4.476   5.238  0.4003  1.3880 -0.6524
16695TIP3    H271501   4.263   4.614   5.271 -0.6593  0.3856  2.0917
16696TIP3   OH271502   6.382   2.271  12.341  0.3468 -0.2931  0.2285
16696TIP3    H171503   6.313   2.286  12.405 -1.8413 -3.4404 -1.1525
16696TIP3    H271504   6.457   2.243  12.394 -1.5153 -3.2490  1.5908
16697TIP3   OH271505   5.715   6.568   2.435 -0.3775 -0.8206 -0.0985
16697TIP3    H171506   5.656   6.528   2.499  0.3655  0.7882  1.6808
16697TIP3    H271507   5.661   6.578   2.357 -2.1422 -0.4805  1.0850
16698TIP3   OH271508   2.542   5.903   2.826 -0.1067  0.5128  0.4772
16698TIP3    H171509   2.558   5.997   2.836 -0.9611  0.8744 -1.2569
16698TIP3    H271510   2.577   5.882   2.739 -3.9028  0.2259 -1.1712
16699TIP3   OH271511   4.579   1.285   0.389  0.4758 -0.2254  0.6825
16699TIP3    H171512   4.550   1.305   0.478 -0.9755  2.9273 -0.3585
16699TIP3    H271513   4.511   1.228   0.353  0.9165 -1.2591  1.4410
16700TIP3   OH271514   3.833   4.716   3.646 -0.2533 -0.1000 -0.0467
16700TIP3    H171515   3.762   4.755   3.595  0.1232 -0.8471 -1.1761
16700TIP3    H271516   3.805   4.625   3.660  0.2460 -0.2572 -0.0462
16701TIP3   OH271517   6.340   4.150  16.293 -0.5983  0.0676 -0.0982
16701TIP3    H171518   6.265   4.114  16.340 -0.3028 -0.0388  0.3030
16701TIP3    H271519   6.312   4.237  16.266  0.1389  1.3165  2.7353
16702TIP3   OH271520   2.178   4.923   5.067 -0.0944 -0.1531 -0.2350
16702TIP3    H171521   2.206   4.912   5.158 -0.1294  0.8147 -0.0996
16702TIP3    H271522   2.236   4.990   5.031 -0.2817 -0.3030 -0.8355
16703TIP3   OH271523   4.858   5.133  14.107 -0.0695 -0.0946 -0.6287
16703TIP3    H171524   4.834   5.046  14.141  1.7002 -0.5660 -0.4988
16703TIP3    H271525   4.910   5.114  14.028 -0.2182  0.8704 -0.9665
16704TIP3   OH271526   0.458   2.036  14.376 -0.5901  0.0941 -0.2552
16704TIP3    H171527   0.364   2.050  14.364 -0.2533  0.6684 -2.5571
16704TIP3    H271528   0.491   2.122  14.405 -0.7604 -0.1131  0.5733
16705TIP3   OH271529   5.169   5.272  13.352 -0.7253 -0.3950 -0.2942
16705TIP3    H171530   5.078   5.243  13.361 -0.3329 -1.2681  0.9005
16705TIP3    H271531   5.200   5.285  13.441  0.5978 -0.9141 -0.6595
16706TIP3   OH271532   0.699   3.646   5.936 -0.6314  0.2603 -0.2011
16706TIP3    H171533   0.704   3.670   6.028  1.5986 -1.1720  0.1297
16706TIP3    H271534   0.748   3.715   5.891  1.0459 -0.6709  0.1127
16707TIP3   OH271535   3.884   6.053   1.222  0.2189 -0.6645 -0.0476
16707TIP3    H171536   3.903   6.136   1.267 -2.0900  0.3130 -0.7309
16707TIP3    H271537   3.804   6.020   1.264  0.8061 -2.3043 -0.1413
16708TIP3   OH271538   4.254   0.043  12.124 -0.3018 -0.3131  0.0782
16708TIP3    H171539   4.190  -0.026  12.106  0.2914 -0.9518  0.3903
16708TIP3    H271540   4.233   0.112  12.061 -1.9398 -0.0825  0.8065
16709TIP3   OH271541   2.439   4.119   5.801  0.0050  0.7877  0.3586
16709TIP3    H171542   2.421   4.185   5.867 -1.2592  0.5062  0.3238
16709TIP3    H271543   2.361   4.063   5.801 -0.3493  1.1935 -1.8635
16710TIP3   OH271544   1.948   4.895   3.994 -0.1081  0.5111  0.7806
16710TIP3    H171545   1.982   4.826   3.937 -0.5250  1.1090 -0.2137
16710TIP3    H271546   1.863   4.918   3.957  0.4595  2.2696  0.4525
16711TIP3   OH271547   2.927   5.922  15.667 -0.1587  0.0507  0.4446
16711TIP3    H171548   2.909   5.905  15.575  0.3600  0.5084  0.2520
16711TIP3    H271549   2.855   5.879  15.714  0.3738 -1.4797 -0.0845
16712TIP3   OH271550   6.421   1.557   5.168 -0.1569 -0.4361 -0.2942
16712TIP3    H171551   6.430   1.630   5.107 -1.3385 -0.1254 -0.1254
16712TIP3    H271552   6.332   1.525   5.154 -0.1018 -0.9994  0.5613
16713TIP3   OH271553   6.697   1.337   5.868  0.3087  0.1339  0.3670
16713TIP3    H171554   6.662   1.397   5.803 -0.4766  0.7270  1.3238
16713TIP3    H271555   6.738   1.393   5.934 -2.4386 -0.1536  2.4734
16714TIP3   OH271556   5.839   4.607   4.241 -0.0435  0.2827  0.1592
16714TIP3    H171557   5.810   4.569   4.157 -0.2324  1.2770 -0.2363
16714TIP3    H271558   5.931   4.582   4.247  1.6222  4.4135 -2.9450
16715TIP3   OH271559   5.578   6.459  12.175  0.2985 -0.4314 -0.0905
16715TIP3    H171560   5.486   6.440  12.156  0.5853 -1.5945 -0.4185
16715TIP3    H271561   5.575   6.535  12.233 -0.9619 -1.5259  1.3812
16716TIP3   OH271562   6.250   5.386   2.366 -0.1220  0.4135 -0.3522
16716TIP3    H171563   6.251   5.447   2.292 -1.6562  1.5594  0.5195
16716TIP3    H271564   6.328   5.407   2.416  0.5447  0.1179 -1.2389
16717TIP3   OH271565   0.768   0.337   4.737 -0.9078  0.1437 -0.3117
16717TIP3    H171566   0.707   0.408   4.714 -0.3026  0.7123 -0.1913
16717TIP3    H271567   0.773   0.340   4.832  1.0880  1.6508 -0.4053
16718TIP3   OH271568   3.606   6.471  12.212 -0.3923  0.0439  0.8627
16718TIP3    H171569   3.518   6.502  12.194 -0.0632  0.9059  0.6919
16718TIP3    H271570   3.594   6.393  12.265 -1.2677 -0.1432  0.4065
16719TIP3   OH271571   0.929   1.365   5.937 -0.1295 -0.3162  0.0721
16719TIP3    H171572   0.993   1.298   5.961 -0.1651 -0.3108  0.1847
16719TIP3    H271573   0.939   1.376   5.843  0.0644 -0.2845  0.0974
16720TIP3   OH271574   2.727   2.358   3.475 -0.0942 -0.4745 -0.0152
16720TIP3    H171575   2.727   2.407   3.393  0.1771 -1.5955 -0.6948
16720TIP3    H271576   2.698   2.422   3.540 -0.5476  0.3700 -1.0117
16721TIP3   OH271577   5.422   4.644  14.858  0.4157 -0.0009 -0.1606
16721TIP3    H171578   5.413   4.696  14.938  2.8695  0.4702 -0.1191
16721TIP3    H271579   5.405   4.706  14.787  2.0510  0.5873 -0.0726
16722TIP3   OH271580   4.377   0.910   5.433  0.3673  0.2523  0.1128
16722TIP3    H171581   4.407   0.938   5.519  2.4568 -1.4284  0.0063
16722TIP3    H271582   4.457   0.895   5.382 -0.7882  0.3163 -1.8367
16723TIP3   OH271583   2.409   0.110  16.524 -0.1378  0.7763  0.4741
16723TIP3    H171584   2.397   0.015  16.529  0.8412  0.5774 -0.5797
16723TIP3    H271585   2.321   0.143  16.504  0.0527 -0.2489 -2.6334
16724TIP3   OH271586   2.429   2.086   2.568 -0.3216  0.2358 -0.1521
16724TIP3    H171587   2.485   2.070   2.492 -0.1218  1.1176 -0.1954
16724TIP3    H271588   2.487   2.130   2.631  0.3036 -2.8034  1.5961
16725TIP3   OH271589   1.370   6.591  11.366 -0.1387  0.0836  0.7173
16725TIP3    H171590   1.447   6.621  11.413  0.8879 -0.8657 -0.2977
16725TIP3    H271591   1.404   6.557  11.283 -1.9027  2.2302 -1.0259
16726TIP3   OH271592   1.204   3.357  16.269 -0.4879  0.5925 -0.3931
16726TIP3    H171593   1.110   3.364  16.287 -0.6408  0.4606 -1.0723
16726TIP3    H271594   1.230   3.274  16.308 -0.3206  1.3205  1.0927
16727TIP3   OH271595   2.310   2.990  14.231 -0.1866  0.0342  0.0157
16727TIP3    H171596   2.294   3.008  14.324 -1.1995  1.8649 -0.4570
16727TIP3    H271597   2.254   2.915  14.211 -1.3815  0.7563  0.4980
16728TIP3   OH271598   5.235   6.088   5.181  0.1674  0.5264  0.2465
16728TIP3    H171599   5.173   6.108   5.251  0.8485 -2.2125  1.7545
16728TIP3    H271600   5.316   6.132   5.206 -0.1834  1.3327  0.0078
16729TIP3   OH271601   2.504   3.572  16.511 -0.6483  0.1170  0.1724
16729TIP3    H171602   2.484   3.557  16.603  0.5814 -0.8617  0.3212
16729TIP3    H271603   2.600   3.565  16.507 -0.4646  2.4940 -0.7867
16730TIP3   OH271604   4.868   4.421  14.368 -0.0762 -0.1550  0.2667
16730TIP3    H171605   4.794   4.402  14.425  0.4186 -1.2368  0.5655
16730TIP3    H271606   4.834   4.411  14.279 -0.0357 -1.6826  0.4103
16731TIP3   OH271607   3.182   6.024  15.678  0.1322 -0.0775 -0.1145
16731TIP3    H171608   3.179   6.091  15.746  1.0061 -0.1355 -0.0078
16731TIP3    H271609   3.094   5.985  15.679  0.8190 -1.8875  2.8109
16732TIP3   OH271610   2.926   0.479   4.157  0.7005  0.0381 -0.4186
16732TIP3    H171611   2.874   0.468   4.078  1.7118 -0.1618 -1.0689
16732TIP3    H271612   2.960   0.568   4.151  0.6417  0.0829 -0.1199
16733TIP3   OH271613   5.632   4.137   1.297  0.8131 -0.8622  0.4739
16733TIP3    H171614   5.547   4.160   1.259  0.8750 -2.9638 -1.1190
16733TIP3    H271615   5.693   4.198   1.256  0.2568 -0.1756  0.6472
16734TIP3   OH271616   4.659   1.685  15.407 -0.5761 -0.2953 -0.0751
16734TIP3    H171617   4.632   1.733  15.328 -2.3206  0.8401  1.1504
16734TIP3    H271618   4.656   1.750  15.477  0.5246 -1.3798  1.0371
16735TIP3   OH271619   4.904   3.149   0.883  0.3628 -0.2287 -0.0418
16735TIP3    H171620   4.812   3.146   0.907  0.2474  0.9465 -0.3097
16735TIP3    H271621   4.906   3.121   0.791  0.1170  0.8849 -0.4022
16736TIP3   OH271622   0.408   2.390  12.719  0.1951  0.6846 -0.5323
16736TIP3    H171623   0.374   2.434  12.797 -1.2388  1.1469 -1.3798
16736TIP3    H271624   0.392   2.452  12.648 -0.0621 -0.3968 -1.4517
16737TIP3   OH271625   0.142   5.186  17.169 -0.4867 -1.1066 -0.0252
16737TIP3    H171626   0.104   5.109  17.212 -0.5479 -0.8927  0.2987
16737TIP3    H271627   0.236   5.180  17.189 -0.9177  1.1474  3.6303
16738TIP3   OH271628   3.789   3.574  12.005  0.5398  0.1182 -0.5864
16738TIP3    H171629   3.750   3.522  12.075  3.8741 -0.6035  0.9583
16738TIP3    H271630   3.813   3.509  11.939  0.1902  0.3898 -0.9829
16739TIP3   OH271631   4.556   0.020   0.933 -0.1025 -0.6264 -0.1522
16739TIP3    H171632   4.489  -0.047   0.929 -0.1686 -0.5304 -0.9034
16739TIP3    H271633   4.509   0.103   0.921  0.0975 -0.5290 -0.2820
16740TIP3   OH271634   1.199   1.173   4.110 -0.0800 -0.3575 -0.0848
16740TIP3    H171635   1.130   1.144   4.170  0.3239  0.4517  0.8008
16740TIP3    H271636   1.213   1.265   4.132 -0.5852  0.2494 -2.0913
16741TIP3   OH271637   4.952   3.135  16.517  0.2801 -0.0567 -0.1022
16741TIP3    H171638   4.936   3.040  16.524  1.2081 -0.1649  0.8014
16741TIP3    H271639   4.868   3.171  16.489 -0.1826 -1.1095 -0.1367
16742TIP3   OH271640   1.698   5.489   5.423  0.2415  0.0349  0.0884
16742TIP3    H171641   1.709   5.533   5.338 -0.3827  2.6799  1.2652
16742TIP3    H271642   1.773   5.519   5.475 -2.3360  3.4364  2.3025
16743TIP3   OH271643   6.253   1.056  14.127  0.2844  0.4288  0.3781
16743TIP3    H171644   6.223   1.146  14.142  1.1090  0.6371  0.8145
16743TIP3    H271645   6.219   1.007  14.203 -2.9704 -0.3669 -1.4058
16744TIP3   OH271646   0.339   4.076   2.921 -0.3832  0.8037 -0.1226
16744TIP3    H171647   0.375   4.050   2.837  0.5195  0.6871  0.2868
16744TIP3    H271648   0.244   4.073   2.909 -0.2630  0.7079 -1.1023
16745TIP3   OH271649   4.928   4.668   4.518 -0.0153 -0.2791 -0.2508
16745TIP3    H171650   4.916   4.715   4.436  0.0685 -0.5075 -0.3947
16745TIP3    H271651   4.959   4.735   4.579  0.2159 -0.1674 -0.4855
16746TIP3   OH271652   4.535   2.127  12.957  0.7737  0.2460  0.7687
16746TIP3    H171653   4.524   2.143  13.050  0.5343 -0.5888  0.8898
16746TIP3    H271654   4.488   2.046  12.940  0.5669  0.5378 -0.1377
16747TIP3   OH271655   1.505   5.236  14.056 -0.2014  0.4069 -0.1742
16747TIP3    H171656   1.494   5.152  14.012  0.2206  0.5539 -0.5623
16747TIP3    H271657   1.600   5.251  14.057 -0.2299  0.5825  0.4504
16748TIP3   OH271658   5.238   3.196  16.040  0.6041  0.3266 -0.3407
16748TIP3    H171659   5.299   3.202  16.113  0.6905  2.1176 -0.5105
16748TIP3    H271660   5.185   3.119  16.059  0.4234  0.9004  1.7762
16749TIP3   OH271661   4.618   0.536   3.904 -0.0381  0.1652  0.2606
16749TIP3    H171662   4.594   0.534   3.996  0.6831  3.7463  0.6733
16749TIP3    H271663   4.535   0.528   3.857 -0.6368  0.1999  1.2898
16750TIP3   OH271664   0.228   2.242  15.815 -0.1428  0.4922 -0.7154
16750TIP3    H171665   0.318   2.214  15.797 -0.2632 -0.1927 -0.3211
16750TIP3    H271666   0.213   2.216  15.906 -1.0511 -0.2815 -1.0605
16751TIP3   OH271667   1.392   0.229  13.936  0.1083  0.0405 -0.2549
16751TIP3    H171668   1.367   0.146  13.977 -1.0323  0.5343  0.0818
16751TIP3    H271669   1.480   0.246  13.968  0.0199 -0.6132  0.3484
16752TIP3   OH271670   3.989   0.131   1.659 -0.2285  0.4043 -0.2159
16752TIP3    H171671   3.973   0.143   1.566  1.9174  0.6705 -0.5981
16752TIP3    H271672   3.902   0.125   1.698 -1.1812  1.3804 -2.0767
16753TIP3   OH271673   4.342   5.203  12.082 -0.5592 -0.2116 -0.1773
16753TIP3    H171674   4.411   5.174  12.023  0.7804 -0.4575  1.4551
16753TIP3    H271675   4.324   5.293  12.055  2.2015  0.7685  0.8948
16754TIP3   OH271676   4.148   1.151   0.777  0.5773 -0.0687 -0.2277
16754TIP3    H171677   4.076   1.093   0.801  0.6623  0.3409  1.0808
16754TIP3    H271678   4.215   1.134   0.843  0.0107  2.5908  1.1633
16755TIP3   OH271679   4.468   6.679   1.673  0.0251  0.2817  0.5658
16755TIP3    H171680   4.443   6.751   1.730 -0.3568 -1.3265  2.5827
16755TIP3    H271681   4.405   6.682   1.600  0.3675  2.2473  0.3118
16756TIP3   OH271682   3.335   4.094   3.565  0.2059 -0.2354 -0.6337
16756TIP3    H171683   3.374   4.111   3.479  1.9128 -1.0955 -0.0746
16756TIP3    H271684   3.301   4.005   3.559 -0.5220  0.0397 -0.6962
16757TIP3   OH271685   5.410   1.745   5.528  0.9022 -0.1478 -0.0759
16757TIP3    H171686   5.468   1.803   5.576  0.7201  0.8244 -0.9864
16757TIP3    H271687   5.340   1.803   5.496  0.6930 -0.8717 -0.9652
16758TIP3   OH271688   3.662   5.898  17.215  0.0031 -0.1359  0.5876
16758TIP3    H171689   3.633   5.838  17.147  0.2473  0.1665  0.2113
16758TIP3    H271690   3.745   5.860  17.246  0.4039  0.2468  0.0178
16759TIP3   OH271691   3.386   4.238   4.531 -0.1502  0.0531  0.1372
16759TIP3    H171692   3.331   4.317   4.537  0.2282  0.1877  2.6622
16759TIP3    H271693   3.324   4.165   4.531 -0.4105  0.2411  1.9041
16760TIP3   OH271694   1.984   2.082   6.122  0.0817 -0.4733  0.4321
16760TIP3    H171695   1.952   2.060   6.035 -2.0964  0.4476  0.9412
16760TIP3    H271696   1.905   2.090   6.176  1.4265 -2.8484  2.9889
16761TIP3   OH271697   2.428   2.608   1.743  0.2335  0.9065  0.1976
16761TIP3    H171698   2.384   2.624   1.661 -0.5866  0.0760  0.4551
16761TIP3    H271699   2.358   2.598   1.807  0.5404 -2.7670  0.2136
16762TIP3   OH271700   3.842   4.610  12.781  0.2675  0.1430 -0.3320
16762TIP3    H171701   3.880   4.548  12.844 -0.5101 -0.5781 -0.5458
16762TIP3    H271702   3.761   4.640  12.823 -0.6288 -0.8844 -1.2387
16763TIP3   OH271703   3.107   2.861   4.569 -0.0573 -0.2843 -0.0590
16763TIP3    H171704   3.036   2.811   4.611 -0.7144 -1.1252 -2.0290
16763TIP3    H271705   3.181   2.800   4.569 -0.4703 -0.8227 -1.2864
16764TIP3   OH271706   0.660   3.033   4.427 -0.3877 -0.0901 -0.6006
16764TIP3    H171707   0.727   2.976   4.464 -0.4961  1.1546  1.7124
16764TIP3    H271708   0.585   3.024   4.486 -0.8461  1.4847 -0.8794
16765TIP3   OH271709   2.546   5.818   4.395 -0.4540 -0.0259 -0.3778
16765TIP3    H171710   2.620   5.815   4.456 -0.2783  0.0751 -0.5828
16765TIP3    H271711   2.490   5.888   4.427 -2.1292 -2.1318  1.6709
16766TIP3   OH271712   6.440   2.716  11.434 -0.0329 -0.4363 -1.2066
16766TIP3    H171713   6.473   2.736  11.346 -1.0796  1.3155 -1.2597
16766TIP3    H271714   6.475   2.785  11.489  1.5852 -2.1725  0.0577
16767TIP3   OH271715   5.593   2.943   5.475  0.2439  0.6096  0.4824
16767TIP3    H171716   5.511   2.894   5.475 -0.1993  1.3098 -0.6165
16767TIP3    H271717   5.592   2.991   5.557  0.0565 -0.1832  0.9543
16768TIP3   OH271718   5.499   1.012  14.087 -0.1963 -0.4368 -0.3181
16768TIP3    H171719   5.525   1.054  14.005 -2.0130  0.2503 -0.5777
16768TIP3    H271720   5.469   1.083  14.142  0.6276 -0.9440  0.8273
16769TIP3   OH271721   3.062   3.155  13.564 -0.7682 -0.5371  0.5342
16769TIP3    H171722   3.136   3.138  13.622  0.1959  0.6116 -0.3139
16769TIP3    H271723   3.101   3.164  13.477 -1.8822  0.2508  0.0940
16770TIP3   OH271724   0.100   6.468  13.295 -0.7580 -0.5048  0.0839
16770TIP3    H171725   0.096   6.399  13.361 -1.9340 -0.5134  0.0408
16770TIP3    H271726   0.166   6.438  13.233  0.2923 -0.5406  1.1974
16771TIP3   OH271727   6.358   0.465   0.236  0.3121  0.0877  0.2193
16771TIP3    H171728   6.361   0.518   0.316  0.3768  0.0375  0.2504
16771TIP3    H271729   6.389   0.379   0.264 -0.2650 -0.1011  0.2699
16772TIP3   OH271730   3.780   3.077   2.878 -0.8681  0.0675 -0.1268
16772TIP3    H171731   3.729   3.010   2.833  0.0121  0.0036 -1.0733
16772TIP3    H271732   3.734   3.159   2.858  0.4415  0.2948 -2.7479
16773TIP3   OH271733   2.284   0.239   2.074 -0.0186 -0.3319 -0.1251
16773TIP3    H171734   2.200   0.285   2.072 -0.0056 -0.2042  1.2055
16773TIP3    H271735   2.280   0.179   1.999 -1.1273 -0.0528 -0.3143
16774TIP3   OH271736   0.713   2.386   1.104  0.1746  0.1643 -0.6682
16774TIP3    H171737   0.787   2.332   1.132  0.5959  1.8522  1.8320
16774TIP3    H271738   0.752   2.453   1.048  0.0205 -0.6767 -1.8138
16775TIP3   OH271739   0.012   2.477   1.550  0.2366  0.2028  0.5099
16775TIP3    H171740   0.092   2.529   1.538 -0.6512  1.2234 -1.4963
16775TIP3    H271741   0.013   2.452   1.642  2.6700  0.5043  0.6265
16776TIP3   OH271742   4.754   5.118  10.674  0.3496 -0.2079  0.3623
16776TIP3    H171743   4.822   5.068  10.628  1.1671  0.5245  0.7406
16776TIP3    H271744   4.723   5.181  10.608  2.6391  1.9185  1.1715
16777TIP3   OH271745   3.618   1.572   1.605  0.4545  0.3500 -0.5259
16777TIP3    H171746   3.690   1.520   1.640 -0.1014 -2.0227 -2.6130
16777TIP3    H271747   3.545   1.555   1.665  0.8006  0.2913 -0.1161
16778TIP3   OH271748   5.040   1.051   6.260 -0.0176 -0.2294 -0.2415
16778TIP3    H171749   5.037   1.025   6.168 -2.6959  1.3343 -0.7101
16778TIP3    H271750   5.076   1.139   6.258 -1.4345  0.3897 -0.0327
16779TIP3   OH271751   3.445   2.539   3.644  0.3605 -0.5122 -0.2173
16779TIP3    H171752   3.502   2.518   3.718 -0.0288 -2.9689 -0.5543
16779TIP3    H271753   3.374   2.590   3.683  1.7309  0.9024  0.5261
16780TIP3   OH271754   6.476   1.644   2.639 -0.4013 -0.2714  0.2696
16780TIP3    H171755   6.542   1.593   2.686  0.9474  0.3801 -0.8285
16780TIP3    H271756   6.415   1.578   2.605  0.6299 -1.0678 -0.1113
16781TIP3   OH271757   2.625   0.982  11.508 -0.0901  0.2387  0.1111
16781TIP3    H171758   2.655   1.043  11.441  1.9491 -1.2218 -0.4016
16781TIP3    H271759   2.598   0.903  11.460  0.7128 -0.5681  0.9310
16782TIP3   OH271760   2.743   3.238  14.285  1.2006  0.3271 -0.3190
16782TIP3    H171761   2.686   3.210  14.213  0.6459  0.1236  0.1951
16782TIP3    H271762   2.730   3.172  14.353  0.4096  1.4199  0.6287
16783TIP3   OH271763   0.425   0.959   1.625 -0.1143  0.3875 -0.4061
16783TIP3    H171764   0.441   0.868   1.600 -0.8566  0.7888 -2.4422
16783TIP3    H271765   0.342   0.957   1.672  0.3892 -0.1087  0.4967
16784TIP3   OH271766   2.785   4.651  11.348  0.2317  0.3782 -0.1607
16784TIP3    H171767   2.844   4.712  11.304  1.8230 -0.6769  0.4463
16784TIP3    H271768   2.772   4.689  11.435  1.6948 -0.3816  0.4267
16785TIP3   OH271769   0.578   4.551   5.031 -0.0424 -0.0284 -0.0896
16785TIP3    H171770   0.526   4.471   5.032  0.6263 -0.6976  4.9760
16785TIP3    H271771   0.520   4.618   5.069  1.0814  0.5288  0.6879
16786TIP3   OH271772   2.921   1.747   5.755 -0.1603 -0.0104 -1.0475
16786TIP3    H171773   3.007   1.751   5.796 -0.1974  0.9926 -1.0435
16786TIP3    H271774   2.925   1.670   5.698  0.1550 -0.9479  0.2167
16787TIP3   OH271775   2.144   1.719   3.596  0.1267 -0.0522  0.1017
16787TIP3    H171776   2.068   1.669   3.565 -0.8320  1.8803 -0.8110
16787TIP3    H271777   2.214   1.694   3.537 -0.1401 -0.8531  0.1128
16788TIP3   OH271778   2.619   6.405  15.930  0.1864 -0.0616 -0.3424
16788TIP3    H171779   2.677   6.330  15.932  0.6477  0.2603 -1.0728
16788TIP3    H271780   2.533   6.369  15.910  0.1550 -0.5212  0.5782
16789TIP3   OH271781   3.934   0.122   5.537 -0.4157  0.3065 -0.3662
16789TIP3    H171782   3.928   0.059   5.608 -2.1387  1.1110  0.2602
16789TIP3    H271783   4.020   0.163   5.548 -0.4775  0.1093  0.9710
16790TIP3   OH271784   6.037   4.381  12.783  0.2377  0.2866 -0.1440
16790TIP3    H171785   6.130   4.378  12.807  0.0427  1.1672  0.8307
16790TIP3    H271786   6.003   4.458  12.830 -0.9464  0.0777 -0.6222
16791TIP3   OH271787   3.491   5.015   6.106  0.2269  0.1048 -0.4002
16791TIP3    H171788   3.458   5.099   6.138 -0.5953  0.4747 -2.0850
16791TIP3    H271789   3.579   5.008   6.141  0.7407  2.2169 -1.1119
16792TIP3   OH271790   4.827   5.287  12.389  0.2330  0.4420 -0.4799
16792TIP3    H171791   4.862   5.289  12.300  0.9541 -0.1533 -0.2172
16792TIP3    H271792   4.785   5.201  12.397 -1.3710  1.1447 -0.7988
16793TIP3   OH271793   5.197   2.113   5.418 -0.0378 -0.2076  0.0359
16793TIP3    H171794   5.149   2.033   5.440  2.6489 -1.3784  2.2613
16793TIP3    H271795   5.222   2.149   5.503  2.0980  0.8594 -0.9840
16794TIP3   OH271796   1.106   4.586  16.251  0.1121 -0.0655  0.0226
16794TIP3    H171797   1.141   4.673  16.231  1.8379 -0.5821  0.6177
16794TIP3    H271798   1.085   4.549  16.165  0.6094  0.4492 -0.3321
16795TIP3   OH271799   5.220   5.077   5.564  0.1416  0.5512 -0.0461
16795TIP3    H171800   5.281   5.088   5.492 -1.6309  2.0137 -1.4011
16795TIP3    H271801   5.243   5.146   5.626  0.3726  0.5639 -0.1439
16796TIP3   OH271802   4.737   1.710   3.751  0.1418  0.0930 -0.1668
16796TIP3    H171803   4.652   1.752   3.764 -0.1795 -0.4973 -0.3270
16796TIP3    H271804   4.780   1.763   3.683 -0.5177 -0.2168 -0.8295
16797TIP3   OH271805   1.854   0.246   1.935 -0.1138 -0.3012  0.5354
16797TIP3    H171806   1.814   0.332   1.949  1.8059  0.7742 -0.1941
16797TIP3    H271807   1.795   0.185   1.980 -2.5661  1.1134 -0.5205
16798TIP3   OH271808   6.498   5.808   4.268  0.6473 -0.2475 -0.4266
16798TIP3    H171809   6.448   5.745   4.320  0.4463  0.3448  0.1122
16798TIP3    H271810   6.504   5.768   4.181  1.2916 -1.4151  0.1384
16799TIP3   OH271811   3.994   0.905  15.731  0.1078  0.1589  0.1485
16799TIP3    H171812   4.026   0.990  15.761  0.3431  0.1704 -0.1315
16799TIP3    H271813   4.036   0.892  15.646 -0.9975  0.3902 -0.4547
16800TIP3   OH271814   3.037   1.385  14.775 -0.1302  0.0089 -0.1717
16800TIP3    H171815   3.096   1.384  14.699  0.3903 -0.9985  0.2284
16800TIP3    H271816   2.986   1.465  14.764  0.1412  0.0358 -1.4287
16801TIP3   OH271817   3.963   1.788  13.385  0.3279 -0.0216  0.2520
16801TIP3    H171818   3.941   1.870  13.429  1.0377  0.4223 -0.1975
16801TIP3    H271819   3.919   1.720  13.437 -0.5796  0.6699  0.4071
16802TIP3   OH271820   3.159   0.478   5.366 -0.3281 -0.5318  0.4850
16802TIP3    H171821   3.214   0.400   5.361  0.8544  0.2760  0.4645
16802TIP3    H271822   3.216   0.550   5.337 -1.4449  0.3138  0.2984
16803TIP3   OH271823   1.600   4.924  12.832 -0.5235  0.4035  0.3234
16803TIP3    H171824   1.612   4.955  12.921 -1.9367 -1.9889  1.4475
16803TIP3    H271825   1.531   4.979  12.796  0.0426  1.3713  0.6670
16804TIP3   OH271826   3.137   3.074   3.587 -0.0722 -0.1464  0.4716
16804TIP3    H171827   3.224   3.041   3.607  0.0964 -0.6280 -0.9617
16804TIP3    H271828   3.077   3.014   3.632  0.2970 -0.7826  0.1127
16805TIP3   OH271829   2.336   3.263  15.432  0.0855 -0.2190 -0.0970
16805TIP3    H171830   2.375   3.348  15.410 -0.3706  0.0702  0.2083
16805TIP3    H271831   2.281   3.281  15.508 -0.3110 -0.7101 -0.2654
16806TIP3   OH271832   0.552   3.174  12.164  0.0653 -0.2381  0.1942
16806TIP3    H171833   0.626   3.114  12.151 -0.1832 -0.6077  0.4569
16806TIP3    H271834   0.587   3.260  12.142 -0.2605 -0.7541 -2.7781
16807TIP3   OH271835   1.039   3.079   3.313 -0.5543 -0.3451 -0.0476
16807TIP3    H171836   1.042   3.160   3.364 -0.4639  0.4786 -1.3092
16807TIP3    H271837   1.108   3.024   3.351  0.1727  0.6311  0.1052
16808TIP3   OH271838   3.918   1.176  13.195 -0.0347 -0.1973 -0.1957
16808TIP3    H171839   3.998   1.123  13.195 -1.3590 -2.3311 -0.0817
16808TIP3    H271840   3.866   1.141  13.123 -0.9270  1.0561 -0.1874
16809TIP3   OH271841   4.470   4.978   2.530  0.3619  0.1402  0.0628
16809TIP3    H171842   4.543   5.031   2.497  0.0691  0.2651 -0.3867
16809TIP3    H271843   4.396   5.038   2.531 -0.1402 -0.4264 -1.0911
16810TIP3   OH271844   2.323   4.341   1.574 -0.4246  0.0277  0.3098
16810TIP3    H171845   2.332   4.433   1.549 -1.3816 -0.2433 -1.2079
16810TIP3    H271846   2.388   4.296   1.520 -1.8162 -0.4525 -1.0712
16811TIP3   OH271847   5.723   3.499  14.663 -0.3533  0.5064 -0.3370
16811TIP3    H171848   5.793   3.491  14.598 -1.5651  0.0360 -1.6192
16811TIP3    H271849   5.669   3.571  14.632  0.2512  1.7504  1.3588
16812TIP3   OH271850   2.992   5.975   2.805 -0.5494  0.6928 -0.1568
16812TIP3    H171851   2.959   5.924   2.731 -0.9336  0.7838 -0.0480
16812TIP3    H271852   3.053   5.916   2.849  1.1307  1.2646 -1.6105
16813TIP3   OH271853   3.062   5.776   3.875 -0.4901 -0.0646 -0.4569
16813TIP3    H171854   3.108   5.776   3.791  0.2289  0.1176 -0.0720
16813TIP3    H271855   2.972   5.797   3.853 -0.2013  0.5269 -1.1259
16814TIP3   OH271856   4.190   1.746  14.636 -0.9085  0.0740  0.6043
16814TIP3    H171857   4.225   1.808  14.573 -1.8798 -0.0618 -0.0874
16814TIP3    H271858   4.236   1.767  14.718  1.3889 -0.6345 -0.4007
16815TIP3   OH271859   4.443   1.626   4.884 -0.2017  0.6038 -0.4560
16815TIP3    H171860   4.423   1.693   4.819  0.2947  0.4162 -0.8110
16815TIP3    H271861   4.445   1.545   4.833 -0.7797  0.3196 -0.0329
16816TIP3   OH271862   2.149   1.522  11.264 -0.4913  0.4565 -0.3451
16816TIP3    H171863   2.056   1.520  11.241 -0.2341 -0.5772 -1.4105
16816TIP3    H271864   2.194   1.497  11.183  0.8136  2.3835 -0.2812
16817TIP3   OH271865   2.188   1.043   1.909 -0.6827 -0.0039  0.1523
16817TIP3    H171866   2.243   0.995   1.848 -0.2800 -0.7715  1.0969
16817TIP3    H271867   2.151   1.115   1.857 -0.7525 -0.9201 -1.1080
16818TIP3   OH271868   4.578   1.092  12.610  0.6180 -0.7567  0.2439
16818TIP3    H171869   4.655   1.090  12.554  0.8782  0.0177  0.5685
16818TIP3    H271870   4.550   1.000  12.615  0.4275 -0.8120 -1.3534
16819TIP3   OH271871   1.351   2.019   4.461  0.3825 -0.1317  0.0128
16819TIP3    H171872   1.350   2.013   4.557  1.6541  0.1403  0.0666
16819TIP3    H271873   1.264   1.991   4.434 -0.2696  0.5578  1.2967
16820TIP3   OH271874   4.923   6.738   0.373  0.9275 -0.3779  0.2945
16820TIP3    H171875   4.921   6.825   0.335  1.0296 -0.2773  0.5147
16820TIP3    H271876   4.896   6.679   0.303  1.9709 -0.2925 -0.1978
16821TIP3   OH271877   0.307   6.120   4.282 -0.0072  0.4956 -0.1828
16821TIP3    H171878   0.252   6.078   4.349  1.6012 -0.6638  0.4937
16821TIP3    H271879   0.247   6.143   4.212 -1.5512  0.5527  1.1189
16822TIP3   OH271880   2.322   3.406   2.652  0.2235 -0.2272 -0.2276
16822TIP3    H171881   2.363   3.400   2.738  0.1388 -0.1912 -0.1851
16822TIP3    H271882   2.337   3.320   2.613  0.3799 -0.1995 -0.2300
16823TIP3   OH271883   3.562   3.575   3.273 -0.1890  0.3557 -0.0448
16823TIP3    H171884   3.592   3.614   3.355  0.8332  0.0972 -0.2851
16823TIP3    H271885   3.635   3.520   3.244 -1.2687 -1.1188 -0.1191
16824TIP3   OH271886   3.862   0.095   5.273 -0.1864  0.0859 -0.6365
16824TIP3    H171887   3.880   0.099   5.367  0.7809 -0.8873 -0.7525
16824TIP3    H271888   3.767   0.103   5.266 -0.4213 -1.2547  0.5333
16825TIP3   OH271889   3.901   2.272   3.648  0.5478 -0.0038 -0.1166
16825TIP3    H171890   3.812   2.244   3.669  1.3498 -1.7981  1.2262
16825TIP3    H271891   3.910   2.358   3.689 -0.7554  0.5163 -0.8684
16826TIP3   OH271892   0.083   4.844  13.894 -0.2872  0.2546  0.4912
16826TIP3    H171893   0.077   4.818  13.802  0.7432  3.0730 -0.4868
16826TIP3    H271894   0.177   4.847  13.911 -0.4688 -0.8059  1.8844
16827TIP3   OH271895   5.052   3.879  14.747 -0.1115 -0.7486 -0.0551
16827TIP3    H171896   5.042   3.933  14.825 -1.3852  0.0957 -0.7486
16827TIP3    H271897   4.965   3.842  14.733 -0.4004  0.5124 -2.0113
16828TIP3   OH271898   0.617   4.282   0.405 -0.0423 -0.5863  0.1258
16828TIP3    H171899   0.542   4.295   0.347  1.0936  0.3823 -1.1863
16828TIP3    H271900   0.610   4.352   0.469  0.1741 -0.0108 -0.4748
16829TIP3   OH271901   4.775   3.341  13.091  0.1145 -0.2449  0.1889
16829TIP3    H171902   4.708   3.294  13.042  0.0857 -0.4815  0.4528
16829TIP3    H271903   4.857   3.295  13.071 -0.0206 -0.8849  1.0359
16830TIP3   OH271904   2.634   2.226   3.980  0.2454 -0.1397  0.2915
16830TIP3    H171905   2.688   2.147   3.984  1.6421  0.7850  0.4367
16830TIP3    H271906   2.636   2.262   4.068 -0.8429 -0.2292  0.3605
16831TIP3   OH271907   2.783   6.307   2.783 -0.5875  0.4280 -0.2821
16831TIP3    H171908   2.763   6.378   2.844 -0.7894  0.8592 -0.8459
16831TIP3    H271909   2.709   6.246   2.792 -0.6745  0.5488 -0.1772
16832TIP3   OH271910   3.006   4.899   4.241 -0.3391  0.7914 -0.0888
16832TIP3    H171911   3.074   4.847   4.284  0.1092  0.7680 -0.8131
16832TIP3    H271912   2.971   4.841   4.173 -1.7801  0.4404  0.8988
16833TIP3   OH271913   4.663   6.104   4.765 -0.5846 -0.2598  0.7270
16833TIP3    H171914   4.736   6.119   4.825  1.0264 -0.8928 -0.9682
16833TIP3    H271915   4.621   6.024   4.797 -0.0643 -0.3089  1.3019
16834TIP3   OH271916   4.605   3.243   5.668  0.2753 -0.2975 -0.1177
16834TIP3    H171917   4.579   3.321   5.716  1.2822 -0.3540  0.5581
16834TIP3    H271918   4.628   3.275   5.581 -0.8535 -0.0884 -0.3555
16835TIP3   OH271919   0.418   0.671   1.739 -0.1336  0.0439 -0.9073
16835TIP3    H171920   0.427   0.679   1.644  1.4126 -1.2395 -0.9024
16835TIP3    H271921   0.450   0.583   1.759 -0.7609  0.1619  0.7750
16836TIP3   OH271922   1.912   0.417   0.685  0.7905  0.3913  0.1342
16836TIP3    H171923   1.844   0.369   0.639  0.9062  2.1049 -1.9443
16836TIP3    H271924   1.870   0.447   0.766  0.0542 -1.1553  0.3632
16837TIP3   OH271925   1.738   5.854   5.546 -0.4681  0.4562 -0.2682
16837TIP3    H171926   1.828   5.883   5.533 -0.7849  1.2834 -0.6653
16837TIP3    H271927   1.736   5.819   5.635  0.5672 -0.8282 -0.7241
16838TIP3   OH271928   1.720   2.490  16.421 -0.1591 -0.2462  0.6628
16838TIP3    H171929   1.773   2.493  16.341 -0.4123 -1.2777  0.4401
16838TIP3    H271930   1.780   2.515  16.491  0.4353 -0.7096  0.3278
16839TIP3   OH271931   2.791   5.001  17.124 -0.2464  0.7441  0.4000
16839TIP3    H171932   2.814   5.093  17.115 -0.3172  0.9733  2.1766
16839TIP3    H271933   2.696   4.999  17.111 -0.2230  0.8828  0.1920
16840TIP3   OH271934   4.307   3.531  13.051  0.2420  0.1814  0.2409
16840TIP3    H171935   4.379   3.475  13.079  2.0890  1.8848 -0.8357
16840TIP3    H271936   4.299   3.597  13.119 -0.9444 -0.4831  0.7839
16841TIP3   OH271937   5.548   2.348   5.513  0.6588  0.4170  0.5194
16841TIP3    H171938   5.519   2.379   5.427 -0.2713  3.6716  1.8509
16841TIP3    H271939   5.476   2.370   5.572  2.0132 -0.0272  2.4467
16842TIP3   OH271940   5.829   2.135  12.995 -0.4574 -0.2907  0.5033
16842TIP3    H171941   5.733   2.127  12.998 -0.3773 -1.4838  0.3225
16842TIP3    H271942   5.845   2.229  12.995 -1.9147  0.4008 -5.5848
16843TIP3   OH271943   6.054   3.944  15.965 -0.2534 -0.0356  0.0484
16843TIP3    H171944   6.015   3.961  15.879 -0.7746 -2.2738 -0.2322
16843TIP3    H271945   5.994   3.985  16.027 -0.9557 -0.0972 -0.5748
16844TIP3   OH271946   0.515   1.086   4.294 -0.1155  0.0213  0.2452
16844TIP3    H171947   0.446   1.069   4.230  0.2958  1.2263 -0.5529
16844TIP3    H271948   0.469   1.128   4.368 -0.7952 -2.4786  1.3507
16845TIP3   OH271949   4.912   5.920   5.323  0.1043  0.6028 -0.1785
16845TIP3    H171950   4.987   5.976   5.345  1.9453 -0.8053 -2.4493
16845TIP3    H271951   4.837   5.965   5.363  1.8849  2.9540  0.8170
16846TIP3   OH271952   3.619   3.332  14.808 -0.1287  0.4511  0.0398
16846TIP3    H171953   3.650   3.270  14.742  1.3097  1.1484  0.0156
16846TIP3    H271954   3.548   3.379  14.765  0.7454  0.8487 -1.0089
16847TIP3   OH271955   4.412   3.665  15.338 -0.1571 -0.5391  0.0863
16847TIP3    H171956   4.324   3.670  15.376 -0.9291  0.5541 -1.7273
16847TIP3    H271957   4.422   3.746  15.288  2.3079 -0.1675  1.0493
16848TIP3   OH271958   2.062   4.094   0.140  0.4551  0.9375  0.3880
16848TIP3    H171959   2.073   4.081   0.234  0.1785  0.0412  0.3130
16848TIP3    H271960   2.069   4.006   0.103 -2.0964  0.8662 -0.1394
16849TIP3   OH271961   4.208   6.741  14.328 -0.5428  0.1432 -0.0726
16849TIP3    H171962   4.283   6.691  14.294 -0.0056 -0.5391  1.9682
16849TIP3    H271963   4.223   6.831  14.297 -0.0822 -0.4231 -1.5403
16850TIP3   OH271964   5.741   6.690   4.855  0.1726 -0.8030 -0.2301
16850TIP3    H171965   5.656   6.667   4.892  0.3372 -0.0551  0.6416
16850TIP3    H271966   5.721   6.735   4.773 -0.2927 -0.0338  0.3048
16851TIP3   OH271967   4.625   6.628   1.142 -0.0816 -0.0329  0.0501
16851TIP3    H171968   4.603   6.707   1.092  0.6089  1.0437  1.3688
16851TIP3    H271969   4.552   6.618   1.203  0.8182  0.8757  1.3312
16852TIP3   OH271970   0.658   0.926   0.479 -0.2165 -0.6294 -0.4750
16852TIP3    H171971   0.643   1.020   0.491 -1.6191 -0.8012 -0.7338
16852TIP3    H271972   0.576   0.885   0.504  0.3305 -1.7922 -0.5034
16853TIP3   OH271973   4.430   2.054  16.104  0.6102 -0.1222  1.0350
16853TIP3    H171974   4.489   2.098  16.042  1.7087  0.4554  2.4306
16853TIP3    H271975   4.484   2.039  16.182 -0.3680 -1.9804  1.4189
16854TIP3   OH271976   0.327   0.881   4.956  0.4300 -0.2107 -0.1912
16854TIP3    H171977   0.236   0.897   4.930  0.2578 -0.1130  0.4462
16854TIP3    H271978   0.356   0.810   4.900  0.3256  0.5158 -1.1930
16855TIP3   OH271979   4.421   4.222   3.739  0.3831 -0.4228 -0.5042
16855TIP3    H171980   4.337   4.228   3.784  0.4934 -0.6259 -0.2657
16855TIP3    H271981   4.399   4.211   3.647  0.1579  1.0747 -0.6497
16856TIP3   OH271982   6.605   2.282  11.937  0.8001 -0.0847 -0.1057
16856TIP3    H171983   6.658   2.205  11.961  1.9753 -0.2831 -2.9579
16856TIP3    H271984   6.666   2.338  11.889 -1.0679  0.6522 -1.7211
16857TIP3   OH271985   0.196   1.303   3.861  0.2474  0.7357  0.0000
16857TIP3    H171986   0.103   1.286   3.847  0.0117  1.9221  0.0407
16857TIP3    H271987   0.201   1.344   3.947  0.3790  3.7824 -1.3466
16858TIP3   OH271988   0.674   4.759  15.433  0.2582  0.0805  0.4690
16858TIP3    H171989   0.604   4.761  15.368  1.5297 -1.1236 -1.0419
16858TIP3    H271990   0.753   4.740  15.381  1.5300  0.3701  2.2271
16859TIP3   OH271991   2.043   6.100  12.882  0.5534 -0.0137 -0.1697
16859TIP3    H171992   2.088   6.171  12.928  0.2485  0.3970 -0.4931
16859TIP3    H271993   2.112   6.057  12.832  1.0899 -1.1301  1.4546
16860TIP3   OH271994   0.452   3.850   3.812  0.0000 -0.2956  0.0401
16860TIP3    H171995   0.425   3.762   3.841 -0.5383 -0.2474 -0.2996
16860TIP3    H271996   0.514   3.879   3.879 -1.4586 -0.0486  1.3447
16861TIP3   OH271997   0.257   1.959   3.860  0.4922 -0.0166  0.2692
16861TIP3    H171998   0.283   2.004   3.780 -0.6811 -0.6287 -0.4780
16861TIP3    H271999   0.185   2.012   3.895 -1.2322 -1.4836 -0.8740
16862TIP3   OH272000   1.054   1.934  11.421 -0.6190  1.0051  0.1491
16862TIP3    H172001   1.070   2.006  11.359 -1.3388  1.2435  0.2273
16862TIP3    H272002   0.965   1.904  11.399 -0.1617 -0.1487 -0.1618
16863TIP3   OH272003   4.579   2.876   4.962  0.1108  0.9243 -0.2434
16863TIP3    H172004   4.647   2.813   4.940 -0.1464  0.6986 -0.3905
16863TIP3    H272005   4.605   2.911   5.047 -0.2080 -0.0355  0.2615
16864TIP3   OH272006   1.443   5.855   3.081 -0.2211 -0.0955 -0.4388
16864TIP3    H172007   1.436   5.910   3.003 -3.0123 -0.8918 -0.8285
16864TIP3    H272008   1.515   5.794   3.061 -1.3582 -0.7754 -2.7465
16865TIP3   OH272009   4.766   5.892   3.936  0.3504  0.5713 -0.4626
16865TIP3    H172010   4.688   5.855   3.978  0.3465 -0.7953 -1.6071
16865TIP3    H272011   4.736   5.921   3.850  0.9040  0.9953 -0.5222
16866TIP3   OH272012   3.119   4.171   2.400 -0.9915 -0.0347 -0.4542
16866TIP3    H172013   3.039   4.215   2.432 -1.3887 -1.0053 -0.0803
16866TIP3    H272014   3.098   4.147   2.310 -1.2966 -0.6708 -0.2219
16867TIP3   OH272015   0.228   5.392  12.612  0.3128  0.1740 -0.5427
16867TIP3    H172016   0.133   5.382  12.603  0.3084  0.8080 -1.2542
16867TIP3    H272017   0.238   5.467  12.671  0.3626  0.8550 -1.3956
16868TIP3   OH272018   5.084   1.366  12.022  0.5377 -0.2543  0.1521
16868TIP3    H172019   5.007   1.403  12.065  0.4817  0.6005 -0.6546
16868TIP3    H272020   5.050   1.322  11.945  0.7061 -1.2350  0.6260
16869TIP3   OH272021   3.740   1.003   4.094  0.3084  0.3776 -0.4931
16869TIP3    H172022   3.823   0.975   4.132 -0.3631  0.3201  0.9948
16869TIP3    H272023   3.686   0.924   4.094 -0.6913  1.0077  1.2273
16870TIP3   OH272024   3.117   2.546  13.780 -0.1455 -0.1904  0.0910
16870TIP3    H172025   3.078   2.554  13.693 -0.0477  1.1449  0.1470
16870TIP3    H272026   3.196   2.493  13.766 -1.1815 -1.6880 -0.2646
16871TIP3   OH272027   4.806   0.783  14.454 -0.2360 -0.0094  0.2426
16871TIP3    H172028   4.712   0.770  14.465 -0.1110  0.0714  1.5998
16871TIP3    H272029   4.815   0.826  14.369 -1.4567  0.3269  0.2676
16872TIP3   OH272030   0.772   3.699  16.004  0.0496  0.2915 -0.5281
16872TIP3    H172031   0.702   3.665  16.060  1.4248 -1.4345  0.2461
16872TIP3    H272032   0.767   3.794  16.014  0.0217  0.0795  2.2984
16873TIP3   OH272033   4.209   1.301  11.935  0.0718  0.5495 -0.0955
16873TIP3    H172034   4.304   1.294  11.926  0.1677  0.0328  1.0702
16873TIP3    H272035   4.195   1.319  12.028 -1.0507 -1.4008  0.1602
16874TIP3   OH272036   6.525   4.157   1.593  0.2506  0.2593 -0.4421
16874TIP3    H172037   6.580   4.186   1.666 -0.5895  0.1262  0.2561
16874TIP3    H272038   6.456   4.224   1.587 -0.2743 -0.2779 -0.4436
16875TIP3   OH272039   6.237   5.944  16.859  0.1369 -0.3800  1.3239
16875TIP3    H172040   6.325   5.913  16.836 -0.1886  0.9674 -2.4036
16875TIP3    H272041   6.179   5.875  16.830 -0.1504 -0.1933  1.4515
16876TIP3   OH272042   2.428   3.900  15.023  1.0395  0.4356 -0.4275
16876TIP3    H172043   2.459   3.816  14.988  2.1693  0.6051  0.0949
16876TIP3    H272044   2.508   3.944  15.053  0.4746  1.7377 -0.7540
16877TIP3   OH272045   3.044   4.817   0.826  0.6540  0.3194  0.5065
16877TIP3    H172046   3.010   4.802   0.915 -3.0383 -1.5840 -1.0144
16877TIP3    H272047   2.984   4.880   0.788  1.9212  0.7815 -0.8141
16878TIP3   OH272048   5.437   5.326   4.204 -0.2054 -0.1916 -0.5782
16878TIP3    H172049   5.375   5.263   4.167 -0.2769  0.0254 -0.8336
16878TIP3    H272050   5.382   5.390   4.248 -0.1187 -0.4504 -0.0923
16879TIP3   OH272051   2.133   3.258  14.108  0.3194  0.1261  0.4849
16879TIP3    H172052   2.186   3.190  14.067 -0.1759  0.1156 -0.1515
16879TIP3    H272053   2.160   3.339  14.063 -0.2924  0.1016  0.0694
16880TIP3   OH272054   4.777   3.725  12.054  0.0624 -0.2306  0.4988
16880TIP3    H172055   4.730   3.678  12.123  0.4062 -1.1407  0.1336
16880TIP3    H272056   4.845   3.774  12.101  0.8132 -1.4833  0.7524
16881TIP3   OH272057   5.306   5.541  10.944 -0.1450 -0.0905 -0.0175
16881TIP3    H172058   5.314   5.448  10.963 -0.2694 -0.2375 -0.6727
16881TIP3    H272059   5.349   5.552  10.859 -0.2769  0.4177 -0.0222
16882TIP3   OH272060   3.797   1.626  10.670  0.0732 -0.5023  0.4764
16882TIP3    H172061   3.707   1.642  10.644 -1.2618 -4.4037  1.9661
16882TIP3    H272062   3.817   1.697  10.731 -1.4077  1.2151 -0.9083
16883TIP3   OH272063   0.878   1.213   5.650 -0.1873  0.3126 -0.0781
16883TIP3    H172064   0.941   1.183   5.714  0.2050 -0.9339 -1.0046
16883TIP3    H272065   0.810   1.145   5.649  0.7068 -0.6484 -2.2061
16884TIP3   OH272066   6.538   2.031   3.796  0.1448  0.5143  0.0210
16884TIP3    H172067   6.455   2.040   3.749  0.1601 -0.7216 -0.2715
16884TIP3    H272068   6.539   1.941   3.828  1.0690  0.7159  0.6123
16885TIP3   OH272069   4.925   4.702   6.014  0.4120  0.2337  0.0162
16885TIP3    H172070   4.838   4.739   6.001  0.6353  1.1664  1.0486
16885TIP3    H272071   4.945   4.718   6.106  0.8142 -1.8886  0.3516
16886TIP3   OH272072   2.509   3.817  13.975 -0.3967 -0.6341 -0.0276
16886TIP3    H172073   2.440   3.872  14.012  0.6672 -0.2070  1.3998
16886TIP3    H272074   2.576   3.879  13.947 -0.9248 -0.9788 -2.2477
16887TIP3   OH272075   1.103   4.955  15.753 -0.4977 -0.6708 -0.1190
16887TIP3    H172076   1.180   4.920  15.798  1.1355  1.6974 -0.8861
16887TIP3    H272077   1.132   4.968  15.662 -1.4305  1.2634 -0.1874
16888TIP3   OH272078   5.797   2.280  13.730 -0.1088 -0.2433 -0.3479
16888TIP3    H172079   5.846   2.294  13.811  0.8680  0.7070 -1.0746
16888TIP3    H272080   5.816   2.189  13.706  1.4078  0.1165 -0.6501
16889TIP3   OH272081   4.250   0.901   0.970 -0.3399  0.1475 -0.2715
16889TIP3    H172082   4.156   0.918   0.973 -0.1073  1.5055 -0.0337
16889TIP3    H272083   4.289   0.986   0.948  0.9533  0.0639  1.4943
16890TIP3   OH272084   6.542   4.809   1.627 -0.0156  0.6597 -1.2512
16890TIP3    H172085   6.542   4.791   1.721  0.2828 -0.6350 -1.4794
16890TIP3    H272086   6.449   4.804   1.603 -0.3363  2.9057 -0.7248
16891TIP3   OH272087   3.515   0.922  14.079  0.1100 -0.4613  0.0110
16891TIP3    H172088   3.564   0.933  13.997 -0.1603 -0.3089 -0.1317
16891TIP3    H272089   3.471   0.837  14.070 -0.1027 -0.3415 -0.1018
16892TIP3   OH272090   4.812   1.238  16.837 -0.1324  0.5857  0.2091
16892TIP3    H172091   4.738   1.238  16.775 -1.9325 -0.4099  2.2569
16892TIP3    H272092   4.779   1.285  16.914  0.1668 -2.6122  2.4521
16893TIP3   OH272093   3.689   4.526  11.919 -0.3979 -0.3407 -0.0602
16893TIP3    H172094   3.602   4.505  11.952  0.1633 -1.7604  0.6116
16893TIP3    H272095   3.742   4.450  11.941  0.3657 -0.7971 -3.0358
16894TIP3   OH272096   3.681   1.910   5.266 -0.0977 -0.0736 -0.6039
16894TIP3    H172097   3.600   1.868   5.296 -1.2486  2.2100 -0.3228
16894TIP3    H272098   3.729   1.928   5.347 -0.4578  0.7430 -0.5604
16895TIP3   OH272099   0.535   5.181   2.864  0.0586  0.2620 -0.2364
16895TIP3    H172100   0.459   5.201   2.810  0.8546  1.0103 -1.1106
16895TIP3    H272101   0.506   5.202   2.953 -0.7200  0.6438 -0.5638
16896TIP3   OH272102   0.205   6.477  11.233  0.2699  0.2263  0.4274
16896TIP3    H172103   0.199   6.506  11.324  0.6869 -0.5106  0.6962
16896TIP3    H272104   0.297   6.492  11.210  0.5545 -1.0727  0.6485
16897TIP3   OH272105   5.391   2.541   0.466 -0.0371  0.2247 -0.1807
16897TIP3    H172106   5.386   2.445   0.457 -1.2303  0.3052 -0.6250
16897TIP3    H272107   5.324   2.562   0.532  0.0827  0.7759 -0.2310
16898TIP3   OH272108   4.188   4.492  12.582 -0.5771  0.0362  0.1718
16898TIP3    H172109   4.122   4.547  12.539 -1.3398 -1.1145 -0.1989
16898TIP3    H272110   4.140   4.449  12.653 -0.3577 -1.1373 -0.3709
16899TIP3   OH272111   0.166   0.113   5.696  0.7233 -0.7303 -0.2820
16899TIP3    H172112   0.178   0.130   5.790  0.5740 -0.9378 -0.2250
16899TIP3    H272113   0.116   0.189   5.665  0.4726 -0.8249 -0.1215
16900TIP3   OH272114   2.502   1.624  11.193  0.2169  0.0600 -0.4255
16900TIP3    H172115   2.594   1.637  11.216 -0.0240 -0.2102  0.7706
16900TIP3    H272116   2.503   1.608  11.098  1.1875  1.9185 -0.7633
16901TIP3   OH272117   5.276   0.927  16.991  0.2966  0.5002 -0.4602
16901TIP3    H172118   5.362   0.962  17.013  0.0792  0.4791  0.4640
16901TIP3    H272119   5.220   1.005  16.982 -0.2877  0.4430  2.0252
16902TIP3   OH272120   2.943   1.194   2.065  0.2115 -0.7036  0.3069
16902TIP3    H172121   2.889   1.121   2.095  0.1497 -0.4633  0.7980
16902TIP3    H272122   3.023   1.153   2.033  0.2092 -0.9885  0.6546
16903TIP3   OH272123   4.052   1.823   3.435 -0.5913 -0.5369 -0.0224
16903TIP3    H172124   4.077   1.914   3.447 -1.2846 -0.2352 -0.7216
16903TIP3    H272125   4.134   1.774   3.441 -0.1336  0.1952 -0.1883
16904TIP3   OH272126   6.364   0.283  15.372 -0.3489 -0.8378 -0.4222
16904TIP3    H172127   6.350   0.266  15.465  0.3446 -0.4463 -0.2403
16904TIP3    H272128   6.383   0.376  15.367 -0.5826 -0.8171 -0.9846
16905TIP3   OH272129   5.782   3.320  13.486  0.0329 -0.1427  0.4263
16905TIP3    H172130   5.759   3.228  13.473 -1.0674  0.4023 -2.1512
16905TIP3    H272131   5.701   3.362  13.515  0.1262  0.2603  0.1212
16906TIP3   OH272132   2.992   5.268  13.623 -0.2606  0.1355  0.7295
16906TIP3    H172133   2.912   5.279  13.572 -0.2712  1.3360  0.9920
16906TIP3    H272134   3.029   5.356  13.631  1.9000 -0.5556 -0.6758
16907TIP3   OH272135   6.408   5.812  14.413  0.5711 -0.0746  0.9836
16907TIP3    H172136   6.454   5.762  14.481  1.6083 -1.2171 -0.4918
16907TIP3    H272137   6.476   5.838  14.351 -0.6843 -2.3503 -1.6106
16908TIP3   OH272138   2.377   5.386  15.675  0.4106  0.2659  0.3617
16908TIP3    H172139   2.419   5.471  15.689 -3.2968  2.3821  0.2056
16908TIP3    H272140   2.359   5.354  15.763  1.0042  0.0876  0.4202
16909TIP3   OH272141   5.453   1.678  12.217 -0.0229 -0.0972  0.0613
16909TIP3    H172142   5.437   1.584  12.214  0.4547 -0.2044  0.6438
16909TIP3    H272143   5.474   1.702  12.127 -0.4264 -0.4980 -0.1398
16910TIP3   OH272144   3.863   6.007   1.779  0.1180 -0.0715  0.5195
16910TIP3    H172145   3.832   5.916   1.785  0.8670 -0.6154 -2.1414
16910TIP3    H272146   3.804   6.047   1.715  1.6168  0.3975 -0.6235
16911TIP3   OH272147   5.999   0.839  16.250  0.0275  0.2004 -0.1198
16911TIP3    H172148   5.958   0.864  16.332 -1.9925 -0.6169 -0.8148
16911TIP3    H272149   6.030   0.921  16.212 -1.1745  0.8921  0.3535
16912TIP3   OH272150   1.315   6.250  13.877  0.3329  1.0155  0.4354
16912TIP3    H172151   1.288   6.209  13.960  1.0905 -1.1303 -0.3227
16912TIP3    H272152   1.233   6.275  13.835 -0.1109  1.0769  1.3105
16913TIP3   OH272153   2.499   4.581  16.775 -0.1996  0.4941  0.1851
16913TIP3    H172154   2.449   4.506  16.808 -0.5107  0.6103 -0.0190
16913TIP3    H272155   2.464   4.656  16.823 -1.8271  0.9203 -1.5599
16914TIP3   OH272156   2.592   5.968   1.099  0.4964 -0.2095 -0.1873
16914TIP3    H172157   2.568   5.999   1.011 -1.6273  0.8433  0.6903
16914TIP3    H272158   2.611   5.875   1.087 -1.5258 -0.5147 -1.5188
16915TIP3   OH272159   3.080   3.715  14.366  0.1440  0.4809  0.8513
16915TIP3    H172160   3.050   3.689  14.278  0.9514 -1.5695  1.1280
16915TIP3    H272161   3.000   3.742  14.411 -0.3403  1.1950 -0.3559
16916TIP3   OH272162   5.383   0.664  13.352 -0.0207  0.7547  0.2754
16916TIP3    H172163   5.419   0.580  13.323 -1.8075  0.5185 -1.5280
16916TIP3    H272164   5.455   0.708  13.395  1.9790 -0.2987 -1.7803
16917TIP3   OH272165   3.311   4.126   3.118  0.1789  0.8481  0.0208
16917TIP3    H172166   3.372   4.108   3.046  0.2245 -1.5281  0.5704
16917TIP3    H272167   3.367   4.125   3.196 -0.2517  0.8586  0.3287
16918TIP3   OH272168   0.203   1.298   2.319 -0.2532 -0.5320  0.0322
16918TIP3    H172169   0.251   1.372   2.357 -1.2385  0.4464 -0.5748
16918TIP3    H272170   0.152   1.337   2.248 -0.8056 -1.8064 -0.2921
16919TIP3   OH272171   4.227   0.537   5.876  0.2009 -0.3090  0.2828
16919TIP3    H172172   4.262   0.590   5.947  1.9528  0.5182 -1.1420
16919TIP3    H272173   4.188   0.600   5.815 -0.5649 -0.9446  0.0903
16920TIP3   OH272174   0.188   0.491   2.592  0.2670  0.2138  0.4659
16920TIP3    H172175   0.253   0.559   2.611  0.7904 -0.3282  0.6682
16920TIP3    H272176   0.241   0.414   2.571 -0.2857  0.3054 -1.4658
16921TIP3   OH272177   3.314   2.425   2.341 -0.1857  0.2386  1.0585
16921TIP3    H172178   3.359   2.502   2.378  1.0663 -0.2011  0.5096
16921TIP3    H272179   3.307   2.364   2.415  0.6929  0.0715  1.0180
16922TIP3   OH272180   1.388   5.095   6.483  0.5177  0.2342 -0.4881
16922TIP3    H172181   1.419   5.013   6.523 -0.0834  0.5307  0.6267
16922TIP3    H272182   1.392   5.159   6.554 -1.9656  0.4476 -0.4541
16923TIP3   OH272183   6.617   2.057  15.858 -0.3277  0.0172 -0.0089
16923TIP3    H172184   6.647   1.994  15.923  1.3177 -1.9669 -2.5044
16923TIP3    H272185   6.563   2.007  15.798  0.2899  1.1225 -1.5780
16924TIP3   OH272186   3.832   0.534   2.982  0.4972  0.4407  0.3386
16924TIP3    H172187   3.842   0.579   2.898  1.1016  1.0099  0.7110
16924TIP3    H272188   3.737   0.532   2.997  0.2220 -1.3387 -1.2500
16925TIP3   OH272189   1.139   3.120   4.001 -0.1159 -0.0111 -0.3472
16925TIP3    H172190   1.044   3.131   3.992 -0.1177 -0.1540 -0.5109
16925TIP3    H272191   1.151   3.085   4.089 -0.1205  1.1582  0.1468
16926TIP3   OH272192   5.727   0.755   2.895 -0.5224  0.0943 -0.0364
16926TIP3    H172193   5.776   0.829   2.931  0.3179  0.9292 -2.6014
16926TIP3    H272194   5.742   0.683   2.956  1.6637  1.1058  0.7036
16927TIP3   OH272195   2.100   4.125  12.938 -0.0575  0.2753 -0.0913
16927TIP3    H172196   2.180   4.178  12.934  0.0398  0.1836  0.5102
16927TIP3    H272197   2.077   4.124  13.031  0.6732 -1.8405  0.1210
16928TIP3   OH272198   4.787   0.212   4.188 -0.2196 -0.4599 -0.3378
16928TIP3    H172199   4.783   0.117   4.179 -0.7845 -0.6149  1.2208
16928TIP3    H272200   4.880   0.232   4.198 -0.2921 -1.2979  3.0050
16929TIP3   OH272201   2.015   2.698   0.171  0.1765  0.0442  0.1857
16929TIP3    H172202   2.030   2.639   0.098 -0.9374 -0.5986  0.4539
16929TIP3    H272203   1.953   2.763   0.138 -1.7821 -1.2784  0.9977
16930TIP3   OH272204   4.129   5.880   0.675  0.2898 -0.2512  0.5704
16930TIP3    H172205   4.105   5.831   0.596 -0.2482  0.9358 -0.0190
16930TIP3    H272206   4.052   5.933   0.695 -0.4391 -2.0869  3.1801
16931TIP3   OH272207   2.060   1.292  17.201 -0.5603 -0.0211  0.0574
16931TIP3    H172208   2.134   1.351  17.213  0.8165 -1.4387 -1.1049
16931TIP3    H272209   2.079   1.245  17.120 -1.4830 -2.2173  1.0399
16932TIP3   OH272210   4.014   6.016   6.281 -0.2740 -0.1540  0.0129
16932TIP3    H172211   4.038   6.106   6.258  2.1224 -0.9985 -1.0800
16932TIP3    H272212   4.079   5.962   6.236 -1.8364 -2.4667  0.4035
16933TIP3   OH272213   4.920   2.074   0.035 -0.0338  0.0843  0.2352
16933TIP3    H172214   4.840   2.098   0.081  0.6836 -0.1065  1.6223
16933TIP3    H272215   4.975   2.153   0.040  1.1684 -0.8018  2.2553
16934TIP3   OH272216   6.099   2.173  14.269 -0.0759 -0.3655  0.0688
16934TIP3    H172217   6.129   2.138  14.353 -1.5833 -3.9716 -0.6690
16934TIP3    H272218   6.009   2.200  14.285 -0.5613 -1.5991 -0.4266
16935TIP3   OH272219   0.828   2.044  15.849 -0.4719  0.2440 -0.3587
16935TIP3    H172220   0.892   2.114  15.834 -0.9344  1.2495  1.8742
16935TIP3    H272221   0.745   2.082  15.823 -0.4569 -0.2739 -1.1854
16936TIP3   OH272222   1.752   5.513   4.400 -0.0180  0.4994 -0.1164
16936TIP3    H172223   1.831   5.563   4.379 -1.1497  3.1772  1.5449
16936TIP3    H272224   1.697   5.522   4.322  0.4960  0.3428 -0.5039
16937TIP3   OH272225   2.802   5.698  17.235  0.8725  0.0400  0.2525
16937TIP3    H172226   2.843   5.770  17.187  2.7433 -0.7764  0.5425
16937TIP3    H272227   2.717   5.686  17.193  0.3481  2.6225  0.4190
16938TIP3   OH272228   1.782   1.530  11.381  0.2500 -0.5294  0.4287
16938TIP3    H172229   1.834   1.609  11.392 -0.1761 -0.1357 -0.2917
16938TIP3    H272230   1.795   1.505  11.290 -2.6280  0.9330 -0.5225
16939TIP3   OH272231   6.587   4.878  17.149  0.2865 -0.0801 -0.3601
16939TIP3    H172232   6.619   4.888  17.060  1.7404  2.5444  0.3540
16939TIP3    H272233   6.504   4.926  17.150  1.9645  3.1366  0.3995
16940TIP3   OH272234   5.618   2.290   4.094  0.2580  0.5772 -0.6895
16940TIP3    H172235   5.536   2.291   4.043 -1.2693 -2.0938  1.4414
16940TIP3    H272236   5.677   2.234   4.044 -0.2238  0.2716 -0.9274
16941TIP3   OH272237   2.598   5.944  13.112  1.0690 -0.5483 -0.4331
16941TIP3    H172238   2.527   5.942  13.048  0.9312  1.5369 -0.3888
16941TIP3    H272239   2.618   5.851  13.128 -0.0564 -1.1360 -2.1697
16942TIP3   OH272240   5.605   6.141  13.923  0.1775  0.5521  0.1788
16942TIP3    H172241   5.657   6.090  13.985  0.8150  0.4476 -0.4263
16942TIP3    H272242   5.524   6.162  13.970  0.3064 -0.2148  0.7578
16943TIP3   OH272243   3.316   1.290  11.205 -0.7027  0.1813  0.1051
16943TIP3    H172244   3.353   1.283  11.117 -0.7576  1.5551 -0.0446
16943TIP3    H272245   3.227   1.322  11.192 -1.6745 -2.1402  0.5332
16944TIP3   OH272246   0.471   3.081   1.542 -0.1651 -0.4561  0.1540
16944TIP3    H172247   0.388   3.117   1.574 -0.2001  0.4865 -0.9251
16944TIP3    H272248   0.461   3.080   1.447  0.1562 -2.6207  0.0964
16945TIP3   OH272249   1.214   5.179   5.752 -0.1453  0.6073 -0.1669
16945TIP3    H172250   1.240   5.216   5.668  1.1015  1.3779  0.5163
16945TIP3    H272251   1.292   5.131   5.782 -0.5212  0.4659  0.6002
16946TIP3   OH272252   0.365   2.482   3.591  0.2520  0.7268 -0.1427
16946TIP3    H172253   0.401   2.414   3.533  0.1440  0.7295 -0.2128
16946TIP3    H272254   0.340   2.435   3.670 -1.4154  0.3846 -0.8286
16947TIP3   OH272255   6.422   0.766  16.656 -0.2353 -0.0536  0.1064
16947TIP3    H172256   6.457   0.768  16.745 -1.4222 -1.6593  0.6484
16947TIP3    H272257   6.344   0.822  16.660 -2.0827 -2.4978  0.9717
16948TIP3   OH272258   4.878   0.825   3.028  0.2070  0.2096  0.4540
16948TIP3    H172259   4.925   0.758   3.079 -1.6364 -0.3193  1.5464
16948TIP3    H272260   4.801   0.780   2.994 -0.2490  1.3935 -0.1398
16949TIP3   OH272261   2.586   5.103  13.683 -0.4036 -0.2496  0.1085
16949TIP3    H172262   2.523   5.174  13.696 -0.8933 -0.6560 -0.0165
16949TIP3    H272263   2.566   5.068  13.596 -0.8231 -1.1808  0.5613
16950TIP3   OH272264   0.462   2.586   0.930  0.1545  0.3828  0.0749
16950TIP3    H172265   0.419   2.500   0.935  0.1504  0.2170 -2.1001
16950TIP3    H272266   0.396   2.647   0.964 -0.2714 -0.3244  0.5495
16951TIP3   OH272267   5.974   3.349  14.802 -0.1034  0.3624  0.0396
16951TIP3    H172268   6.023   3.423  14.768 -1.4496  1.2839  0.0086
16951TIP3    H272269   5.901   3.338  14.740 -0.3477 -0.4901  0.4611
16952TIP3   OH272270   3.075   5.197   5.403 -0.4027 -0.1850  0.3588
16952TIP3    H172271   3.026   5.115   5.396  0.0713 -0.4229 -0.2438
16952TIP3    H272272   3.163   5.175   5.373 -0.6308  0.8734 -1.1680
16953TIP3   OH272273   0.403   0.707   5.987 -0.6225  0.5175  0.4360
16953TIP3    H172274   0.366   0.685   5.902  2.8389 -0.3747 -1.0225
16953TIP3    H272275   0.327   0.717   6.045 -3.0455 -0.3715 -2.3480
16954TIP3   OH272276   6.510   4.910   6.007 -0.1582 -0.0762  0.3619
16954TIP3    H172277   6.591   4.961   6.001  1.3558 -2.2914  0.6781
16954TIP3    H272278   6.489   4.909   6.100  0.4570 -0.9374  0.4998
16955TIP3   OH272279   1.253   4.905  11.026  0.0913  0.3812  0.5142
16955TIP3    H172280   1.240   4.826  10.974 -0.5426 -0.3606  1.7387
16955TIP3    H272281   1.347   4.908  11.043  0.2095  0.2628 -0.0953
16956TIP3   OH272282   0.572   4.612   6.190  0.3574 -0.7721 -0.6635
16956TIP3    H172283   0.485   4.586   6.159  1.1556 -4.5961 -0.2137
16956TIP3    H272284   0.616   4.647   6.112 -0.7957 -1.0728 -1.4758
16957TIP3   OH272285   6.403   0.877   5.128 -0.1725 -0.3571  0.4839
16957TIP3    H172286   6.371   0.808   5.069 -0.4507 -0.8893  1.2371
16957TIP3    H272287   6.330   0.938   5.135 -0.3167 -0.5489  0.6620
16958TIP3   OH272288   2.834   3.871   2.315  0.3408  0.2993  0.4061
16958TIP3    H172289   2.842   3.777   2.327 -1.1135  0.1554  0.5010
16958TIP3    H272290   2.874   3.910   2.393 -0.4881 -0.3103  1.1596
16959TIP3   OH272291   0.710   3.142   3.451 -0.0758  0.2351  0.2689
16959TIP3    H172292   0.776   3.127   3.519  0.3179  0.3872 -0.0766
16959TIP3    H272293   0.653   3.065   3.455  0.1496  0.0825  0.5385
16960TIP3   OH272294   0.776   0.516   3.984 -0.2686  0.2011 -0.1132
16960TIP3    H172295   0.799   0.424   3.967  3.2390  0.6788  1.1397
16960TIP3    H272296   0.792   0.561   3.901 -1.0781 -0.1398 -0.4661
16961TIP3   OH272297   4.807   2.989   0.020 -0.0881 -0.3174  0.4585
16961TIP3    H172298   4.718   3.014  -0.006 -1.8518 -4.2046  1.8664
16961TIP3    H272299   4.864   3.036  -0.040 -2.7190  4.9352  1.4397
16962TIP3   OH272300   5.522   3.280   3.817 -0.2492 -0.2175  0.0592
16962TIP3    H172301   5.429   3.275   3.839 -0.0949 -1.2542  0.5336
16962TIP3    H272302   5.546   3.370   3.840 -0.7348 -0.4534  1.6701
16963TIP3   OH272303   2.079   0.220  11.949  0.4889  0.2220  0.1804
16963TIP3    H172304   2.032   0.171  11.881  0.3720 -1.7044  1.5619
16963TIP3    H272305   2.023   0.295  11.968  0.4857  0.7645 -1.7367
16964TIP3   OH272306   3.087   5.265   4.976 -0.0447 -0.5001  0.4147
16964TIP3    H172307   3.016   5.247   5.037  0.9228 -0.2757  1.6399
16964TIP3    H272308   3.150   5.194   4.990  0.9798  0.4745  0.9488
16965TIP3   OH272309   2.870   1.011  12.136  0.4193 -0.4370 -0.1410
16965TIP3    H172310   2.804   0.945  12.154  1.5728 -1.3761  0.8432
16965TIP3    H272311   2.861   1.029  12.042 -1.4596 -0.2448  0.0533
16966TIP3   OH272312   1.388   3.520   0.583 -0.4111 -0.2225  0.4289
16966TIP3    H172313   1.323   3.472   0.532 -0.0278 -0.7203  0.3996
16966TIP3    H272314   1.465   3.523   0.527 -0.2273 -0.1172  0.6852
16967TIP3   OH272315   4.080   5.384  16.552  0.2639  0.4973 -0.0107
16967TIP3    H172316   4.001   5.436  16.538  0.9534  1.1994 -1.5243
16967TIP3    H272317   4.129   5.431  16.619 -0.1600  0.5694  0.2486
16968TIP3   OH272318   1.673   3.718   4.391 -0.0486  0.6096 -0.1352
16968TIP3    H172319   1.579   3.728   4.405  0.1268  0.7498  1.1134
16968TIP3    H272320   1.682   3.650   4.325 -0.9914 -1.1241  1.4439
16969TIP3   OH272321   2.935   4.052   4.487 -0.8430  0.1013 -0.5810
16969TIP3    H172322   2.868   4.070   4.552 -1.6469  0.4906 -1.4961
16969TIP3    H272323   2.931   4.125   4.426  0.9042  0.5016 -0.2945
16970TIP3   OH272324   0.056   6.696  15.317 -0.1878  0.4190  0.2632
16970TIP3    H172325  -0.022   6.670  15.366 -0.3438  0.3152 -0.0396
16970TIP3    H272326   0.075   6.622  15.260  0.7547  0.0113  1.0895
16971TIP3   OH272327   4.931   1.791  15.690  0.2609  0.4903 -0.3279
16971TIP3    H172328   4.875   1.717  15.712 -0.6808  1.5622  1.0759
16971TIP3    H272329   4.988   1.758  15.620 -1.1968 -1.0502 -0.8671
16972TIP3   OH272330   1.308   3.475  16.531  0.4213  0.4008 -0.0893
16972TIP3    H172331   1.282   3.520  16.451 -1.5721  1.1261  0.9100
16972TIP3    H272332   1.226   3.454  16.575  1.3740 -1.9419  0.7488
16973TIP3   OH272333   3.801   6.401  16.374 -0.4763  0.2058  0.1317
16973TIP3    H172334   3.763   6.320  16.407 -0.3402  0.7637  1.7730
16973TIP3    H272335   3.765   6.469  16.431 -0.1506  1.2394 -0.8515
16974TIP3   OH272336   2.930   6.196  15.532  0.0028  0.0847  0.2746
16974TIP3    H172337   2.884   6.202  15.449  0.0801 -0.5344  0.1802
16974TIP3    H272338   3.023   6.200  15.509  0.1316 -2.2781  0.0657
16975TIP3   OH272339   3.517   0.471  12.452  0.0947 -0.4867 -0.0269
16975TIP3    H172340   3.571   0.474  12.531 -0.5927 -0.4325  0.4534
16975TIP3    H272341   3.566   0.417  12.391  0.8869 -0.0914  0.2489
16976TIP3   OH272342   4.292   5.130  15.124  0.1642 -0.3893  0.2351
16976TIP3    H172343   4.319   5.112  15.034  0.8915 -0.7963  0.5245
16976TIP3    H272344   4.347   5.204  15.151 -0.4016  0.0531  0.1827
16977TIP3   OH272345   4.208   5.610   0.847 -0.2895  0.0694  0.4196
16977TIP3    H172346   4.220   5.666   0.923  0.4732 -0.7199  0.9000
16977TIP3    H272347   4.148   5.658   0.790  1.2415  1.9221  0.2689
16978TIP3   OH272348   0.516   2.449  14.535 -0.5400  0.5443  0.1693
16978TIP3    H172349   0.585   2.487  14.589 -0.6118 -0.6305  1.1103
16978TIP3    H272350   0.561   2.390  14.475 -0.3901  2.2921 -1.5418
16979TIP3   OH272351   3.166   3.180   1.259  0.0253 -0.1587 -0.5477
16979TIP3    H172352   3.133   3.242   1.194  0.1719 -1.4735 -1.9100
16979TIP3    H272353   3.257   3.206   1.272  0.3285 -0.5867 -1.7378
16980TIP3   OH272354   2.920   0.853   2.086  0.0301 -0.1859  0.2070
16980TIP3    H172355   2.952   0.823   2.171 -0.7183  1.0713  0.9565
16980TIP3    H272356   2.840   0.803   2.071 -0.8521  0.8929  1.1404
16981TIP3   OH272357   4.239   5.878   6.176 -0.6516  0.7573  0.3797
16981TIP3    H172358   4.280   5.824   6.109 -1.2525 -0.6717  1.1237
16981TIP3    H272359   4.311   5.926   6.216  0.0844 -0.4299  0.5234
16982TIP3   OH272360   6.303   4.226  13.109 -0.1852  0.1817 -0.3716
16982TIP3    H172361   6.208   4.232  13.117 -0.1610  0.1292 -0.0266
16982TIP3    H272362   6.320   4.133  13.095 -0.1776  0.1839 -0.3767
16983TIP3   OH272363   5.423   6.678  15.633  0.2603 -0.3480  0.4895
16983TIP3    H172364   5.342   6.702  15.678  1.2923 -0.3334  2.4062
16983TIP3    H272365   5.483   6.750  15.651  0.7540 -0.3870 -0.8558
16984TIP3   OH272366   4.008   5.937  14.530 -0.0593  0.7825 -0.1844
16984TIP3    H172367   3.918   5.942  14.563 -0.6241 -3.2662 -0.6560
16984TIP3    H272368   3.999   5.945  14.435  0.0978  0.7192 -0.2047
16985TIP3   OH272369   0.662   5.373   4.733  0.0918  0.2553  0.2872
16985TIP3    H172370   0.606   5.440   4.772 -3.1722 -0.8299 -2.0866
16985TIP3    H272371   0.707   5.417   4.661 -0.5140  0.3402 -0.0411
16986TIP3   OH272372   2.627   4.576  17.195 -0.4590  0.4380  0.4357
16986TIP3    H172373   2.642   4.622  17.278 -1.3470  2.1034 -0.2684
16986TIP3    H272374   2.691   4.614  17.135  0.7231 -1.3278  0.5016
16987TIP3   OH272375   2.605   3.088   2.149 -0.0801  0.2357  0.3200
16987TIP3    H172376   2.532   3.055   2.202  0.6237  0.7254  1.6577
16987TIP3    H272377   2.609   3.029   2.074 -2.0176  0.3694  0.0583
16988TIP3   OH272378   4.790   6.665  11.443  0.1853  0.4471 -0.5227
16988TIP3    H172379   4.771   6.590  11.499 -0.3031  0.2764 -0.9121
16988TIP3    H272380   4.847   6.630  11.375  0.0767  0.4634 -0.6224
16989TIP3   OH272381   5.088   6.173  13.417  0.4976  0.0843 -0.1188
16989TIP3    H172382   5.048   6.104  13.364  0.1703 -0.2574  0.5724
16989TIP3    H272383   5.026   6.189  13.488  2.3791 -1.8270  2.1254
16990TIP3   OH272384   5.202   4.669  13.208  0.2632 -0.1648  0.2539
16990TIP3    H172385   5.157   4.641  13.287 -2.4939 -1.0158 -1.4773
16990TIP3    H272386   5.174   4.760  13.195  0.4384 -0.1340  0.0788
16991TIP3   OH272387   3.931   2.355   5.631 -0.7912 -0.0624  1.0045
16991TIP3    H172388   3.870   2.285   5.651 -1.4421  0.7973  2.1365
16991TIP3    H272389   3.887   2.408   5.565 -0.6228 -0.2917  0.7072
16992TIP3   OH272390   6.568   0.683   0.320 -0.0126 -0.2512  0.0227
16992TIP3    H172391   6.537   0.639   0.399  0.3562 -2.0683 -0.7845
16992TIP3    H272392   6.493   0.680   0.260 -0.4048  1.4250  0.3822
16993TIP3   OH272393   2.823   6.401   2.456  0.2110  0.4537 -0.0961
16993TIP3    H172394   2.814   6.345   2.533 -0.2513 -0.6230 -0.9222
16993TIP3    H272395   2.854   6.343   2.387  0.5870  1.3990 -0.7493
16994TIP3   OH272396   1.642   3.331  14.608  0.1585 -0.3986 -0.1546
16994TIP3    H172397   1.668   3.350  14.517 -0.7587 -1.2840 -0.6232
16994TIP3    H272398   1.546   3.329  14.605  0.1305 -0.6077  0.7973
16995TIP3   OH272399   1.312   2.060  10.708 -0.3608  0.0767 -0.1695
16995TIP3    H172400   1.216   2.068  10.711 -0.3193  0.8036  3.3081
16995TIP3    H272401   1.342   2.147  10.683 -0.6416  1.0639  2.5759
16996TIP3   OH272402   5.565   4.158  11.062  0.4908 -0.3281 -1.0589
16996TIP3    H172403   5.634   4.215  11.097  0.5385 -0.9946 -0.0058
16996TIP3    H272404   5.612   4.100  11.002  0.4994  0.4960 -1.8688
16997TIP3   OH272405   1.389   2.388  11.470 -0.5597  0.1352  0.2389
16997TIP3    H172406   1.376   2.434  11.553 -1.1143 -2.7513  1.8637
16997TIP3    H272407   1.461   2.434  11.428  0.4253  1.0693  2.7966
16998TIP3   OH272408   5.044   6.652  17.068  0.0825  0.0718  0.5480
16998TIP3    H172409   5.024   6.654  17.162  1.7970 -0.5028  0.9549
16998TIP3    H272410   5.137   6.670  17.063  0.3399 -1.4086 -0.9354
16999TIP3   OH272411   6.170   5.234   3.943 -0.3494 -0.0057  0.8076
16999TIP3    H172412   6.222   5.248   3.864  0.9749 -0.7707  1.5057
16999TIP3    H272413   6.080   5.228   3.912  0.0985  0.1523 -0.5827
17000TIP3   OH272414   6.717   4.120   5.118 -0.6737 -0.3758  0.8156
17000TIP3    H172415   6.747   4.152   5.203 -2.1532 -0.0925  1.2618
17000TIP3    H272416   6.658   4.048   5.139 -2.3960  0.7859  0.1512
17001TIP3   OH272417   6.066   2.241  15.472 -0.1242 -0.6488  0.4470
17001TIP3    H172418   6.137   2.255  15.409 -1.6769 -0.2653 -1.2877
17001TIP3    H272419   6.070   2.147  15.491  0.0500 -0.8666 -0.6274
17002TIP3   OH272420   4.741   2.672   4.891 -0.3827  0.3274 -1.3831
17002TIP3    H172421   4.808   2.622   4.938 -0.8282 -0.8533 -1.9661
17002TIP3    H272422   4.786   2.708   4.816  0.2626  1.9696 -0.2600
17003TIP3   OH272423   1.129   1.563   4.084  1.0123 -0.2476  0.1608
17003TIP3    H172424   1.117   1.491   4.146 -2.7471  0.1290  0.1082
17003TIP3    H272425   1.108   1.642   4.134  1.2902  0.4188 -0.7372
17004TIP3   OH272426   3.151   4.244   3.288 -0.1027 -0.4402 -0.0601
17004TIP3    H172427   3.067   4.266   3.249  0.3921 -0.3324 -1.1176
17004TIP3    H272428   3.192   4.185   3.224  1.6015  1.3753 -0.7467
17005TIP3   OH272429   2.400   6.512  15.211 -0.0753 -1.1238  0.2694
17005TIP3    H172430   2.421   6.483  15.300 -0.4372 -0.4088  0.6057
17005TIP3    H272431   2.454   6.590  15.198 -1.3206 -0.1720  0.5652
17006TIP3   OH272432   2.603   0.509  13.099  0.5230 -0.3781  0.0572
17006TIP3    H172433   2.662   0.537  13.029  1.3058 -2.9450 -0.4183
17006TIP3    H272434   2.660   0.478  13.168 -0.2691 -0.8785  0.4950
17007TIP3   OH272435   1.956   2.199   4.988  0.2867 -0.1277 -0.4214
17007TIP3    H172436   2.050   2.195   4.969  0.4414 -0.1559  0.3008
17007TIP3    H272437   1.938   2.116   5.033 -0.5159 -1.0443 -2.3159
17008TIP3   OH272438   5.388   2.052   5.935 -0.6473 -0.0011 -0.4378
17008TIP3    H172439   5.363   2.141   5.912 -0.2678 -0.3666 -2.4605
17008TIP3    H272440   5.484   2.055   5.944 -0.4807 -0.4238 -1.8004
17009TIP3   OH272441   0.658   2.015  13.610  0.0261  0.2169  0.2230
17009TIP3    H172442   0.614   1.950  13.556  2.6334 -1.6670  0.1833
17009TIP3    H272443   0.622   2.002  13.698 -1.4355  0.6580 -0.2749
17010TIP3   OH272444   0.642   0.046  13.940  0.6134 -0.1061  0.1930
17010TIP3    H172445   0.738   0.043  13.940  0.6018 -0.7882 -0.8795
17010TIP3    H272446   0.615  -0.021  13.878 -0.5459  0.8551 -0.3841
17011TIP3   OH272447   2.661   2.264   1.376  0.0087  0.6855  0.4973
17011TIP3    H172448   2.671   2.282   1.470  1.1161 -0.6442  0.6576
17011TIP3    H272449   2.736   2.208   1.354 -0.3446  0.8191 -1.1447
17012TIP3   OH272450   4.190   6.685  15.304 -0.0326  0.0564 -0.4906
17012TIP3    H172451   4.123   6.644  15.249  1.0564  0.1423 -1.9277
17012TIP3    H272452   4.231   6.613  15.350 -0.7079 -0.0547 -0.0486
17013TIP3   OH272453   3.029   3.510   1.662  0.3286  0.0612 -0.1692
17013TIP3    H172454   2.965   3.472   1.603 -0.2344 -1.8149  1.5316
17013TIP3    H272455   2.985   3.586   1.699  0.6906  1.2551 -2.0692
17014TIP3   OH272456   4.021   1.715   5.455  0.1140 -0.3059  0.2727
17014TIP3    H172457   4.038   1.751   5.541 -0.1740  1.7462 -0.4740
17014TIP3    H272458   4.088   1.648   5.443  1.0819  0.4023  1.4985
17015TIP3   OH272459   1.951   2.727  15.255  0.0008 -0.3683 -0.6989
17015TIP3    H172460   2.004   2.806  15.261 -1.5102  0.6264  0.3965
17015TIP3    H272461   2.009   2.661  15.217  1.3691  1.1936 -1.4052
17016TIP3   OH272462   6.604   2.274   3.114  0.1919 -0.1586 -0.2300
17016TIP3    H172463   6.548   2.211   3.068 -1.1840  1.3150 -0.6534
17016TIP3    H272464   6.602   2.352   3.059 -0.0189  1.0286  1.3996
17017TIP3   OH272465   0.758   3.333  15.967  0.0557  0.2634 -0.0102
17017TIP3    H172466   0.703   3.301  16.039 -0.4141 -0.0163 -0.4916
17017TIP3    H272467   0.696   3.368  15.903  0.4908  0.8319 -0.1276
17018TIP3   OH272468   2.021   5.287  16.995 -0.1103 -0.2900  0.1698
17018TIP3    H172469   1.971   5.344  17.054  0.4029 -0.4306  0.7559
17018TIP3    H272470   2.053   5.346  16.927  0.7772  0.2364  1.0012
17019TIP3   OH272471   6.181   6.709   2.639  0.0143  0.0024  0.0084
17019TIP3    H172472   6.183   6.617   2.611  0.2540  0.2690 -0.8833
17019TIP3    H272473   6.088   6.728   2.649  0.0068 -0.6967  1.4633
17020TIP3   OH272474   3.576   3.873  15.856  0.4835  0.0517 -0.0481
17020TIP3    H172475   3.656   3.882  15.804  0.7248  0.3255  0.3696
17020TIP3    H272476   3.587   3.934  15.929  1.2587 -2.0425  1.7089
17021TIP3   OH272477   4.394   6.142  16.584 -0.0578  0.1660  0.2148
17021TIP3    H172478   4.349   6.197  16.520 -1.9572 -1.2191  0.2747
17021TIP3    H272479   4.375   6.052  16.557  0.9989 -0.4764  1.4524
17022TIP3   OH272480   1.424   0.019   0.905 -0.2603  0.4365  0.2064
17022TIP3    H172481   1.362  -0.050   0.930 -1.2301  0.2537 -2.3900
17022TIP3    H272482   1.370   0.097   0.894  0.2242  0.6936 -0.4200
17023TIP3   OH272483   6.673   5.636   0.608  0.1818  0.0171 -0.9422
17023TIP3    H172484   6.609   5.701   0.577  0.3576 -0.4343 -2.3383
17023TIP3    H272485   6.682   5.654   0.701 -1.7829  0.2536 -0.7570
17024TIP3   OH272486   1.671   6.740   4.969 -0.3828  0.5266 -0.3036
17024TIP3    H172487   1.620   6.763   5.047 -1.4437 -0.3566 -0.6990
17024TIP3    H272488   1.693   6.823   4.928 -1.6824  0.9404 -0.2059
17025TIP3   OH272489   4.605   3.703  14.930 -0.4804 -0.4784 -0.1885
17025TIP3    H172490   4.626   3.768  14.997 -0.6256  0.7698 -1.3032
17025TIP3    H272491   4.673   3.637  14.939 -0.8481 -0.6555  1.5647
17026TIP3   OH272492   4.523   4.315   0.565  0.3180  0.0573 -0.1432
17026TIP3    H172493   4.506   4.231   0.608 -0.9282  0.4595  0.1897
17026TIP3    H272494   4.489   4.380   0.626 -2.0592  0.6146 -1.9561
17027TIP3   OH272495   5.906   6.524  12.354 -0.3454  0.0452 -0.1880
17027TIP3    H172496   5.897   6.619  12.356  2.3023  0.4287 -1.7172
17027TIP3    H272497   5.834   6.492  12.408 -2.0889  2.8316 -0.6595
17028TIP3   OH272498   4.681   0.117  14.803  0.1431  0.2529 -0.0229
17028TIP3    H172499   4.675   0.153  14.891  0.1412  0.8666 -0.2716
17028TIP3    H272500   4.714   0.028  14.816  3.3503  1.3779  0.3704
17029TIP3   OH272501   6.527   2.390  14.924 -0.2759 -0.3150  0.0656
17029TIP3    H172502   6.522   2.308  14.875  0.7520 -0.3112 -0.0650
17029TIP3    H272503   6.606   2.382  14.977  0.0321  0.7365 -0.2163
17030TIP3   OH272504   5.223   2.980  16.207  0.3964  0.1990  0.2326
17030TIP3    H172505   5.294   3.042  16.220  0.8216 -0.5528  1.8962
17030TIP3    H272506   5.262   2.908  16.158  0.0303  0.9769 -1.2597
17031TIP3   OH272507   0.211   0.963  11.767 -0.2223 -0.0499  0.5795
17031TIP3    H172508   0.179   0.950  11.856 -0.7077 -1.0160  0.2837
17031TIP3    H272509   0.155   1.030  11.731 -1.8079 -1.5347  0.1566
17032TIP3   OH272510   4.425   6.521   0.722 -0.4722  0.0518 -0.2651
17032TIP3    H172511   4.421   6.440   0.672 -0.7964 -1.3079  1.8254
17032TIP3    H272512   4.412   6.590   0.658 -2.6867 -1.6477 -1.7952
17033TIP3   OH272513   1.880   2.356   5.958 -0.6955 -0.3182 -0.2326
17033TIP3    H172514   1.799   2.332   6.003 -1.1771 -1.8246 -1.8032
17033TIP3    H272515   1.913   2.273   5.923  1.5837  0.2496  0.4178
17034TIP3   OH272516   4.544   3.418  13.182 -0.2163  0.0741  0.6769
17034TIP3    H172517   4.634   3.427  13.149 -0.7088  0.5152 -0.6340
17034TIP3    H272518   4.532   3.324  13.194  0.0891 -0.0823 -0.1679
17035TIP3   OH272519   3.858   4.040  13.857 -0.1125 -0.2667  0.2699
17035TIP3    H172520   3.920   4.081  13.917 -0.0299 -0.5494  0.3839
17035TIP3    H272521   3.792   4.002  13.915 -0.5743  0.3174  0.1362
17036TIP3   OH272522   4.064   2.261  11.098 -0.1973 -0.5384 -0.7873
17036TIP3    H172523   4.000   2.332  11.105  1.0505  0.5463  0.4361
17036TIP3    H272524   4.077   2.250  11.004 -2.2072 -0.8501 -1.0599
17037TIP3   OH272525   6.305   0.772  14.859  0.4381 -0.2770 -0.2476
17037TIP3    H172526   6.255   0.850  14.886  1.1511  0.2444 -0.3979
17037TIP3    H272527   6.309   0.718  14.938 -0.5301 -0.4279 -0.2871
17038TIP3   OH272528   2.420   0.735  16.839 -0.1240  0.5580  0.0744
17038TIP3    H172529   2.382   0.760  16.923  0.5293 -0.0278  0.5628
17038TIP3    H272530   2.375   0.654  16.815  0.4064  0.1698  0.3742
17039TIP3   OH272531   0.427   3.518   5.032  0.1765 -0.0278  0.4471
17039TIP3    H172532   0.343   3.493   4.995  0.0437 -1.7203  1.7530
17039TIP3    H272533   0.486   3.522   4.957 -0.3565 -2.0487 -0.1426
17040TIP3   OH272534   0.855   3.245  11.332 -0.4861  0.1423  0.2459
17040TIP3    H172535   0.873   3.263  11.424  1.1397  3.9504 -0.6127
17040TIP3    H272536   0.784   3.305  11.309  0.3483  0.5707 -1.3727
17041TIP3   OH272537   0.234   5.610   0.212 -0.0766  0.2738  0.3699
17041TIP3    H172538   0.250   5.693   0.257  1.2914  1.3495 -1.9356
17041TIP3    H272539   0.163   5.570   0.261 -1.4199  3.2215  1.0404
17042TIP3   OH272540   5.256   1.334  15.224 -0.0970  0.4120 -0.0346
17042TIP3    H172541   5.311   1.383  15.163  0.3326  0.0324  0.0393
17042TIP3    H272542   5.186   1.297  15.170 -0.3238  0.9587 -0.1175
17043TIP3   OH272543   4.242   2.152  13.292 -0.3840 -0.1318 -0.0662
17043TIP3    H172544   4.245   2.127  13.199 -2.6796 -1.2232  0.0604
17043TIP3    H272545   4.250   2.247  13.292 -0.7484 -0.0797 -1.4506
17044TIP3   OH272546   2.310   4.932  11.249 -0.1265  0.0768  0.2121
17044TIP3    H172547   2.216   4.929  11.269 -0.3526  1.4267 -0.5672
17044TIP3    H272548   2.335   4.840  11.240 -1.8634 -0.2800 -1.7089
17045TIP3   OH272549   2.102   2.979   1.438  0.1543  0.5298  0.1924
17045TIP3    H172550   2.059   3.032   1.370 -0.1136  0.0392 -0.0247
17045TIP3    H272551   2.192   2.970   1.408 -0.3829 -1.2165 -1.0615
17046TIP3   OH272552   3.505   2.794  15.356 -0.5399 -0.8150 -0.1113
17046TIP3    H172553   3.417   2.775  15.388 -0.9104 -0.5169 -0.9105
17046TIP3    H272554   3.556   2.813  15.434 -2.3031  3.7808  0.2146
17047TIP3   OH272555   0.873   6.562  12.649 -0.4156 -0.3978 -0.3023
17047TIP3    H172556   0.833   6.631  12.597  0.2325  1.3610  1.4312
17047TIP3    H272557   0.967   6.577  12.642 -0.2851 -0.7263  0.5891
17048TIP3   OH272558   2.897   2.146   4.848  0.4494 -0.8413 -0.3009
17048TIP3    H172559   2.831   2.124   4.782  0.4982  0.8934 -0.9917
17048TIP3    H272560   2.877   2.089   4.922 -1.7736 -0.4585 -0.5319
17049TIP3   OH272561   4.029   5.786   1.948  0.0350 -0.5358 -0.2012
17049TIP3    H172562   3.995   5.859   1.895  1.3505  0.4728  0.2987
17049TIP3    H272563   3.973   5.785   2.025  1.3114  1.4084  0.8322
17050TIP3   OH272564   4.723   4.607  15.021  0.0866 -0.1129 -0.2770
17050TIP3    H172565   4.674   4.669  15.074 -0.7685 -0.1757 -0.9769
17050TIP3    H272566   4.793   4.576  15.079  1.1362  2.1973 -0.1919
17051TIP3   OH272567   3.482   1.795  11.650  0.3724 -0.0408 -0.1093
17051TIP3    H172568   3.489   1.822  11.558 -0.7191 -0.5694 -0.3723
17051TIP3    H272569   3.530   1.862  11.699 -0.7507  1.3745 -0.8791
17052TIP3   OH272570   5.071   3.462   2.539 -0.1884  0.9458  0.4045
17052TIP3    H172571   4.979   3.441   2.521  0.2527  0.7436 -1.8754
17052TIP3    H272572   5.069   3.552   2.572 -1.0725  1.7829 -1.7413
17053TIP3   OH272573   4.337   6.525  12.383 -0.1465  0.4134  0.7563
17053TIP3    H172574   4.424   6.564  12.369 -0.2372 -0.4006 -2.9434
17053TIP3    H272575   4.278   6.600  12.386  0.4854  0.8969  1.8821
17054TIP3   OH272576   5.260   5.750  14.441 -0.0193  0.1753  0.1097
17054TIP3    H172577   5.257   5.654  14.446  0.5877  0.0594 -1.1561
17054TIP3    H272578   5.345   5.768  14.400 -0.0197  1.2714  0.5776
17055TIP3   OH272579   6.252   2.787   2.240  0.0472 -0.2420  0.3105
17055TIP3    H172580   6.255   2.700   2.202  0.6129 -0.3815  0.6721
17055TIP3    H272581   6.319   2.787   2.308 -0.1457  0.3801  0.5137
17056TIP3   OH272582   3.340   2.015   4.579 -0.4603  0.3046 -0.1146
17056TIP3    H172583   3.280   2.065   4.633 -0.1210 -1.1938  1.7731
17056TIP3    H272584   3.394   1.966   4.641  1.6301  0.3278 -1.7595
17057TIP3   OH272585   3.700   3.637   3.539  0.5075  0.2261  0.0189
17057TIP3    H172586   3.720   3.711   3.481  0.5807  1.0464  1.0580
17057TIP3    H272587   3.772   3.576   3.526  1.4129  1.1750  0.4959
17058TIP3   OH272588   3.349   0.177  11.543  0.6509  0.1405 -0.0318
17058TIP3    H172589   3.302   0.171  11.459 -0.5037  1.6495  0.4603
17058TIP3    H272590   3.327   0.096  11.589  0.8400 -0.4451 -0.9425
17059TIP3   OH272591   5.432   5.305   3.635 -0.2936  0.6652  0.6681
17059TIP3    H172592   5.402   5.296   3.725  1.8971  0.8688  1.4811
17059TIP3    H272593   5.389   5.384   3.602 -1.6015  0.2405  1.2976
17060TIP3   OH272594   5.044   3.490  11.859  0.7065  0.9133  0.2378
17060TIP3    H172595   5.077   3.516  11.772  0.6407  0.8432  0.1910
17060TIP3    H272596   5.100   3.416  11.884 -0.1094  0.0685 -0.3312
17061TIP3   OH272597   4.004   5.853  11.206 -0.2505 -0.1876 -0.5100
17061TIP3    H172598   4.074   5.789  11.203  1.1006  1.2245 -0.6425
17061TIP3    H272599   3.925   5.802  11.223  0.7705 -1.8474 -0.5362
17062TIP3   OH272600   1.367   1.399   3.217  0.4838  0.1385 -0.2445
17062TIP3    H172601   1.448   1.448   3.232  1.6120 -1.4312 -0.9170
17062TIP3    H272602   1.349   1.411   3.123 -0.6109  1.2489  0.0894
17063TIP3   OH272603   2.107   2.182   2.264  0.1124  0.3943  0.4679
17063TIP3    H172604   2.173   2.251   2.256  0.8174 -0.3635 -0.5968
17063TIP3    H272605   2.031   2.216   2.217 -0.2286  1.2198  1.5900
17064TIP3   OH272606   1.049   2.283  13.468 -0.4457 -0.0932 -0.3777
17064TIP3    H172607   1.094   2.323  13.542  1.0104 -1.0408 -0.7073
17064TIP3    H272608   1.082   2.329  13.391  0.9273 -1.5594 -0.7243
17065TIP3   OH272609   3.139   6.651   3.236 -0.1042 -0.0442 -0.2220
17065TIP3    H172610   3.191   6.571   3.235  0.5454  0.3586  0.5080
17065TIP3    H272611   3.146   6.685   3.147  2.0035  0.6936  0.1670
17066TIP3   OH272612   4.923   6.265  13.632  0.6906  0.0315 -0.5369
17066TIP3    H172613   4.968   6.338  13.675 -1.2350 -0.1637  2.0481
17066TIP3    H272614   4.847   6.248  13.687 -0.1952 -2.4510 -2.3437
17067TIP3   OH272615   5.082   6.518  13.573 -0.2555 -0.7316 -0.1462
17067TIP3    H172616   5.015   6.531  13.641 -1.9772  1.4186 -2.0545
17067TIP3    H272617   5.144   6.589  13.588  0.0779 -1.0388 -0.0630
17068TIP3   OH272618   5.537   0.775  15.135 -0.1498  0.3168  0.0684
17068TIP3    H172619   5.449   0.808  15.115  0.1591  0.5998 -0.8887
17068TIP3    H272620   5.594   0.821  15.073  0.6464 -0.0220  0.5394
17069TIP3   OH272621   0.118   5.748  16.095  0.1487 -0.3587 -0.6207
17069TIP3    H172622   0.201   5.793  16.113 -0.7083  1.0319  0.0690
17069TIP3    H272623   0.112   5.744  16.000 -1.2553  4.1750 -0.9416
17070TIP3   OH272624   1.234   4.388   2.049 -0.5796 -0.0607 -0.1900
17070TIP3    H172625   1.250   4.431   1.965 -0.9512  1.5808  0.5457
17070TIP3    H272626   1.162   4.438   2.089 -0.4063 -0.7965  1.1105
17071TIP3   OH272627   5.404   0.767  11.530 -0.2501  0.1041  0.4910
17071TIP3    H172628   5.478   0.711  11.507 -1.5886 -1.3258 -0.4955
17071TIP3    H272629   5.368   0.728  11.610 -1.4073 -0.7340 -0.3981
17072TIP3   OH272630   2.669   4.004  13.571 -0.2072  0.0700  0.0595
17072TIP3    H172631   2.670   3.935  13.638  1.6397 -0.4749 -0.4767
17072TIP3    H272632   2.599   4.063  13.599  0.4517 -0.1635  2.4370
17073TIP3   OH272633   1.958   4.571  12.990 -0.4152  0.3753  0.0819
17073TIP3    H172634   1.951   4.660  13.025 -1.3127 -0.2008  1.4603
17073TIP3    H272635   1.922   4.516  13.059  0.7831 -1.1403 -0.4409
17074TIP3   OH272636   3.199   5.924   3.157  0.1849 -0.5519  0.4439
17074TIP3    H172637   3.225   5.965   3.240 -0.2847 -1.4926  1.0720
17074TIP3    H272638   3.261   5.959   3.093  0.7308 -0.0188  1.2375
17075TIP3   OH272639   5.930   2.001  11.134  0.5323  0.2541  0.4126
17075TIP3    H172640   5.911   1.959  11.218  0.2229 -1.3314 -0.4085
17075TIP3    H272641   6.022   2.026  11.139  0.2828  0.9813  1.5463
17076TIP3   OH272642   4.135   2.579  12.945 -0.6398 -0.2771  0.3463
17076TIP3    H172643   4.098   2.541  12.865  0.6509  0.0187 -0.4116
17076TIP3    H272644   4.210   2.524  12.966  1.3024  1.7767 -0.7956
17077TIP3   OH272645   0.066   0.361   3.114  0.9237 -0.3833  0.1406
17077TIP3    H172646   0.077   0.416   3.036 -0.5911  1.6944  1.2771
17077TIP3    H272647  -0.001   0.298   3.089 -1.4149  1.8189  0.3834
17078TIP3   OH272648   6.193   5.592  12.569  0.2822 -0.0050  0.0246
17078TIP3    H172649   6.197   5.657  12.499  1.9567  1.7229  1.6021
17078TIP3    H272650   6.101   5.592  12.598  0.5556  3.2608  1.3056
17079TIP3   OH272651   0.686   1.966   0.785  0.1758  0.0669  0.1628
17079TIP3    H172652   0.648   1.882   0.812  0.6813  0.0181  0.7553
17079TIP3    H272653   0.690   2.017   0.866 -0.1952  0.6963 -0.2105
17080TIP3   OH272654   4.701   6.470   4.283 -0.3648  0.2141  0.2944
17080TIP3    H172655   4.729   6.378   4.281 -1.5609 -0.2043  1.5627
17080TIP3    H272656   4.761   6.511   4.345  1.2871  0.7286 -1.5463
17081TIP3   OH272657   1.717   0.998  15.209 -0.5934  0.1697 -0.0837
17081TIP3    H172658   1.712   0.977  15.115 -0.7498 -0.9211  0.1491
17081TIP3    H272659   1.626   1.012  15.235 -0.5867  0.1232 -0.0335
17082TIP3   OH272660   3.416   3.300   0.267 -0.2243 -0.2834  0.0304
17082TIP3    H172661   3.484   3.269   0.207  0.5047 -0.9546  1.1567
17082TIP3    H272662   3.428   3.395   0.269  1.0702 -0.4302  0.6132
17083TIP3   OH272663   5.442   3.541   2.412  0.2478  0.0329  0.7307
17083TIP3    H172664   5.463   3.554   2.320  0.6018  3.1197  1.1340
17083TIP3    H272665   5.519   3.496   2.448  1.0690  0.7525 -0.0626
17084TIP3   OH272666   6.361   5.871   3.039 -0.0810  0.0271 -0.3674
17084TIP3    H172667   6.368   5.776   3.048 -0.1875  0.2029  4.0631
17084TIP3    H272668   6.452   5.901   3.043 -0.0980  0.1324 -0.8289
17085TIP3   OH272669   2.945   1.230  12.557 -0.4529  0.3116 -0.8443
17085TIP3    H172670   3.036   1.203  12.542 -0.1585  1.1433 -0.5796
17085TIP3    H272671   2.926   1.201  12.646 -0.3550  0.3938 -0.7972
17086TIP3   OH272672   3.849   6.754   4.499  0.1166 -0.3552  0.1587
17086TIP3    H172673   3.806   6.692   4.558  0.1233 -1.4740 -0.9625
17086TIP3    H272674   3.843   6.838   4.543 -0.9453 -0.9484  1.1894
17087TIP3   OH272675   2.467   5.886   0.232 -0.0067  0.1809 -0.3788
17087TIP3    H172676   2.400   5.949   0.206  1.0487  0.9978 -1.2617
17087TIP3    H272677   2.484   5.906   0.324 -0.8365  0.0866 -0.2021
17088TIP3   OH272678   3.246   2.653  11.075  0.5155 -0.0545 -0.1352
17088TIP3    H172679   3.182   2.645  11.004  0.4960  1.3384 -0.2995
17088TIP3    H272680   3.247   2.746  11.096  0.9243 -0.3669  1.3400
17089TIP3   OH272681   2.643   6.351   4.439  0.5511 -0.2760  0.1589
17089TIP3    H172682   2.650   6.279   4.377 -1.2712 -2.2208  2.0083
17089TIP3    H272683   2.620   6.309   4.522 -1.8351  2.4803  1.0938
17090TIP3   OH272684   3.900   3.438  14.244  0.5608  0.0609 -0.5135
17090TIP3    H172685   3.915   3.482  14.160  0.7099  1.2397  0.1059
17090TIP3    H272686   3.967   3.476  14.302 -0.5342  0.4311  0.5381
17091TIP3   OH272687   1.257   3.569   3.535 -0.1096 -0.5711 -0.7789
17091TIP3    H172688   1.251   3.547   3.442  1.2945 -1.8320 -0.6140
17091TIP3    H272689   1.171   3.604   3.557 -0.2806  0.3319 -2.6792
17092TIP3   OH272690   3.618   0.550   0.640 -0.2712 -0.8135 -0.4348
17092TIP3    H172691   3.646   0.486   0.575  1.9811 -1.3711  0.9648
17092TIP3    H272692   3.609   0.500   0.721 -0.0687  0.3620  0.3399
17093TIP3   OH272693   6.504   2.565  12.954  0.1027 -0.7144 -0.5035
17093TIP3    H172694   6.467   2.569  12.866 -1.7817 -0.3851  0.2644
17093TIP3    H272695   6.441   2.611  13.009  0.2595 -2.5711  1.3391
17094TIP3   OH272696   6.608   5.889   3.851  0.6476  0.1761  0.6263
17094TIP3    H172697   6.578   5.799   3.867  0.8042  0.2261  1.2334
17094TIP3    H272698   6.677   5.881   3.786 -1.0406  0.1024 -1.2729
17095TIP3   OH272699   1.056   5.501  12.407 -0.1356 -0.1224  0.0582
17095TIP3    H172700   0.999   5.429  12.379  0.6522 -0.2030 -1.3775
17095TIP3    H272701   1.098   5.468  12.487 -0.3758 -0.9549 -0.1482
17096TIP3   OH272702   0.059   5.575  13.456  0.2321  0.0806 -0.3664
17096TIP3    H172703  -0.003   5.592  13.385 -0.8517 -0.8826  0.3202
17096TIP3    H272704   0.016   5.510  13.511  0.4367  1.8382  1.9826
17097TIP3   OH272705   1.747   2.052   3.088 -0.3255 -0.3034 -0.1897
17097TIP3    H172706   1.823   2.089   3.042 -1.0634  1.3306 -0.1458
17097TIP3    H272707   1.763   1.958   3.088  0.5198 -0.2123 -2.3205
17098TIP3   OH272708   6.231   1.236  11.006  0.3063 -0.5075 -0.1388
17098TIP3    H172709   6.258   1.170  10.942  1.1309 -1.4284  1.1224
17098TIP3    H272710   6.201   1.186  11.081  0.0880  0.5622  0.5028
17099TIP3   OH272711   1.635   0.303   0.874  0.4270  0.2513 -0.0582
17099TIP3    H172712   1.554   0.330   0.831  1.2862  0.2799 -1.7626
17099TIP3    H272713   1.684   0.385   0.886  0.7361  0.0918 -0.2094
17100TIP3   OH272714   6.198   1.219  15.094  0.0820 -0.4352  0.3173
17100TIP3    H172715   6.244   1.302  15.085 -0.7982  0.2124  1.4760
17100TIP3    H272716   6.121   1.228  15.038  0.4456 -0.8428 -0.2644
17101TIP3   OH272717   2.240   4.463   4.165 -0.0046 -0.3090 -0.2210
17101TIP3    H172718   2.278   4.522   4.100  2.2876 -0.9428  0.4360
17101TIP3    H272719   2.176   4.517   4.212 -1.4343  0.2626 -2.6669
17102TIP3   OH272720   4.634   1.707   0.106  0.0118 -0.5912  0.0705
17102TIP3    H172721   4.639   1.614   0.129 -1.7853 -1.0797 -1.2534
17102TIP3    H272722   4.709   1.721   0.048 -0.2368 -1.4729 -0.4901
17103TIP3   OH272723   5.078   2.518   0.506 -0.3506  0.3107 -0.6348
17103TIP3    H172724   5.042   2.602   0.477 -2.5838  0.2782  1.7155
17103TIP3    H272725   5.135   2.540   0.579  1.8970  0.0125 -2.1960
17104TIP3   OH272726   4.972   2.739   0.216 -0.0463  0.4824  0.0494
17104TIP3    H172727   4.949   2.810   0.157 -2.1589 -0.4880 -0.4125
17104TIP3    H272728   5.057   2.708   0.186  0.8422  2.6545  0.1749
17105TIP3   OH272729   0.515   0.055   3.323 -0.5972 -0.1166 -0.0725
17105TIP3    H172730   0.420   0.047   3.311 -0.8232  1.4167  0.4250
17105TIP3    H272731   0.535   0.000   3.399 -1.2776  0.4038  0.4943
17106TIP3   OH272732   1.560   4.194  11.542 -0.4728  0.1113 -0.0011
17106TIP3    H172733   1.590   4.224  11.628  1.8655 -1.5187 -0.1425
17106TIP3    H272734   1.471   4.162  11.556  0.2844 -1.2343  2.1135
17107TIP3   OH272735   4.673   0.928   0.321 -0.7012  0.4177 -0.4762
17107TIP3    H172736   4.743   0.894   0.377  0.1687  1.5713 -0.7995
17107TIP3    H272737   4.593   0.915   0.371 -0.2178 -0.6406  0.0471
17108TIP3   OH272738   1.153   4.896  14.109 -0.3619 -0.3112 -0.1671
17108TIP3    H172739   1.188   4.850  14.032  0.3420 -1.4015  0.7680
17108TIP3    H272740   1.179   4.841  14.183 -2.3685 -0.1018  0.7487
17109TIP3   OH272741   3.211   6.356   1.065  0.0811  0.0554  0.1172
17109TIP3    H172742   3.294   6.341   1.110  0.2746  0.0523 -0.2325
17109TIP3    H272743   3.189   6.271   1.026 -0.5884 -0.1982  1.0235
17110TIP3   OH272744   4.738   2.992  15.301 -0.0978 -0.0563  0.0429
17110TIP3    H172745   4.665   2.970  15.359 -1.4032 -0.7510 -1.7613
17110TIP3    H272746   4.737   2.924  15.234  1.1409  0.8811 -0.9824
17111TIP3   OH272747   0.312   1.943  16.437  0.0877 -0.0555  0.0456
17111TIP3    H172748   0.319   1.849  16.451 -1.0260 -0.4605 -1.8119
17111TIP3    H272749   0.273   1.952  16.350  1.9683  2.1557 -0.6781
17112TIP3   OH272750   2.564   4.565  12.955 -0.0493 -0.6398  0.5949
17112TIP3    H172751   2.544   4.563  12.862 -0.7436 -2.1987  0.7565
17112TIP3    H272752   2.649   4.521  12.962 -0.0234 -0.5718  0.7243
17113TIP3   OH272753   0.003   2.117   2.747  0.2157  0.2092  0.7589
17113TIP3    H172754   0.010   2.204   2.707  0.2281  0.9538  2.3323
17113TIP3    H272755  -0.091   2.098   2.745  0.0523  0.8898  1.6989
17114TIP3   OH272756   1.188   0.036  12.814 -0.5139 -0.4919  0.0255
17114TIP3    H172757   1.175   0.125  12.848  0.4173 -0.8116  1.2914
17114TIP3    H272758   1.282   0.032  12.795 -0.9065 -0.5085 -2.1528
17115TIP3   OH272759   0.746   1.097   0.939 -0.2234 -0.6166 -0.1703
17115TIP3    H172760   0.665   1.143   0.916  0.1771  0.0500 -0.2763
17115TIP3    H272761   0.776   1.057   0.858  0.9091  1.2945 -0.7533
17116TIP3   OH272762   0.993   2.859  14.071  0.5668  0.3108  0.3104
17116TIP3    H172763   0.949   2.943  14.062 -2.0955 -0.8530  1.4510
17116TIP3    H272764   1.084   2.882  14.089  0.0452  2.9174  0.0477
17117TIP3   OH272765   0.337   3.813   4.234  0.1700  0.2527  0.2921
17117TIP3    H172766   0.409   3.769   4.188 -0.2854  0.5523 -0.7287
17117TIP3    H272767   0.368   3.820   4.324  1.2423 -0.0205 -0.0332
17118TIP3   OH272768   5.170   3.762   4.226  0.4918 -0.7762 -0.3499
17118TIP3    H172769   5.216   3.791   4.304  0.0898 -0.3852 -0.2499
17118TIP3    H272770   5.097   3.709   4.259  0.8909 -1.4410 -0.5078
17119TIP3   OH272771   4.414   4.221  14.646 -0.2162 -0.0984 -0.4981
17119TIP3    H172772   4.435   4.314  14.654  1.8959 -0.4399 -1.3998
17119TIP3    H272773   4.356   4.203  14.720  2.9851  0.9621  2.5809
17120TIP3   OH272774   0.519   4.113  15.346 -0.0955 -0.4128 -0.5703
17120TIP3    H172775   0.611   4.126  15.323 -0.1490 -1.2885 -1.3636
17120TIP3    H272776   0.479   4.198  15.332  0.4177 -0.2618 -1.1743
17121TIP3   OH272777   0.694   4.148  14.694  0.0583  0.1515 -0.2817
17121TIP3    H172778   0.767   4.145  14.631 -0.0833  0.8564 -0.4827
17121TIP3    H272779   0.685   4.240  14.716 -1.0841  0.1380 -0.6249
17122TIP3   OH272780   0.466   2.261   6.385 -0.2690 -0.0269  0.1853
17122TIP3    H172781   0.448   2.290   6.474 -0.4372 -1.6571  0.7202
17122TIP3    H272782   0.469   2.165   6.391 -1.1098 -0.2309 -1.6951
17123TIP3   OH272783   2.503   0.119   1.613 -0.7191  0.4420  0.5771
17123TIP3    H172784   2.567   0.153   1.675 -0.2611 -1.6239  1.3056
17123TIP3    H272785   2.553   0.103   1.533 -0.2421 -1.3380  1.2017
17124TIP3   OH272786   0.544   1.369  12.088  0.2971 -0.7360  0.5669
17124TIP3    H172787   0.591   1.369  12.171  2.8088  1.3636 -0.6762
17124TIP3    H272788   0.613   1.364  12.022 -1.3404  0.6902 -1.3929
17125TIP3   OH272789   1.363   3.375  12.286  0.3063 -0.0222 -1.0683
17125TIP3    H172790   1.350   3.313  12.357  0.5301 -1.0799 -1.9094
17125TIP3    H272791   1.430   3.435  12.318 -0.7298  0.4955  0.1924
17126TIP3   OH272792   0.130   3.959  14.506  0.3017 -0.4719  0.6986
17126TIP3    H172793   0.038   3.974  14.527 -0.4336 -2.5279 -0.7642
17126TIP3    H272794   0.166   3.916  14.584 -0.3920 -1.0768  0.6946
17127TIP3   OH272795   4.752   0.639  16.976 -0.4072  0.9686 -0.2770
17127TIP3    H172796   4.673   0.648  17.031 -0.6508  0.3014 -0.5004
17127TIP3    H272797   4.773   0.546  16.981 -0.1356  0.9955 -0.9240
17128TIP3   OH272798   3.652   4.333  13.059 -0.2344 -0.3830  0.2782
17128TIP3    H172799   3.628   4.282  13.136 -0.4673 -0.2048  0.3238
17128TIP3    H272800   3.722   4.282  13.018 -0.3819 -0.6816  0.3880
17129TIP3   OH272801   3.078   5.158   5.846 -0.2174 -0.1073 -0.7512
17129TIP3    H172802   3.008   5.208   5.889  1.5319  0.3346  1.8057
17129TIP3    H272803   3.034   5.078   5.815 -1.8429  0.0621  0.9281
17130TIP3   OH272804   1.612   3.915   1.965  0.2741 -0.2421  0.5658
17130TIP3    H172805   1.652   3.957   2.041  0.9877 -1.0502  0.6506
17130TIP3    H272806   1.659   3.832   1.955  0.9485  0.2990 -1.3983
17131TIP3   OH272807   2.531   5.190   5.997  0.0097 -0.1835  0.1089
17131TIP3    H172808   2.469   5.132   5.952  0.9304  0.1006 -1.6192
17131TIP3    H272809   2.475   5.251   6.046 -1.0591 -0.6187 -0.5221
17132TIP3   OH272810   5.194   2.511  16.973  0.3694 -0.6454  0.3092
17132TIP3    H172811   5.160   2.600  16.973  0.4737 -0.6061  0.0750
17132TIP3    H272812   5.284   2.519  17.004  1.3516 -0.2954 -2.3709
17133TIP3   OH272813   0.105   0.573   3.556  0.1467  0.0043 -0.0040
17133TIP3    H172814   0.170   0.529   3.501 -0.3466 -0.4086 -0.2500
17133TIP3    H272815   0.055   0.627   3.495 -0.7711 -0.8864 -0.0540
17134TIP3   OH272816   3.752   6.683  13.751  0.0319  0.5938 -0.0795
17134TIP3    H172817   3.807   6.705  13.826 -0.8991 -0.8513  1.1039
17134TIP3    H272818   3.664   6.709  13.777 -0.5825 -1.4703  0.0924
17135TIP3   OH272819   6.191   0.735  16.834  0.5811 -0.0214  0.0354
17135TIP3    H172820   6.228   0.677  16.768  0.1793 -3.0802  2.2412
17135TIP3    H272821   6.096   0.730  16.820  0.5862  1.2760 -0.5974
17136TIP3   OH272822   1.160   2.240  13.105  0.0856  0.0576  0.5995
17136TIP3    H172823   1.132   2.149  13.115 -0.2870 -0.1709 -1.8792
17136TIP3    H272824   1.255   2.235  13.101  0.1703  0.0097  2.0666
17137TIP3   OH272825   0.100   2.522   5.267 -0.0514  0.2144 -0.1652
17137TIP3    H172826   0.100   2.441   5.317 -0.6011  0.4078  0.1611
17137TIP3    H272827   0.036   2.578   5.312  0.9043  1.1264  0.1100
17138TIP3   OH272828   5.121   4.734  11.701 -0.5265  0.7561  0.0746
17138TIP3    H172829   5.154   4.648  11.674  0.8139  1.4608 -0.6625
17138TIP3    H272830   5.034   4.717  11.736 -1.5816 -0.5194 -2.8520
17139TIP3   OH272831   2.180   2.589  14.133  0.5330  0.3118 -0.3559
17139TIP3    H172832   2.162   2.631  14.048  0.0570 -1.2237 -1.0487
17139TIP3    H272833   2.103   2.609  14.186  0.1943  0.1162 -0.7631
17140TIP3   OH272834   1.647   2.148  14.542  0.5760 -0.5610  0.4295
17140TIP3    H172835   1.644   2.099  14.624  0.6906 -1.1445  0.0940
17140TIP3    H272836   1.712   2.102  14.488  2.0029  0.9877  0.7362
17141TIP3   OH272837   1.375   3.998   2.437  0.7090 -0.7590 -0.0463
17141TIP3    H172838   1.470   3.986   2.437  0.9938  1.1151  1.0537
17141TIP3    H272839   1.358   4.052   2.514 -1.3009 -1.2458 -0.0931
17142TIP3   OH272840   4.372   2.064   5.409  0.0330  0.3486  0.1566
17142TIP3    H172841   4.288   2.019   5.404  0.7729 -0.9548 -1.2435
17142TIP3    H272842   4.431   2.000   5.449  0.6415  0.7956 -0.0115
17143TIP3   OH272843   2.330   0.682   0.971 -0.2889 -0.2175 -0.0891
17143TIP3    H172844   2.308   0.660   0.881 -0.8026  1.0625 -0.2956
17143TIP3    H272845   2.256   0.648   1.022 -2.2546  2.8374 -0.6416
17144TIP3   OH272846   3.510   0.683   3.539 -0.6350 -0.1689 -0.4374
17144TIP3    H172847   3.562   0.604   3.554 -0.6741  0.3387  3.1451
17144TIP3    H272848   3.572   0.755   3.545 -1.1330  0.2486 -0.2234
17145TIP3   OH272849   1.578   3.863  15.686 -0.2143  0.3962 -0.1133
17145TIP3    H172850   1.512   3.814  15.637  1.1942  0.0407 -1.7291
17145TIP3    H272851   1.641   3.891  15.621  1.4199  0.4815  1.4287
17146TIP3   OH272852   4.511   4.234   2.863 -0.1377  0.4148 -0.2345
17146TIP3    H172853   4.502   4.156   2.808 -0.5587  0.2641  0.0465
17146TIP3    H272854   4.482   4.306   2.806  0.2552  0.3718 -0.4954
17147TIP3   OH272855   0.262   4.901   2.442 -0.1827  0.1277  0.5899
17147TIP3    H172856   0.246   4.837   2.374  0.9647 -0.2139  0.6304
17147TIP3    H272857   0.306   4.974   2.397 -1.7868  1.0827  0.4681
17148TIP3   OH272858   0.226   1.723   5.654  0.1754 -0.4725 -0.0480
17148TIP3    H172859   0.287   1.763   5.717  0.8159 -2.7764  0.8911
17148TIP3    H272860   0.275   1.651   5.616 -0.7459 -0.0684 -2.1283
17149TIP3   OH272861   4.725   3.821   0.691  0.1114  0.3330 -0.0541
17149TIP3    H172862   4.755   3.749   0.636  2.3025  0.6940  0.5676
17149TIP3    H272863   4.803   3.850   0.738 -0.9911  2.2069  0.7675
17150TIP3   OH272864   6.565   6.691  12.455 -0.4528 -0.1311 -0.0556
17150TIP3    H172865   6.593   6.727  12.538  0.2042 -0.6757 -0.0362
17150TIP3    H272866   6.581   6.597  12.462  1.4563  0.0119 -1.4858
17151TIP3   OH272867   5.719   5.824  10.404 -0.0429  0.6679 -0.4623
17151TIP3    H172868   5.645   5.783  10.359  0.5490 -1.2309  0.2271
17151TIP3    H272869   5.737   5.903  10.352 -1.3459  0.1797 -1.7303
17152TIP3   OH272870   3.176   5.580  13.160  0.0704  0.3246  0.3310
17152TIP3    H172871   3.110   5.565  13.093 -0.0294 -1.3980  0.7421
17152TIP3    H272872   3.130   5.626  13.230 -2.1540 -4.4623  2.5349
17153TIP3   OH272873   2.791   0.743   0.579  0.1964 -0.6682  0.0685
17153TIP3    H172874   2.823   0.663   0.537 -1.1960 -1.6361  0.7731
17153TIP3    H272875   2.815   0.734   0.671  1.9830  0.7897 -0.1950
17154TIP3   OH272876   0.302   0.519  14.720  0.3866 -0.0452  0.1590
17154TIP3    H172877   0.315   0.456  14.791  0.4208  0.1778  0.3528
17154TIP3    H272878   0.275   0.600  14.764  0.5160  0.1270 -0.0741
17155TIP3   OH272879   2.713   4.814   1.656 -0.4776  0.1798  0.0341
17155TIP3    H172880   2.705   4.909   1.663  2.4675  0.4833  0.4243
17155TIP3    H272881   2.696   4.782   1.745  0.8596  0.6094  0.4672
17156TIP3   OH272882   3.781   0.383   3.316  0.0588  0.2729 -0.6749
17156TIP3    H172883   3.866   0.338   3.313 -0.2484 -0.4406  0.6534
17156TIP3    H272884   3.720   0.321   3.277 -0.1919 -0.0725  0.2438
17157TIP3   OH272885   2.026   5.608  12.684  0.0874 -0.9450 -0.5580
17157TIP3    H172886   1.957   5.617  12.751  0.6619 -1.6487  0.1552
17157TIP3    H272887   1.990   5.651  12.607 -0.5624 -0.0210  0.2282
17158TIP3   OH272888   2.903   3.823  17.009 -0.5977 -0.2690 -0.3148
17158TIP3    H172889   2.972   3.860  16.954 -0.6628 -0.1927 -0.3466
17158TIP3    H272890   2.948   3.761  17.066 -0.2140  1.0706  0.8899
17159TIP3   OH272891   2.132   6.392   3.658  0.1887  0.1847  0.3673
17159TIP3    H172892   2.172   6.378   3.744 -0.7114 -1.6376  0.5417
17159TIP3    H272893   2.047   6.350   3.664  0.2642 -0.3566 -1.5332
17160TIP3   OH272894   0.840   4.508  11.007 -0.4115  0.7283  0.3328
17160TIP3    H172895   0.886   4.583  11.045  0.0537  0.2557  0.7196
17160TIP3    H272896   0.909   4.458  10.963 -1.0028  1.5434 -1.6514
17161TIP3   OH272897   2.981   4.179   3.070  0.9742 -0.6665  0.4287
17161TIP3    H172898   2.895   4.174   3.028  0.0399 -1.9074  2.3469
17161TIP3    H272899   3.027   4.101   3.040  0.3197 -1.5347  1.5933
17162TIP3   OH272900   4.147   3.671   1.833  0.7425 -0.1235  0.1828
17162TIP3    H172901   4.076   3.734   1.820  0.4086 -0.0634  2.0540
17162TIP3    H272902   4.220   3.706   1.782  0.2092  1.1628  0.2731
17163TIP3   OH272903   6.727   2.503   4.685  0.4152 -0.0292  0.2888
17163TIP3    H172904   6.721   2.421   4.635  1.9872  0.4698 -0.7991
17163TIP3    H272905   6.694   2.569   4.625 -1.3143  0.1047  1.3449
17164TIP3   OH272906   4.617   3.333   4.636 -0.3533  0.1058  0.1191
17164TIP3    H172907   4.634   3.358   4.727 -0.6147  1.2625 -0.1373
17164TIP3    H272908   4.522   3.331   4.629 -0.3611  1.3845 -0.4631
17165TIP3   OH272909   2.983   2.728  13.021 -0.5947  0.4858  0.1068
17165TIP3    H172910   2.993   2.778  13.103 -0.5852 -0.1211  0.4835
17165TIP3    H272911   3.073   2.703  12.999 -0.5161  1.2544 -0.4840
17166TIP3   OH272912   2.295   1.220   3.614 -0.1396 -0.0136 -0.1544
17166TIP3    H172913   2.334   1.281   3.551 -1.5044 -0.9430 -2.0136
17166TIP3    H272914   2.329   1.134   3.587 -0.3101 -0.3716  0.7476
17167TIP3   OH272915   4.990   5.285  12.877  0.3091 -0.2098  0.2591
17167TIP3    H172916   4.968   5.264  12.786 -0.3033 -1.0881  0.5952
17167TIP3    H272917   5.085   5.298  12.876  0.6856 -2.4287 -0.1362
17168TIP3   OH272918   5.572   2.040  12.498  0.0351 -0.1437  0.0143
17168TIP3    H172919   5.577   2.056  12.403  3.0892 -0.2817  0.0303
17168TIP3    H272920   5.556   1.946  12.505 -1.8676  0.1119 -0.2781
17169TIP3   OH272921   1.606   6.652   0.141  0.4638  0.2455 -0.2058
17169TIP3    H172922   1.622   6.559   0.125 -3.0682 -0.5597  0.1331
17169TIP3    H272923   1.637   6.666   0.231  0.5133 -0.7644 -0.0511
17170TIP3   OH272924   4.654   0.958   2.271  0.2927 -0.7730  0.5102
17170TIP3    H172925   4.581   0.991   2.322  0.3948  0.7422 -0.2731
17170TIP3    H272926   4.684   1.033   2.220  2.9535 -1.1265  1.4208
17171TIP3   OH272927   0.860   4.550   3.456 -0.2431 -0.1578 -0.2001
17171TIP3    H172928   0.892   4.563   3.546  0.2513 -0.9050 -0.2609
17171TIP3    H272929   0.919   4.601   3.401  1.0715 -1.7736 -0.3420
17172TIP3   OH272930   6.025   1.406   3.573  0.2357  0.0638 -0.5818
17172TIP3    H172931   5.953   1.468   3.563 -0.6906 -0.9766 -0.5548
17172TIP3    H272932   6.103   1.461   3.585 -0.9773  1.2851  3.1260
17173TIP3   OH272933   1.201   6.409  16.618 -0.5075 -0.4047 -0.2861
17173TIP3    H172934   1.108   6.425  16.606 -1.0818 -2.3415  1.1129
17173TIP3    H272935   1.219   6.437  16.708  0.7282  1.6047 -1.0690
17174TIP3   OH272936   0.835   2.281   2.261  0.0847  0.8508  0.1541
17174TIP3    H172937   0.838   2.318   2.173 -1.9817  1.6723  0.3663
17174TIP3    H272938   0.849   2.356   2.319 -2.5789  1.1396  0.5528
17175TIP3   OH272939   2.770   6.600   4.531 -0.5380  0.5014  0.1092
17175TIP3    H172940   2.770   6.522   4.475 -2.7594  1.4974 -1.4025
17175TIP3    H272941   2.685   6.599   4.575 -1.0332  2.5075 -0.6695
17176TIP3   OH272942   5.289   5.429   1.732 -0.3995 -0.2846  0.3417
17176TIP3    H172943   5.279   5.350   1.678  1.5627 -0.5544  0.2923
17176TIP3    H272944   5.375   5.464   1.708 -1.6136  2.4645 -0.3306
17177TIP3   OH272945   5.057   0.080  16.225 -0.2828  0.5081  0.2566
17177TIP3    H172946   4.964   0.082  16.245 -0.5013 -2.9839  0.1203
17177TIP3    H272947   5.062   0.099  16.131 -1.0569 -0.8881 -0.0894
17178TIP3   OH272948   0.515   0.044   4.145 -0.5314  0.0677  0.1973
17178TIP3    H172949   0.610   0.040   4.150 -0.5398  1.0435  1.6642
17178TIP3    H272950   0.486  -0.046   4.163  0.0530  0.3505  3.0643
17179TIP3   OH272951   0.434   5.225  12.396 -0.4749  0.6094 -0.2348
17179TIP3    H172952   0.393   5.254  12.478  0.3102 -1.1280  0.8409
17179TIP3    H272953   0.365   5.178  12.350 -0.3040 -0.5630  0.6375
17180TIP3   OH272954   4.772   2.646   5.177  0.1018 -0.1871 -0.5106
17180TIP3    H172955   4.719   2.567   5.186 -0.1307 -0.0846 -0.9786
17180TIP3    H272956   4.717   2.716   5.212  0.3622 -0.2500  0.0352
17181TIP3   OH272957   2.784   6.625  13.668 -0.1297  0.3634 -0.0537
17181TIP3    H172958   2.736   6.670  13.738  0.1792  0.8911 -0.1725
17181TIP3    H272959   2.874   6.657  13.677  0.6107 -1.8601  1.2202
17182TIP3   OH272960   6.485   2.542  14.303 -0.2168  0.2513 -0.6553
17182TIP3    H172961   6.404   2.551  14.353  0.3632 -0.4002  0.4394
17182TIP3    H272962   6.475   2.602  14.229 -1.1344  1.1687  0.1919
17183TIP3   OH272963   3.442   2.016   3.278  0.0887  0.0195 -0.0232
17183TIP3    H172964   3.388   1.983   3.206  0.0072 -1.0242  0.5044
17183TIP3    H272965   3.530   2.020   3.241  0.0864 -0.7200 -0.1300
17184TIP3   OH272966   1.146   0.151  16.573 -0.2148  0.2667 -0.0221
17184TIP3    H172967   1.176   0.163  16.663 -1.6430  1.0824  0.3772
17184TIP3    H272968   1.148   0.239  16.536 -1.8332  0.3166 -0.0445
17185TIP3   OH272969   4.916   4.237   3.094 -0.2284  0.1930  0.0205
17185TIP3    H172970   4.822   4.230   3.108 -0.3153  0.7148 -0.2735
17185TIP3    H272971   4.926   4.312   3.034  0.4464  0.8948  0.9858
17186TIP3   OH272972   3.319   6.655   0.702  0.2840  0.1476  0.1440
17186TIP3    H172973   3.288   6.581   0.755  1.2355  0.5652  1.3187
17186TIP3    H272974   3.350   6.614   0.620 -0.2819 -0.6158  0.3013
17187TIP3   OH272975   0.169   5.151   1.012 -0.1637 -0.2770  0.3048
17187TIP3    H172976   0.132   5.237   1.031 -1.6648 -0.8678  0.1931
17187TIP3    H272977   0.096   5.090   1.022  0.3610 -1.3153 -1.6115
17188TIP3   OH272978   3.026   6.625  14.908  0.2113  0.1496 -0.0320
17188TIP3    H172979   3.121   6.635  14.908  0.1425  0.8445 -0.3155
17188TIP3    H272980   3.002   6.631  15.001  0.5112 -0.8229  0.1234
17189TIP3   OH272981   1.802   2.891   4.542 -0.4638 -0.6490  0.0649
17189TIP3    H172982   1.834   2.856   4.625 -0.5577 -0.1355  0.3208
17189TIP3    H272983   1.881   2.919   4.495 -0.5483  2.5072  1.5321
17190TIP3   OH272984   0.715   3.655   5.134 -0.3190 -0.1028 -0.0605
17190TIP3    H172985   0.644   3.719   5.122  1.4501  1.6229 -2.1361
17190TIP3    H272986   0.761   3.655   5.051  2.9143 -0.1676  1.5954
17191TIP3   OH272987   2.621   4.360   5.369  0.2351  0.6931 -0.0350
17191TIP3    H172988   2.589   4.278   5.408  1.9722 -0.5996 -1.1988
17191TIP3    H272989   2.565   4.427   5.407 -1.9004 -1.1123  0.2557
17192TIP3   OH272990   1.027   5.441   0.834 -0.5790 -0.4116 -0.0286
17192TIP3    H172991   1.108   5.435   0.885  0.1895 -0.2975 -1.1953
17192TIP3    H272992   1.006   5.351   0.810 -0.7827 -0.4383  0.2490
17193TIP3   OH272993   2.983   3.455   2.069  0.0195 -0.5491 -0.2945
17193TIP3    H172994   3.038   3.413   2.003 -0.4386 -1.1519 -0.3043
17193TIP3    H272995   2.962   3.385   2.131 -2.8638 -1.0512 -1.6497
17194TIP3   OH272996   2.993   5.988  14.622 -0.1216  0.1521  0.2686
17194TIP3    H172997   3.037   5.978  14.707 -1.2423  0.2692  0.8770
17194TIP3    H272998   2.999   6.081  14.603 -0.9080  0.3138  0.7968
17195TIP3   OH272999   3.313   2.372  13.698 -0.4021  0.1861 -0.0954
17195TIP3    H173000   3.311   2.280  13.725  1.0921  0.0564 -0.3452
17195TIP3    H273001   3.342   2.369  13.607  0.1984  0.9357  0.0643
17196TIP3   OH273002   0.422   5.599  14.220 -0.5151  0.4780  0.2066
17196TIP3    H173003   0.415   5.637  14.307 -0.1352  3.5762 -0.9915
17196TIP3    H273004   0.516   5.596  14.203 -0.6136  0.7963 -0.4270
17197TIP3   OH273005   2.869   3.748   4.411 -0.0467 -0.4900 -0.5409
17197TIP3    H173006   2.808   3.692   4.458 -2.3427  0.3548 -2.3581
17197TIP3    H273007   2.923   3.687   4.361 -0.5953 -1.1803 -0.3130
17198TIP3   OH273008   1.356   0.200   5.458  0.2425  0.3343 -0.0757
17198TIP3    H173009   1.329   0.129   5.400  1.3469 -0.1344 -0.0461
17198TIP3    H273010   1.342   0.280   5.407 -3.4124  0.4199  0.7459
17199TIP3   OH273011   4.481   1.004  15.716 -0.2919  0.8019 -0.2363
17199TIP3    H173012   4.441   0.976  15.798 -0.4583  3.3683  0.6402
17199TIP3    H273013   4.561   0.951  15.709 -0.6739 -0.0069  1.1656
17200TIP3   OH273014   2.125   6.268   1.248  0.4103  0.1167 -0.1921
17200TIP3    H173015   2.038   6.253   1.284  0.7371 -2.8101 -0.4173
17200TIP3    H273016   2.175   6.305   1.321 -1.0616  2.3052 -0.2026
17201TIP3   OH273017   6.489   0.114   5.914  0.1191 -0.4401  0.0016
17201TIP3    H173018   6.463   0.200   5.948  0.8002  0.2041 -1.0480
17201TIP3    H273019   6.443   0.106   5.831  1.1521 -0.4550 -0.5853
17202TIP3   OH273020   5.541   4.507  15.417 -0.7562 -0.1108  0.1929
17202TIP3    H173021   5.486   4.430  15.406  0.4692 -1.1167  0.8095
17202TIP3    H273022   5.630   4.475  15.405 -0.0636  0.7878  2.3452
17203TIP3   OH273023   6.726   6.567   2.288 -0.0140 -0.2381  0.0459
17203TIP3    H173024   6.729   6.663   2.285  3.6364 -0.1402  1.4629
17203TIP3    H273025   6.640   6.547   2.324 -1.0392  2.4582 -0.6405
17204TIP3   OH273026   6.520   6.368   0.773 -0.4690 -0.0560  0.6002
17204TIP3    H173027   6.448   6.401   0.827 -1.5916  2.4808 -2.1837
17204TIP3    H273028   6.481   6.352   0.688  2.3845  2.7924 -1.4818
17205TIP3   OH273029   0.956   1.941   5.033 -0.1034 -0.3657  0.0192
17205TIP3    H173030   0.913   1.962   5.116  0.2599  1.8993 -0.2905
17205TIP3    H273031   0.902   1.872   4.995  0.6194 -2.6518  2.8085
17206TIP3   OH273032   6.091   3.010   3.815  0.3406 -0.0881  0.3198
17206TIP3    H173033   6.172   3.040   3.857 -0.0909  0.7516  0.5850
17206TIP3    H273034   6.068   3.081   3.755 -1.0317  0.4112  1.3935
17207TIP3   OH273035   6.641   5.942  11.580  0.4077  0.1402  0.2133
17207TIP3    H173036   6.630   6.032  11.610  4.7999  1.1114 -0.4438
17207TIP3    H273037   6.709   5.906  11.637  0.9490 -1.7254 -1.4936
17208TIP3   OH273038   5.542   0.219  11.257  0.7104  0.5736 -0.4131
17208TIP3    H173039   5.536   0.270  11.338  4.4702  1.7513 -0.6609
17208TIP3    H273040   5.579   0.135  11.283  1.0781  0.6185 -0.7611
17209TIP3   OH273041   3.641   0.937  15.371 -0.3998  0.0216  0.7499
17209TIP3    H173042   3.679   0.894  15.448 -0.3646 -2.5436 -0.5991
17209TIP3    H273043   3.676   0.889  15.296 -3.7784 -0.4848 -0.7095
17210TIP3   OH273044   5.066   6.603   1.277  0.5223  0.4854 -0.0113
17210TIP3    H173045   5.091   6.583   1.187  0.9792  0.7737  0.0485
17210TIP3    H273046   5.004   6.676   1.269  1.5600  1.3881 -0.0245
17211TIP3   OH273047   5.420   1.963   1.066  0.9330 -0.0064 -0.8328
17211TIP3    H173048   5.375   2.036   1.023  0.1328 -0.1607 -0.2719
17211TIP3    H273049   5.368   1.886   1.044  1.5486 -0.3514 -1.0861
17212TIP3   OH273050   3.550   1.524  12.490 -0.4402  0.0061  0.0807
17212TIP3    H173051   3.481   1.464  12.464 -1.1590  1.2968 -1.1097
17212TIP3    H273052   3.505   1.607  12.507  0.6699  0.5454  0.4988
17213TIP3   OH273053   1.537   4.885  16.094 -0.0949  0.4662 -0.7141
17213TIP3    H173054   1.624   4.913  16.067  0.2276 -0.9195 -1.1643
17213TIP3    H273055   1.495   4.855  16.014  0.7447 -3.3448  0.0540
17214TIP3   OH273056   3.254   2.047   0.783  0.0414  0.4330  0.4679
17214TIP3    H173057   3.217   2.077   0.866  0.9651 -1.0373  1.4741
17214TIP3    H273058   3.316   2.116   0.758  0.0399  0.7166  1.2218
17215TIP3   OH273059   4.778   0.351  16.973  0.3756  0.0881 -0.7799
17215TIP3    H173060   4.802   0.346  16.881 -0.8319 -1.4668 -1.0559
17215TIP3    H273061   4.697   0.301  16.980 -1.2716  2.7022  0.6011
17216TIP3   OH273062   1.995   5.491  15.360 -0.4188 -0.0721 -0.5400
17216TIP3    H173063   2.059   5.499  15.431 -0.6150  1.1002 -0.4739
17216TIP3    H273064   1.952   5.407  15.376 -1.5885  0.8597  1.7169
17217TIP3   OH273065   5.620   1.949   4.885  0.2289 -0.2201  0.0557
17217TIP3    H173066   5.617   2.044   4.871 -0.6870 -0.0741  1.0746
17217TIP3    H273067   5.554   1.914   4.824 -0.5347 -0.0291  0.7444
17218TIP3   OH273068   3.682   1.047  11.764 -0.1827 -0.1098 -0.6655
17218TIP3    H173069   3.688   0.957  11.733 -0.2854 -0.0728 -0.7955
17218TIP3    H273070   3.728   1.098  11.696 -2.0997  0.2087 -1.7900
17219TIP3   OH273071   0.143   3.315   2.963  0.8000  0.1785  0.2984
17219TIP3    H173072   0.212   3.250   2.953 -0.3002 -1.1017  0.7316
17219TIP3    H273073   0.139   3.332   3.057 -0.1073 -0.4852  0.3882
17220TIP3   OH273074   2.264   2.520   5.457  0.5282 -0.1340  0.3077
17220TIP3    H173075   2.317   2.600   5.460  0.2613  0.0794 -0.4305
17220TIP3    H273076   2.326   2.452   5.431  0.4666  0.1162 -0.5585
17221TIP3   OH273077   2.675   2.184   0.015 -0.2051  0.4519  0.5693
17221TIP3    H173078   2.642   2.265  -0.024  0.4989  0.0019 -1.0392
17221TIP3    H273079   2.737   2.214   0.082 -0.6650  1.2406  0.6634
17222TIP3   OH273080   6.272   0.080   4.251 -0.0819 -0.1169 -1.3205
17222TIP3    H173081   6.324   0.151   4.214 -0.3947  1.2575  0.7044
17222TIP3    H273082   6.183   0.096   4.221 -0.4381  1.3189  0.3462
17223TIP3   OH273083   2.335   5.162  11.615  0.1013  0.6716 -0.2096
17223TIP3    H173084   2.296   5.087  11.660 -0.2233  1.0214  0.0979
17223TIP3    H273085   2.341   5.135  11.524 -2.2251  1.1499 -0.5497
17224TIP3   OH273086   0.611   6.092  15.113  0.2856  0.4556 -0.3830
17224TIP3    H173087   0.650   6.113  15.028 -0.5882  0.9688 -0.6681
17224TIP3    H273088   0.623   6.172  15.165 -0.3196  0.5946 -0.4523
17225TIP3   OH273089   2.532   3.463  14.037  0.0021 -0.7354  0.2007
17225TIP3    H173090   2.616   3.503  14.014 -1.0318  0.8648 -0.9999
17225TIP3    H273091   2.551   3.370  14.047  1.8965 -0.4059 -0.0781
17226TIP3   OH273092   4.483   3.171   1.367  0.0481  0.4784 -0.5061
17226TIP3    H173093   4.518   3.246   1.415  0.4907 -0.1100  0.1034
17226TIP3    H273094   4.417   3.209   1.309  0.7113  1.4189 -0.6697
17227TIP3   OH273095   4.421   6.695  13.762 -0.1273  0.1011 -0.2889
17227TIP3    H173096   4.468   6.764  13.714 -0.3026  0.7561  0.4556
17227TIP3    H273097   4.422   6.620  13.703  2.6246 -0.2124 -0.0087
17228TIP3   OH273098   4.725   5.728  14.869  0.5732 -0.0368  0.2449
17228TIP3    H173099   4.704   5.687  14.785  2.5669 -0.4670 -0.0884
17228TIP3    H273100   4.750   5.818  14.846  0.4052  0.0768  0.4902
17229TIP3   OH273101   5.863   5.447   3.781 -0.6775  0.2439  0.3601
17229TIP3    H173102   5.878   5.452   3.876  2.0448 -1.6986  0.1497
17229TIP3    H273103   5.799   5.377   3.770  0.3409 -0.7898  0.7519
17230TIP3   OH273104   0.291   2.582   1.392  0.6829  0.4704  0.0921
17230TIP3    H173105   0.376   2.595   1.349  0.2702  0.4673 -0.7424
17230TIP3    H273106   0.227   2.604   1.325  0.0137 -0.0957  0.5358
17231TIP3   OH273107   0.380   1.494   4.716 -0.1139  0.0125  0.8242
17231TIP3    H173108   0.313   1.551   4.678  0.1278 -0.0733  0.2603
17231TIP3    H273109   0.332   1.433   4.771 -0.7772 -1.4595 -1.2579
17232TIP3   OH273110   2.423   4.243   0.433 -0.3089  0.1277  0.3829
17232TIP3    H173111   2.368   4.308   0.389  1.0595  0.0954 -1.5051
17232TIP3    H273112   2.363   4.172   0.457 -1.2290  0.4429 -0.8783
17233TIP3   OH273113   5.652   1.500   2.791 -0.2981 -0.3103 -0.3000
17233TIP3    H173114   5.698   1.577   2.758  1.9406 -0.7407  1.5848
17233TIP3    H273115   5.634   1.521   2.883 -1.0074 -1.4556 -0.1622
17234TIP3   OH273116   6.268   0.329  16.314 -0.1103  0.4357 -0.5383
17234TIP3    H173117   6.358   0.358  16.293  0.5590 -0.6093  0.7503
17234TIP3    H273118   6.249   0.371  16.398 -1.0715  1.0931 -1.0654
17235TIP3   OH273119   3.554   1.757   0.571  0.3057  0.1079  0.2484
17235TIP3    H173120   3.570   1.823   0.639 -0.2506 -0.5557  1.0543
17235TIP3    H273121   3.483   1.703   0.607  1.8180 -1.9055  0.3419
17236TIP3   OH273122   3.543   4.485  14.345  0.8875 -0.8677  0.2430
17236TIP3    H173123   3.475   4.465  14.280  1.0831 -1.1701  0.1296
17236TIP3    H273124   3.494   4.504  14.425  0.6367 -0.3436 -0.0257
17237TIP3   OH273125   2.934   5.818  13.056  0.0882 -0.1139  0.1842
17237TIP3    H173126   2.940   5.723  13.044  1.0539 -0.1162  0.5869
17237TIP3    H273127   3.010   5.853  13.008 -0.8439  0.5497 -0.8552
17238TIP3   OH273128   3.324   0.219   5.651  0.4968 -0.7660 -0.5928
17238TIP3    H173129   3.255   0.202   5.715  1.2865 -0.6262  0.3037
17238TIP3    H273130   3.404   0.227   5.702  0.9412  0.7619 -1.4515
17239TIP3   OH273131   3.956   4.508   2.477  0.2570 -0.3301  0.0210
17239TIP3    H173132   3.988   4.434   2.425  0.3390  0.4322 -1.0643
17239TIP3    H273133   3.986   4.585   2.428 -1.4715  0.4229  0.0657
17240TIP3   OH273134   0.593   4.236   2.965  0.2678 -0.0186  0.0428
17240TIP3    H173135   0.516   4.185   2.938  0.3011  0.0133 -0.1157
17240TIP3    H273136   0.590   4.236   3.060  0.4567 -0.6121  0.0516
17241TIP3   OH273137   5.106   3.975   0.435  0.3094 -0.4145 -0.3122
17241TIP3    H173138   5.189   4.020   0.420  0.8495 -1.3140 -0.0909
17241TIP3    H273139   5.131   3.887   0.462 -0.7234 -0.7268 -0.3333
17242TIP3   OH273140   5.790   5.898  14.193 -0.3355 -0.0869 -0.0089
17242TIP3    H173141   5.815   5.970  14.135  0.3187 -0.0839  0.2674
17242TIP3    H273142   5.823   5.820  14.148 -0.0049 -0.1030  0.2566
17243TIP3   OH273143   3.913   4.629  14.514 -0.0595 -0.1848  0.3791
17243TIP3    H173144   3.986   4.684  14.487  1.0183 -1.0809  1.3432
17243TIP3    H273145   3.890   4.579  14.435  1.1777 -0.7620  0.3650
17244TIP3   OH273146   3.370   6.075  10.569 -0.0837 -0.2156 -0.0002
17244TIP3    H173147   3.279   6.047  10.566  0.4334 -1.9158 -0.5650
17244TIP3    H273148   3.421   5.998  10.545  1.5828  0.4090  1.2615
17245TIP3   OH273149   3.610   5.731  15.309 -0.2423  1.0711 -0.3234
17245TIP3    H173150   3.631   5.677  15.232 -0.3031  2.6445 -1.4986
17245TIP3    H273151   3.533   5.689  15.347  1.8080 -1.8305  1.0707
17246TIP3   OH273152   6.714   1.883  12.981 -0.5690  1.0541  0.2493
17246TIP3    H173153   6.703   1.951  12.914  0.5085 -0.3420 -1.4050
17246TIP3    H273154   6.803   1.851  12.969 -1.4895 -1.6907 -0.0759
17247TIP3   OH273155   1.420   6.219  13.056 -0.0326  0.2938  0.8873
17247TIP3    H173156   1.343   6.188  13.103  0.3345 -1.5155  0.3757
17247TIP3    H273157   1.387   6.287  12.998 -1.3043 -0.5631  0.5487
17248TIP3   OH273158   0.628   5.006   5.446  0.0679  0.2124  0.3297
17248TIP3    H173159   0.609   4.917   5.416  0.7186 -0.0498  0.6848
17248TIP3    H273160   0.665   4.995   5.533 -0.8303  0.9089  0.8168
17249TIP3   OH273161   2.195   4.240  14.404  0.6152 -0.3679 -0.3574
17249TIP3    H173162   2.276   4.261  14.450  0.7600  1.2964 -1.2799
17249TIP3    H273163   2.208   4.151  14.372  1.3703 -0.7581  0.9302
17250TIP3   OH273164   2.488   5.661   5.613 -0.2063 -0.1676 -0.0084
17250TIP3    H173165   2.529   5.722   5.552 -0.5199  0.0770  0.0188
17250TIP3    H273166   2.482   5.711   5.695  0.5429 -0.6156  0.3314
17251TIP3   OH273167   1.442   2.575   4.936 -0.3432  0.4425 -0.6103
17251TIP3    H173168   1.419   2.603   4.847  0.2909  1.0130 -0.6030
17251TIP3    H273169   1.532   2.603   4.947  0.4474 -1.8741 -0.6791
17252TIP3   OH273170   5.991   6.326  11.827 -0.3980  0.5263  0.0860
17252TIP3    H173171   5.968   6.336  11.919 -1.9662 -1.8627  0.0228
17252TIP3    H273172   5.908   6.305  11.784  0.3476  1.3613 -1.8676
17253TIP3   OH273173   4.777   4.068   4.652  0.0065  0.9625 -0.5279
17253TIP3    H173174   4.778   4.100   4.743  1.1870 -1.0163  0.1951
17253TIP3    H273175   4.691   4.095   4.619 -0.5951  1.4211  1.2915
17254TIP3   OH273176   5.952   6.237   4.120 -0.5406 -0.4341 -0.4460
17254TIP3    H173177   5.978   6.174   4.053  2.6602 -0.0340  0.2374
17254TIP3    H273178   5.895   6.188   4.179  0.2257 -2.0896 -1.0314
17255TIP3   OH273179   4.413   4.156  13.987 -0.0894 -0.9293 -0.4495
17255TIP3    H173180   4.433   4.110  13.905 -1.6149 -4.0658  0.7560
17255TIP3    H273181   4.489   4.139  14.043  1.0138  1.3266 -1.1557
17256TIP3   OH273182   4.700   4.026  13.630  0.3059  0.3058  0.2439
17256TIP3    H173183   4.757   4.103  13.622  0.3213  0.3741  0.9183
17256TIP3    H273184   4.617   4.053  13.590  0.1813  0.8207  0.8314
17257TIP3   OH273185   5.884   2.731  15.361 -0.3952 -0.4644  0.1816
17257TIP3    H173186   5.945   2.761  15.294 -0.8986 -1.0269 -0.5355
17257TIP3    H273187   5.901   2.637  15.367 -0.9600 -0.5626  0.2227
17258TIP3   OH273188   5.766   6.603  10.524  0.0709  0.1594  0.2775
17258TIP3    H173189   5.815   6.593  10.443  1.2855  4.4587  0.2350
17258TIP3    H273190   5.832   6.602  10.593 -0.9171 -3.1338  1.3890
17259TIP3   OH273191   4.343   3.951   5.698  0.0426  0.1665 -0.0853
17259TIP3    H173192   4.247   3.954   5.696  0.0590  3.0752 -1.0047
17259TIP3    H273193   4.367   4.008   5.771  1.1543 -1.7149  1.1240
17260TIP3   OH273194   2.212   4.027   0.391  0.2511  0.0815  0.5270
17260TIP3    H173195   2.190   3.961   0.325  2.1334  0.5601 -0.6705
17260TIP3    H273196   2.137   4.029   0.450 -1.3834 -0.5739 -1.4334
17261TIP3   OH273197   6.761   3.014  11.918 -0.1514  0.3810 -0.8234
17261TIP3    H173198   6.678   2.982  11.955 -0.3860  1.2834 -0.5496
17261TIP3    H273199   6.738   3.042  11.830  0.3629 -1.5637 -1.6167
17262TIP3   OH273200   1.296   3.689  13.758 -0.0528 -0.5667 -0.1355
17262TIP3    H173201   1.345   3.608  13.747  0.1361 -0.5715  0.6929
17262TIP3    H273202   1.339   3.734  13.831 -0.6442 -0.0927 -0.0680
17263TIP3   OH273203   6.710   1.939   4.928 -0.2118 -0.5630 -0.7430
17263TIP3    H173204   6.737   1.906   5.014 -0.8645 -1.3605 -0.8357
17263TIP3    H273205   6.619   1.965   4.940  0.3393  1.4841 -0.6082
17264TIP3   OH273206   3.038   3.625  16.226 -0.0115  0.0230 -0.0005
17264TIP3    H173207   3.114   3.653  16.279  0.2152 -0.4635 -0.0565
17264TIP3    H273208   3.076   3.602  16.141  0.1065 -2.0638  0.5449
17265TIP3   OH273209   2.076   4.004  15.199 -0.3456  0.2070  0.2204
17265TIP3    H173210   1.992   4.018  15.156 -0.1682  1.3723  0.2043
17265TIP3    H273211   2.136   4.063  15.153 -0.3834  2.3854  2.6849
17266TIP3   OH273212   3.129   4.315   3.549 -0.2484  0.4487  0.5230
17266TIP3    H173213   3.196   4.251   3.573 -0.5093  0.3547  1.0327
17266TIP3    H273214   3.125   4.313   3.454  0.4530  0.4369  0.4905
17267TIP3   OH273215   2.678   6.200  12.855  0.1930 -0.0787  0.0034
17267TIP3    H173216   2.690   6.109  12.828 -1.4619 -0.5625  0.7845
17267TIP3    H273217   2.583   6.209  12.868  0.4711  1.3344  1.3427
17268TIP3   OH273218   6.417   2.107   1.815 -0.1790  0.5560  0.0581
17268TIP3    H173219   6.409   2.176   1.880 -0.3215 -0.4190  1.1057
17268TIP3    H273220   6.507   2.077   1.822 -0.7201 -0.9246  1.2855
17269TIP3   OH273221   3.327   2.014   3.812 -0.4513 -0.0021 -0.0108
17269TIP3    H173222   3.370   2.010   3.727  0.9179 -0.0866  0.6589
17269TIP3    H273223   3.316   1.923   3.838  1.6896 -0.0123  1.1015
17270TIP3   OH273224   5.889   0.380   2.407 -0.3697  0.7669 -0.8473
17270TIP3    H173225   5.967   0.407   2.457 -0.0908 -3.4907  1.5192
17270TIP3    H273226   5.915   0.299   2.364 -3.5634 -1.3070  0.6991
17271TIP3   OH273227   5.870   5.125   1.108  0.4901  0.3471  0.0594
17271TIP3    H173228   5.851   5.051   1.049  0.8207 -0.3458  0.7997
17271TIP3    H273229   5.865   5.087   1.196  3.4318  0.5165  0.3893
17272TIP3   OH273230   0.220   6.559   0.747  0.1907 -0.3090  0.3463
17272TIP3    H173231   0.246   6.475   0.784  0.3869  0.6979  2.6414
17272TIP3    H273232   0.255   6.558   0.658  1.6931 -1.9611  0.9114
17273TIP3   OH273233   6.173   1.671  15.543  0.3284 -0.2478 -0.6376
17273TIP3    H173234   6.252   1.649  15.591  2.0265 -0.1120 -3.1987
17273TIP3    H273235   6.190   1.643  15.453 -1.1986  2.7224 -2.0077
17274TIP3   OH273236   3.154   0.042   3.455  0.1825 -0.4801 -0.3141
17274TIP3    H173237   3.188   0.126   3.425  0.9835 -1.4708 -2.3778
17274TIP3    H273238   3.154  -0.013   3.377 -3.3145 -1.4959  0.2117
17275TIP3   OH273239   2.970   5.722  10.587  0.1412 -0.6298  0.0728
17275TIP3    H173240   2.879   5.698  10.570 -0.1216  0.3389  0.0226
17275TIP3    H273241   3.006   5.648  10.636 -0.5718 -1.1704 -0.2056
17276TIP3   OH273242   2.969   4.496   3.877 -0.3250 -0.1234 -0.6043
17276TIP3    H173243   2.938   4.466   3.792 -0.2000 -1.4192 -0.2182
17276TIP3    H273244   3.041   4.437   3.899  0.3876  0.8944 -0.0947
17277TIP3   OH273245   0.777   4.205  11.921 -0.0115  0.5886  0.0501
17277TIP3    H173246   0.811   4.287  11.884 -1.8960  1.5492  0.2990
17277TIP3    H273247   0.780   4.219  12.016 -0.9860  0.6903  0.0811
17278TIP3   OH273248   5.252   6.584  14.243 -0.3844  0.4576 -0.3013
17278TIP3    H173249   5.343   6.613  14.232 -0.7210  1.1073 -1.5917
17278TIP3    H273250   5.200   6.656  14.208 -1.4786  0.6973  1.7038
17279TIP3   OH273251   2.368   0.455  13.723 -0.4231  0.2438 -0.4851
17279TIP3    H173252   2.366   0.534  13.670 -2.0950  1.0067  0.6260
17279TIP3    H273253   2.456   0.453  13.761 -0.0689  1.0758 -1.2289
17280TIP3   OH273254   4.123   1.320   0.026  0.2331 -0.2455  0.0635
17280TIP3    H173255   4.039   1.367   0.018 -0.8871 -1.9042  1.3448
17280TIP3    H273256   4.110   1.240  -0.024  1.5076 -0.0128 -0.6779
17281TIP3   OH273257   1.082   4.304  17.011  0.7537  0.0467 -0.0720
17281TIP3    H173258   1.111   4.214  17.023  2.4000  0.2831 -1.8194
17281TIP3    H273259   1.156   4.358  17.039  1.1228  0.7353 -2.1683
17282TIP3   OH273260   5.076   5.766  17.134  0.0913  0.1762 -0.1249
17282TIP3    H173261   5.087   5.860  17.121 -1.2582  0.5540  1.2053
17282TIP3    H273262   5.063   5.756  17.228  0.7993 -1.4231 -0.1688
17283TIP3   OH273263   5.844   4.679   2.648  0.6480 -0.3212 -0.2825
17283TIP3    H173264   5.784   4.605   2.659  0.8309 -0.3825  0.2930
17283TIP3    H273265   5.882   4.694   2.734  2.1280 -0.8367 -0.8105
17284TIP3   OH273266   5.133   5.573  13.872  0.8108  0.7842 -0.3918
17284TIP3    H173267   5.057   5.630  13.881 -2.0401 -2.6284 -0.5722
17284TIP3    H273268   5.153   5.572  13.778  1.4669  2.0771 -0.2824
17285TIP3   OH273269   2.569   1.954   3.883 -0.4998 -0.2769  0.2567
17285TIP3    H173270   2.662   1.974   3.870 -0.3266 -0.0108  1.6927
17285TIP3    H273271   2.569   1.876   3.938 -1.1670 -1.6766 -1.6419
17286TIP3   OH273272   2.233   0.935   3.578 -0.3727 -0.3612 -0.1817
17286TIP3    H173273   2.268   0.927   3.489 -0.6202 -0.0013 -0.3120
17286TIP3    H273274   2.300   0.894   3.634  0.2878  0.3691 -0.4214
17287TIP3   OH273275   5.499   5.036  11.690  0.1543  0.7546 -0.9211
17287TIP3    H173276   5.454   5.019  11.608  0.4120  0.4525 -1.0023
17287TIP3    H273277   5.575   4.978  11.688  0.3936  1.0588 -0.6628
17288TIP3   OH273278   1.866   2.249  13.824 -0.0013  0.4817  0.3275
17288TIP3    H173279   1.831   2.211  13.904 -0.0725  0.2736  0.1975
17288TIP3    H273280   1.949   2.288  13.850 -1.5244  3.3956  1.2571
17289TIP3   OH273281   6.388   0.267  15.664 -0.0611 -0.2836 -0.6410
17289TIP3    H173282   6.310   0.310  15.699 -0.6601 -1.3673 -0.5989
17289TIP3    H273283   6.461   0.303  15.716 -0.1986  2.3437 -2.0630
17290TIP3   OH273284   3.042   3.584   4.767  0.3927 -1.1075  0.3738
17290TIP3    H173285   3.062   3.500   4.809  2.3263 -1.3458 -0.9030
17290TIP3    H273286   3.105   3.590   4.696 -1.2768  0.3437 -1.0536
17291TIP3   OH273287   6.670   3.689  14.124 -0.4805 -0.1020 -0.0280
17291TIP3    H173288   6.618   3.610  14.129 -0.2672 -0.3444 -1.3063
17291TIP3    H273289   6.640   3.733  14.045  1.2924 -0.3030 -0.8640
17292TIP3   OH273290   6.315   4.090   0.700 -0.4128  0.8859  0.3940
17292TIP3    H173291   6.381   4.050   0.643  0.1066  0.6561  1.1385
17292TIP3    H273292   6.256   4.019   0.724 -0.1653  0.8033  0.7765
17293TIP3   OH273293   4.498   5.110  11.873 -0.0007 -0.0056 -0.0350
17293TIP3    H173294   4.511   5.052  11.798  0.5383  0.7787 -0.5627
17293TIP3    H273295   4.586   5.142  11.894 -0.3163  0.8520  0.0472
17294TIP3   OH273296   3.599   6.433   5.573  0.2538 -0.1090 -0.3021
17294TIP3    H173297   3.545   6.410   5.498  2.0707 -1.3544 -1.2944
17294TIP3    H273298   3.539   6.429   5.648 -1.6751  1.5335 -1.6863
17295TIP3   OH273299   4.088   4.559   3.901 -0.6843  0.4295  0.0024
17295TIP3    H173300   4.062   4.472   3.931 -0.9334 -0.0228 -1.4379
17295TIP3    H273301   4.142   4.594   3.972 -1.0179 -0.6868  0.8258
17296TIP3   OH273302   5.372   6.640   0.453 -0.6479  0.1470  0.2757
17296TIP3    H173303   5.387   6.550   0.480  1.0734  0.7830  1.6450
17296TIP3    H273304   5.369   6.689   0.535 -1.0147  1.4100 -0.4654
17297TIP3   OH273305   5.514   4.918  15.542  0.3924 -0.3600  0.0065
17297TIP3    H173306   5.498   4.973  15.619 -4.3589 -0.2593 -0.7050
17297TIP3    H273307   5.486   4.831  15.569 -1.1212 -0.3711 -1.4114
17298TIP3   OH273308   1.724   1.997   1.704  0.1680 -0.0168 -0.0362
17298TIP3    H173309   1.811   1.971   1.675  0.1254  0.0486 -0.2196
17298TIP3    H273310   1.664   1.954   1.644  0.0683 -0.1470  0.1550
17299TIP3   OH273311   2.581   1.023   6.690  0.5055  0.1551 -0.1767
17299TIP3    H173312   2.490   1.030   6.663  1.0882  1.7792 -1.9477
17299TIP3    H273313   2.624   1.101   6.652  2.8365 -1.1087 -0.3452
17300TIP3   OH273314   6.674   0.271  15.827 -0.1357  0.5910 -0.0467
17300TIP3    H173315   6.602   0.307  15.879 -0.1230 -0.0266  0.4227
17300TIP3    H273316   6.745   0.258  15.891 -0.7625 -2.0023  0.2291
17301TIP3   OH273317   1.319   2.595  15.691 -0.2721  0.0773  0.1166
17301TIP3    H173318   1.319   2.515  15.743 -1.9987  0.4408  0.7428
17301TIP3    H273319   1.347   2.663  15.752  0.1582  0.1194 -0.1249
17302TIP3   OH273320   6.556   2.339   3.438  0.6336 -0.0330 -0.4554
17302TIP3    H173321   6.527   2.402   3.373 -0.3416 -0.7024 -0.6961
17302TIP3    H273322   6.614   2.388   3.496  0.9323  0.7431 -1.3989
17303TIP3   OH273323   4.890   5.305  11.724  0.3581  0.2779  0.2109
17303TIP3    H173324   4.868   5.257  11.644 -0.4159 -1.2921  1.3211
17303TIP3    H273325   4.909   5.394  11.693  0.0045 -0.2515 -1.7024
17304TIP3   OH273326   3.868   6.116  14.902 -0.4853 -0.4237  0.1522
17304TIP3    H173327   3.934   6.132  14.969 -1.3543  1.4492  0.6142
17304TIP3    H273328   3.792   6.167  14.930 -1.6640 -1.4331 -1.0789
17305TIP3   OH273329   0.697   1.191   4.607 -0.0227  0.5336 -0.1119
17305TIP3    H173330   0.603   1.178   4.602 -0.0512  0.4294  0.6374
17305TIP3    H273331   0.720   1.234   4.524 -0.5792 -0.2855 -0.6974
17306TIP3   OH273332   5.351   2.288   0.486 -0.3188 -0.1089  0.1849
17306TIP3    H173333   5.381   2.203   0.455  1.7847  1.0779 -1.2538
17306TIP3    H273334   5.257   2.287   0.470 -0.4362 -2.3085  0.6431
17307TIP3   OH273335   3.157   0.061  17.123 -0.3147 -0.3099  0.4959
17307TIP3    H173336   3.244   0.027  17.106 -1.0186 -1.9279 -0.0862
17307TIP3    H273337   3.164   0.155  17.106  1.3046 -0.3989  0.5166
17308TIP3   OH273338   0.365   3.469   4.248  0.8327  0.1547 -0.0243
17308TIP3    H173339   0.461   3.471   4.243  0.7635  1.1254 -1.3105
17308TIP3    H273340   0.339   3.561   4.241 -0.1027  0.3166  3.6385
17309TIP3   OH273341   4.471   0.109   4.730  0.5009 -0.1078 -0.0676
17309TIP3    H173342   4.543   0.102   4.667 -0.7510  0.3527 -1.6290
17309TIP3    H273343   4.413   0.036   4.709  0.8811 -0.9501  1.7050
17310TIP3   OH273344   2.689   1.574  16.776 -0.0129  0.1216  0.2817
17310TIP3    H173345   2.780   1.590  16.751  0.2394 -1.6821 -0.0493
17310TIP3    H273346   2.691   1.572  16.872  0.6514 -1.6633  0.2574
17311TIP3   OH273347   5.357   6.166  14.529 -0.7560 -0.6813 -0.1864
17311TIP3    H173348   5.415   6.107  14.482 -2.2212 -2.4978  0.1638
17311TIP3    H273349   5.370   6.144  14.621 -1.7914 -0.9468 -0.0882
17312TIP3   OH273350   2.706   6.212   3.232  0.3166  0.0017  0.2058
17312TIP3    H173351   2.801   6.200   3.233  0.3755  0.3079 -0.7297
17312TIP3    H273352   2.680   6.197   3.141 -0.3583  1.1652  0.1847
17313TIP3   OH273353   0.856   4.610  15.278  0.0446  0.0977  0.2805
17313TIP3    H173354   0.859   4.569  15.191  0.3252 -0.6355  0.6313
17313TIP3    H273355   0.787   4.563  15.325 -0.1275  0.5131  0.4446
17314TIP3   OH273356   1.513   1.097  13.530 -0.5656  0.4134 -0.0179
17314TIP3    H173357   1.535   1.190  13.533  0.1280  0.2299  1.3389
17314TIP3    H273358   1.418   1.094  13.536 -0.6335  1.0454 -0.6669
17315TIP3   OH273359   4.581   1.050   1.266 -0.8961  0.2969  0.1079
17315TIP3    H173360   4.581   0.961   1.303  1.6193  0.7763  1.5210
17315TIP3    H273361   4.636   1.042   1.187  0.8659  0.8544  1.2121
17316TIP3   OH273362   6.615   3.467   5.146 -0.3193  0.4813 -0.1040
17316TIP3    H173363   6.635   3.498   5.234  1.0024 -1.1950  0.2246
17316TIP3    H273364   6.522   3.487   5.134 -1.1292 -1.2114  2.5404
17317TIP3   OH273365   4.976   5.504  10.951  0.8068 -0.8468 -0.0938
17317TIP3    H173366   4.885   5.475  10.967  1.5249 -2.1862  2.1066
17317TIP3    H273367   5.012   5.517  11.039  2.3016  1.2723 -0.9577
17318TIP3   OH273368   1.277   2.857   1.025  0.4642 -0.1348  0.1606
17318TIP3    H173369   1.293   2.944   0.986  1.5067  1.1362  3.1002
17318TIP3    H273370   1.185   2.839   1.007  0.1025  1.7939 -0.1718
17319TIP3   OH273371   5.769   5.343  13.451 -0.4557  0.0516 -0.2656
17319TIP3    H173372   5.818   5.269  13.487  0.1350  0.0587 -1.0201
17319TIP3    H273373   5.686   5.306  13.423 -0.9668  0.0680  1.1782
17320TIP3   OH273374   5.519   3.508   5.117  0.1982  0.3209 -0.4640
17320TIP3    H173375   5.494   3.415   5.123 -0.4675  0.5260  0.0799
17320TIP3    H273376   5.590   3.509   5.053  0.0212 -0.5305 -0.6981
17321TIP3   OH273377   1.837   4.750   2.351 -0.0463 -0.0224  0.1711
17321TIP3    H173378   1.779   4.752   2.275 -1.3607 -3.2620  0.9188
17321TIP3    H273379   1.818   4.832   2.397 -2.3906  0.0908 -0.8196
17322TIP3   OH273380   1.946   5.673   3.224 -0.1907  0.6282 -0.3846
17322TIP3    H173381   1.915   5.652   3.136 -0.0356  1.4617 -0.6431
17322TIP3    H273382   1.972   5.765   3.219  0.9626  0.3499  0.2075
17323TIP3   OH273383   1.198   4.620  15.506 -0.5189  0.0991 -0.1541
17323TIP3    H173384   1.263   4.680  15.469 -0.4536 -0.2093 -0.5428
17323TIP3    H273385   1.149   4.587  15.431 -0.4051 -0.5087  0.0314
17324TIP3   OH273386   0.399   1.856   4.057 -0.3969  0.2709  0.0367
17324TIP3    H173387   0.474   1.915   4.050 -1.4208  1.4397 -1.8191
17324TIP3    H273388   0.337   1.888   3.992 -2.1365 -1.2345  0.8645
17325TIP3   OH273389   5.469   4.143   4.030  0.6813 -0.3190  0.5998
17325TIP3    H173390   5.417   4.070   3.996  0.3101 -0.2753  1.0702
17325TIP3    H273391   5.517   4.176   3.954  0.7233 -0.9462  0.3512
17326TIP3   OH273392   4.357   1.928  14.477  0.1012 -0.9501  0.2801
17326TIP3    H173393   4.415   1.985  14.527 -0.8261  0.6892 -0.4030
17326TIP3    H273394   4.370   1.955  14.386 -0.5669 -1.6530 -0.0360
17327TIP3   OH273395   2.171   3.438  12.015  0.4234 -0.0828  0.0394
17327TIP3    H173396   2.159   3.531  11.993  1.9161  0.5244  1.5110
17327TIP3    H273397   2.097   3.417  12.071  1.4354  1.1032  1.9848
17328TIP3   OH273398   0.986   0.888   2.429  0.0329  0.2589  0.3784
17328TIP3    H173399   0.906   0.835   2.430  1.1949 -1.5682  0.8818
17328TIP3    H273400   1.046   0.842   2.371  1.0018  1.1906  0.5957
17329TIP3   OH273401   6.682   6.734  11.171  0.4778 -0.0384  0.2972
17329TIP3    H173402   6.679   6.690  11.086  0.8933 -0.5997  0.5695
17329TIP3    H273403   6.735   6.812  11.156  0.3567 -0.0158 -0.0117
17330TIP3   OH273404   5.573   0.185  13.724  0.3974  0.1694 -0.3787
17330TIP3    H173405   5.663   0.218  13.718  0.0392  1.0730 -1.0349
17330TIP3    H273406   5.550   0.194  13.816  1.4478 -1.4076  0.0873
17331TIP3   OH273407   4.466   5.224   6.544  0.2033 -0.6048 -0.3732
17331TIP3    H173408   4.462   5.249   6.451  2.4173  1.0651 -0.0726
17331TIP3    H273409   4.444   5.304   6.591 -0.1596 -1.2553  0.5799
17332TIP3   OH273410   0.104   0.178  16.580 -0.0935 -0.4606  0.1949
17332TIP3    H173411   0.179   0.229  16.610  0.0972  0.2571 -1.4401
17332TIP3    H273412   0.034   0.200  16.642  0.4074  0.6318  0.3892
17333TIP3   OH273413   2.104   1.116   3.258 -0.1433 -0.3081 -0.2057
17333TIP3    H173414   2.015   1.133   3.226 -0.5553  0.4929  1.3133
17333TIP3    H273415   2.093   1.097   3.351  1.1867 -1.1727 -0.2081
17334TIP3   OH273416   0.959   1.751  15.880  0.2182  0.3877  0.1819
17334TIP3    H173417   0.920   1.836  15.857  0.2280  0.2423 -0.4000
17334TIP3    H273418   0.936   1.694  15.806 -0.7292 -0.4203  1.0738
17335TIP3   OH273419   2.373   0.417   1.584 -0.3591  0.3697 -0.3734
17335TIP3    H173420   2.392   0.324   1.571  0.9285  0.5469  0.0527
17335TIP3    H273421   2.458   0.460   1.574 -0.6660  1.3416  0.8990
17336TIP3   OH273422   0.292   3.904   3.156  0.4297 -0.2324 -0.1949
17336TIP3    H173423   0.331   3.975   3.106 -0.8290  0.9656  0.4353
17336TIP3    H273424   0.287   3.938   3.246  0.5147 -1.4238  0.2815
17337TIP3   OH273425   5.075   3.470   4.089 -0.0273  0.2106 -0.2667
17337TIP3    H173426   5.056   3.536   4.023 -0.3330  1.2555  0.8383
17337TIP3    H273427   5.021   3.494   4.164  0.1336 -1.0829  0.3020
17338TIP3   OH273428   4.475   5.203   0.510 -0.7607  0.3302  0.7480
17338TIP3    H173429   4.397   5.175   0.558 -1.3579 -1.6193 -1.1972
17338TIP3    H273430   4.531   5.125   0.507 -0.8881  0.2478 -1.8690
17339TIP3   OH273431   2.338   5.890   1.802  0.2423  0.4143 -0.7557
17339TIP3    H173432   2.311   5.828   1.734 -1.8322 -2.3880  2.2864
17339TIP3    H273433   2.394   5.838   1.860 -0.3755  1.7592  1.1522
17340TIP3   OH273434   5.920   5.706  11.786 -0.1739 -0.4987  0.0746
17340TIP3    H173435   5.828   5.716  11.809 -0.1282 -0.5740  0.2906
17340TIP3    H273436   5.954   5.795  11.784 -0.2686 -0.4652 -0.0811
17341TIP3   OH273437   4.918   3.232   2.751  0.0370 -1.0899  0.2417
17341TIP3    H173438   4.857   3.166   2.716 -0.4046  0.8402 -3.0353
17341TIP3    H273439   5.004   3.199   2.728  0.0985 -2.1012  1.7333
17342TIP3   OH273440   5.761   2.453   5.645 -0.1301  0.2937  0.2012
17342TIP3    H173441   5.701   2.510   5.695  0.9168  0.9180  0.7714
17342TIP3    H273442   5.705   2.411   5.579 -1.5929 -0.6146  1.9183
17343TIP3   OH273443   0.658   1.016   1.984  0.3283 -0.1810  0.4698
17343TIP3    H173444   0.635   1.081   1.918  0.0374  1.1896  1.8338
17343TIP3    H273445   0.749   0.994   1.965  0.3225  0.3807 -0.2470
17344TIP3   OH273446   6.252   5.303  12.498  0.2698  0.2237  0.7898
17344TIP3    H173447   6.179   5.292  12.438 -0.3860 -0.9640  1.7547
17344TIP3    H273448   6.235   5.388  12.540 -1.0129 -0.3888  1.5719
17345TIP3   OH273449   0.527   4.840  13.329 -0.7039  0.5019 -0.2699
17345TIP3    H173450   0.582   4.810  13.401 -0.2834  0.9517 -0.3996
17345TIP3    H273451   0.546   4.934  13.322 -0.3193  0.3573 -1.3254
17346TIP3   OH273452   3.781   3.597   5.486  0.2796  0.6079 -0.0319
17346TIP3    H173453   3.797   3.621   5.395 -0.1391  1.3223  0.0695
17346TIP3    H273454   3.721   3.664   5.518  2.2898  1.8257  1.4764
17347TIP3   OH273455   1.279   6.441   0.728 -0.1775  0.8598 -0.1781
17347TIP3    H173456   1.235   6.524   0.712 -1.6150  0.1481 -0.0890
17347TIP3    H273457   1.323   6.421   0.645 -0.3575  1.3897 -0.4068
17348TIP3   OH273458   2.989   2.659  11.833 -0.0698  0.7126 -0.3529
17348TIP3    H173459   3.006   2.742  11.790 -3.1601 -0.1294 -3.7667
17348TIP3    H273460   2.923   2.679  11.899 -0.1032  1.1523 -0.5183
17349TIP3   OH273461   3.416   3.404  11.703  0.1047  0.3214  0.4917
17349TIP3    H173462   3.339   3.349  11.688 -0.4150  1.0940  0.2985
17349TIP3    H273463   3.490   3.344  11.696 -0.4300 -0.2728 -0.1349
17350TIP3   OH273464   4.724   0.333  16.710  0.5536 -0.0523 -0.4243
17350TIP3    H173465   4.768   0.343  16.626 -1.3808  1.2047 -1.3446
17350TIP3    H273466   4.631   0.329  16.689 -0.0397  0.9369  1.6899
17351TIP3   OH273467   4.270   0.152  11.390 -0.3325  0.0191 -0.2141
17351TIP3    H173468   4.363   0.175  11.391 -0.3700  0.2300 -0.8860
17351TIP3    H273469   4.227   0.232  11.361 -0.8267  0.2298  1.0426
17352TIP3   OH273470   1.658   0.603   1.523  0.0221  0.2571 -0.6863
17352TIP3    H173471   1.744   0.632   1.493  0.4741  0.9013  1.0941
17352TIP3    H273472   1.654   0.511   1.498  2.6066 -0.7142  1.8692
17353TIP3   OH273473   4.685   2.678  14.729 -0.2226  0.1815  0.3038
17353TIP3    H173474   4.744   2.614  14.689 -0.9876  0.2814 -1.0387
17353TIP3    H273475   4.731   2.708  14.807  1.0399 -0.5147 -0.1529
17354TIP3   OH273476   6.453   3.864   6.791 -1.0012  0.3901 -0.1820
17354TIP3    H173477   6.501   3.817   6.722 -1.7016  1.7361 -1.6629
17354TIP3    H273478   6.366   3.878   6.754 -1.0382  2.1793  0.4984
17355TIP3   OH273479   0.974   6.069  13.999  0.2856  0.0826  0.5363
17355TIP3    H173480   1.066   6.093  14.012  0.3747  0.4013 -0.5412
17355TIP3    H273481   0.934   6.147  13.961 -0.7639  0.3993  2.2266
17356TIP3   OH273482   4.601   4.668   3.579  0.3059  0.5218  0.2988
17356TIP3    H173483   4.670   4.721   3.538 -0.8944  1.9041 -0.0395
17356TIP3    H273484   4.528   4.729   3.590 -0.2058 -0.3845  2.4510
17357TIP3   OH273485   3.122   5.358   6.224 -0.1279 -0.2489  0.1279
17357TIP3    H173486   3.041   5.394   6.187  0.2667 -0.5867 -1.1087
17357TIP3    H273487   3.120   5.385   6.316 -1.0540  0.7948 -0.1704
17358TIP3   OH273488   0.026   0.684   5.738  0.8353  0.0147  0.0992
17358TIP3    H173489   0.047   0.739   5.813  0.5748 -0.3703  0.4578
17358TIP3    H273490   0.083   0.717   5.668  0.6243  0.7904  0.2817
17359TIP3   OH273491   6.213   5.872   0.735 -0.5988  0.0130  0.1000
17359TIP3    H173492   6.286   5.854   0.795 -0.2516  1.8287  0.2688
17359TIP3    H273493   6.247   5.938   0.674 -1.2710 -1.0716 -1.5104
17360TIP3   OH273494   0.561   5.856   4.792  0.0016  0.2865  0.6521
17360TIP3    H173495   0.574   5.950   4.803  3.7795 -0.0714  0.5381
17360TIP3    H273496   0.500   5.849   4.719 -0.5037  2.6208  0.7680
17361TIP3   OH273497   0.531   1.061  16.300 -0.0761 -0.5272 -0.0292
17361TIP3    H173498   0.568   1.064  16.212  2.0201 -0.8096  0.7957
17361TIP3    H273499   0.587   1.001  16.348 -0.2206  0.8237  1.9194
17362TIP3   OH273500   6.673   3.634  13.406 -0.2815 -0.4939 -0.9232
17362TIP3    H173501   6.660   3.709  13.464 -0.2558 -0.6740 -0.6839
17362TIP3    H273502   6.713   3.567  13.462  0.1352 -0.5196 -1.2507
17363TIP3   OH273503   2.265   0.442   5.833 -0.1173  0.3437  0.2707
17363TIP3    H173504   2.338   0.384   5.810  0.4975  1.0561  0.3769
17363TIP3    H273505   2.292   0.528   5.801 -1.2174  0.4936 -0.2950
17364TIP3   OH273506   4.810   1.949   3.592  0.5979  0.2173 -0.4899
17364TIP3    H173507   4.821   2.043   3.608  1.4600  0.2856 -1.3949
17364TIP3    H273508   4.771   1.944   3.505 -0.7656 -0.2380  0.1292
17365TIP3   OH273509   3.422   5.001  12.380 -0.1355 -0.4221 -0.3342
17365TIP3    H173510   3.467   5.038  12.456  0.4982 -0.2124 -0.8048
17365TIP3    H273511   3.393   4.915  12.409 -0.7667  0.0317  0.4590
17366TIP3   OH273512   4.120   5.380   0.151 -0.6041  0.2903 -0.0811
17366TIP3    H173513   4.034   5.363   0.111 -0.6204 -2.1679  0.7934
17366TIP3    H273514   4.105   5.368   0.245  0.0177  3.2658  0.4805
17367TIP3   OH273515   4.588   3.632   3.614 -0.4563  0.4570  0.4783
17367TIP3    H173516   4.567   3.715   3.571  1.5392  1.1623  0.7353
17367TIP3    H273517   4.574   3.650   3.707  0.4245  0.6812  0.5773
17368TIP3   OH273518   1.573   1.850  16.825  0.0667 -0.3184  0.1365
17368TIP3    H173519   1.658   1.850  16.868  0.3098 -0.7411 -0.3274
17368TIP3    H273520   1.539   1.939  16.839  0.6503 -0.0956  0.1972
17369TIP3   OH273521   2.764   3.921   5.523  0.5281 -0.1379 -0.4789
17369TIP3    H173522   2.717   3.884   5.448  0.2168 -0.4460 -0.1336
17369TIP3    H273523   2.707   3.906   5.597  1.0728 -0.3165 -0.0883
17370TIP3   OH273524   3.358   3.790  16.019  1.0612  0.0999  0.0190
17370TIP3    H173525   3.312   3.734  15.956 -1.0542  1.8702 -0.1178
17370TIP3    H273526   3.428   3.831  15.967  2.5333 -2.1696  0.0828
17371TIP3   OH273527   2.130   2.906  10.753 -0.0458  0.4352  0.4502
17371TIP3    H173528   2.148   2.896  10.660  1.7151 -0.5154  0.8462
17371TIP3    H273529   2.078   2.987  10.759  1.5947  1.6953 -1.1674
17372TIP3   OH273530   6.419   6.289   0.514  0.1397 -1.1665  0.0598
17372TIP3    H173531   6.510   6.312   0.498  0.4700  0.1547  3.1511
17372TIP3    H273532   6.371   6.371   0.500 -0.1175 -1.1062  1.1616
17373TIP3   OH273533   2.020   0.801  14.674  0.2835  0.8706  0.2534
17373TIP3    H173534   2.073   0.803  14.754 -1.6805  2.4855  1.6185
17373TIP3    H273535   2.004   0.708  14.659  1.0077  0.5057  1.5237
17374TIP3   OH273536   3.685   2.295  15.629  0.0157  0.3737  0.3395
17374TIP3    H173537   3.684   2.201  15.647 -0.7225  0.3556  0.2536
17374TIP3    H273538   3.642   2.334  15.706 -2.3430  0.3756 -0.8804
17375TIP3   OH273539   3.386   6.304  13.860  0.0323 -0.1862  0.2696
17375TIP3    H173540   3.417   6.337  13.776  1.0407  0.5365  0.9031
17375TIP3    H273541   3.382   6.382  13.916 -1.6803 -0.4702  0.5941
17376TIP3   OH273542   6.768   6.291  14.862 -0.1394  0.2225  0.2714
17376TIP3    H173543   6.811   6.212  14.894 -0.7522 -0.5832 -0.8373
17376TIP3    H273544   6.675   6.274  14.871 -0.2845  0.7087 -0.2256
17377TIP3   OH273545   5.338   0.850   4.480  0.2669  0.3360  0.2253
17377TIP3    H173546   5.300   0.771   4.442 -0.6637  1.2949 -0.9204
17377TIP3    H273547   5.432   0.842   4.463 -0.0645  0.5234 -2.0162
17378TIP3   OH273548   0.079   6.495  13.630  0.0633  0.0894 -0.0180
17378TIP3    H173549   0.070   6.438  13.554  1.1204  1.1312 -0.9636
17378TIP3    H273550   0.139   6.449  13.689  0.6647  0.0808 -0.6324
17379TIP3   OH273551   0.927   0.267  16.767 -0.0002  0.1700  0.0489
17379TIP3    H173552   1.015   0.242  16.794 -0.6851 -2.5041  0.0681
17379TIP3    H273553   0.892   0.317  16.840  1.4158  1.1050  0.1111
17380TIP3   OH273554   2.413   3.753   2.721  0.2356  0.2059 -0.2743
17380TIP3    H173555   2.341   3.743   2.658  1.0366 -2.1458 -0.9197
17380TIP3    H273556   2.458   3.669   2.719  2.0063  1.0479  1.3771
17381TIP3   OH273557   6.321   6.757   2.303 -0.4979  0.4139  0.2524
17381TIP3    H173558   6.271   6.780   2.380 -0.7488 -0.2480  0.2948
17381TIP3    H273559   6.262   6.773   2.229 -1.0453 -1.0279  0.3446
17382TIP3   OH273560   1.753   4.789  14.376 -0.4355  0.1699  0.4118
17382TIP3    H173561   1.783   4.723  14.313 -1.9183 -0.0744 -0.0795
17382TIP3    H273562   1.662   4.766  14.392 -0.4148  0.9484  1.7557
17383TIP3   OH273563   0.405   1.233  11.887 -0.0658  0.3044  0.6044
17383TIP3    H173564   0.401   1.139  11.903 -2.0432  0.3345  0.4965
17383TIP3    H273565   0.451   1.268  11.963  0.0113 -0.6714  1.0176
17384TIP3   OH273566   6.028   5.101   6.595 -0.4242 -0.1622  0.0505
17384TIP3    H173567   6.023   5.190   6.629  0.5133  0.1119 -0.5026
17384TIP3    H273568   5.939   5.083   6.563 -0.6558  0.5223  0.2913
17385TIP3   OH273569   3.665   6.676  10.822 -0.4727 -0.1506 -1.1191
17385TIP3    H173570   3.657   6.593  10.868  1.1996 -0.1325 -0.7308
17385TIP3    H273571   3.701   6.653  10.736  0.3740  0.1801 -0.8676
17386TIP3   OH273572   2.706   0.428   3.561 -0.2870 -0.6362 -0.4269
17386TIP3    H173573   2.705   0.335   3.539 -0.1135 -0.9262  0.6973
17386TIP3    H273574   2.704   0.474   3.477  1.8410 -1.6549 -1.0897
17387TIP3   OH273575   5.311   6.022  15.907  0.4400 -0.0058 -0.4503
17387TIP3    H173576   5.225   5.985  15.888  0.4088  0.1143 -0.5422
17387TIP3    H273577   5.361   6.011  15.826  0.4915 -0.0199 -0.4169
17388TIP3   OH273578   4.827   1.970  14.729 -0.6346 -0.4600  0.2551
17388TIP3    H173579   4.916   1.947  14.702 -0.8098 -0.8309 -0.0090
17388TIP3    H273580   4.772   1.901  14.692 -1.0656 -0.0861  0.1911
17389TIP3   OH273581   2.535   3.506   6.311  0.6229  0.0958  0.0586
17389TIP3    H173582   2.564   3.566   6.379  0.0815  0.9907 -0.4834
17389TIP3    H273583   2.451   3.473   6.341 -0.2059  1.4354 -0.7209
17390TIP3   OH273584   1.736   5.450   3.883  0.2683 -0.3804  0.5712
17390TIP3    H173585   1.726   5.472   3.791  1.6183 -0.6414  0.3365
17390TIP3    H273586   1.669   5.383   3.899  0.5864 -0.9681 -0.4549
17391TIP3   OH273587   4.417   3.217   6.319 -0.0704  0.0661 -0.4552
17391TIP3    H173588   4.422   3.295   6.375 -0.7528 -0.3441  0.1882
17391TIP3    H273589   4.381   3.250   6.237 -1.0229  0.3106  0.0538
17392TIP3   OH273590   4.084   2.443   2.812  0.0882  0.2342 -0.5309
17392TIP3    H173591   4.080   2.355   2.850  1.4691  0.8959  1.2770
17392TIP3    H273592   4.098   2.428   2.718 -2.7671 -1.4572 -0.8190
17393TIP3   OH273593   4.683   1.604   5.514 -0.5209 -0.2312 -0.0835
17393TIP3    H173594   4.622   1.535   5.540 -1.2537 -1.0992 -3.5902
17393TIP3    H273595   4.768   1.560   5.507 -0.1283  0.2063  1.4858
17394TIP3   OH273596   1.641   6.088  14.203 -0.0014 -0.3169 -0.5374
17394TIP3    H173597   1.553   6.056  14.185 -0.6802  1.1007  0.1022
17394TIP3    H273598   1.634   6.183  14.192  0.8216  0.0788  1.9205
17395TIP3   OH273599   3.548   4.886   0.679 -0.5938  0.1772 -0.0105
17395TIP3    H173600   3.567   4.829   0.605 -0.3798  0.3188 -0.0640
17395TIP3    H273601   3.463   4.856   0.711 -0.3357 -0.3899  0.1646
17396TIP3   OH273602   5.033   5.735   0.681  0.1935  0.3307 -0.4115
17396TIP3    H173603   5.033   5.690   0.597 -1.1437 -0.2634 -0.1199
17396TIP3    H273604   5.021   5.828   0.659  0.6250  0.2709 -0.9072
17397TIP3   OH273605   6.669   4.520  12.573  0.2791  0.0449 -0.8482
17397TIP3    H173606   6.607   4.543  12.503  1.3055 -0.8030 -2.0693
17397TIP3    H273607   6.629   4.445  12.616  0.5331 -0.6311 -1.7647
17398TIP3   OH273608   5.993   2.341  16.729  0.0676 -0.5692  0.2693
17398TIP3    H173609   5.921   2.288  16.695 -0.4833  0.4131 -0.1433
17398TIP3    H273610   6.009   2.407  16.661 -0.3728  0.8102  1.4420
17399TIP3   OH273611   2.448   4.580  11.429  0.2817  0.2023  0.0957
17399TIP3    H173612   2.507   4.621  11.366  4.1816 -0.2454  3.0866
17399TIP3    H273613   2.430   4.647  11.495  0.0818 -0.5926  0.8855
17400TIP3   OH273614   1.787   4.509   4.156 -0.4832 -0.0283  0.2533
17400TIP3    H173615   1.738   4.590   4.143 -1.8422 -1.0486 -1.3407
17400TIP3    H273616   1.843   4.501   4.079  0.9121  0.2115  1.2041
17401TIP3   OH273617   5.564   2.679  12.391  0.1572  0.6426  0.1900
17401TIP3    H173618   5.529   2.594  12.363 -0.5875  0.1603  2.3805
17401TIP3    H273619   5.618   2.708  12.318  0.4448 -1.7262 -0.6315
17402TIP3   OH273620   3.958   5.520  16.050  0.0659 -0.6247 -0.1367
17402TIP3    H173621   3.925   5.550  15.966 -0.9680  0.0409  0.4770
17402TIP3    H273622   3.939   5.426  16.051 -0.3472 -0.5487 -0.4596
17403TIP3   OH273623   5.310   3.836   4.458  0.4207  0.0675 -0.0615
17403TIP3    H173624   5.395   3.826   4.502  0.1247  0.6215  0.6558
17403TIP3    H273625   5.246   3.817   4.526 -0.0419  0.5334 -0.3650
17404TIP3   OH273626   3.768   6.193  11.763  0.0569 -0.2365  0.4714
17404TIP3    H173627   3.722   6.209  11.681  2.5524 -0.7532 -1.1052
17404TIP3    H273628   3.840   6.256  11.764  1.5917 -1.9060  0.9773
17405TIP3   OH273629   2.841   0.120  10.951 -0.5070 -0.6013  0.2269
17405TIP3    H173630   2.936   0.109  10.954 -0.4010  0.1279 -0.2192
17405TIP3    H273631   2.808   0.033  10.931  0.0956 -0.7711 -0.0639
17406TIP3   OH273632   0.542   6.474  16.393  0.1027 -0.7962 -0.1235
17406TIP3    H173633   0.447   6.472  16.380  0.2392 -0.7377 -1.1580
17406TIP3    H273634   0.556   6.548  16.452 -0.3845 -0.0090 -0.9828
17407TIP3   OH273635   0.496   6.125  10.737 -0.0954  0.3486  0.4977
17407TIP3    H173636   0.580   6.136  10.692 -0.8023  0.4021 -0.8516
17407TIP3    H273637   0.475   6.032  10.729 -0.2555  0.3666  0.6804
17408TIP3   OH273638   5.910   6.506   4.989 -0.3070  0.7569  0.4332
17408TIP3    H173639   5.982   6.513   4.925  0.0708 -0.1563  0.7376
17408TIP3    H273640   5.838   6.556   4.949 -0.1055  0.1496 -0.7457
17409TIP3   OH273641   4.901   1.016   2.080  0.0597  0.1771  0.0307
17409TIP3    H173642   4.916   0.937   2.133  0.7354 -0.6715 -1.3729
17409TIP3    H273643   4.882   1.084   2.145 -2.1311 -1.4413  1.2439
17410TIP3   OH273644   5.473   3.028   4.545  0.0649 -0.2268 -0.0328
17410TIP3    H173645   5.391   3.036   4.497  0.4180  1.4056 -0.4326
17410TIP3    H273646   5.470   2.940   4.584 -2.3736  0.1914  0.9029
17411TIP3   OH273647   0.980   3.301  12.072  0.8019  0.4811 -0.4732
17411TIP3    H173648   0.964   3.371  12.135 -1.5666  0.0935 -0.5322
17411TIP3    H273649   1.072   3.276  12.085  0.2366 -0.1942  3.4641
17412TIP3   OH273650   6.472   1.724   4.914  0.2279 -0.2319  1.0857
17412TIP3    H173651   6.518   1.712   4.831  2.2901  0.1778  2.0868
17412TIP3    H273652   6.457   1.818   4.920 -0.7378 -0.3603  0.7842
17413TIP3   OH273653   2.924   0.446   6.232  0.5077  0.3689 -0.0818
17413TIP3    H173654   2.978   0.465   6.308  0.0563  0.3017  0.2545
17413TIP3    H273655   2.890   0.358   6.247 -0.3665  0.7346  0.1092
17414TIP3   OH273656   0.037   2.824  15.216  0.4745  0.0408 -0.3135
17414TIP3    H173657  -0.031   2.881  15.253  1.7642  1.7532 -0.4279
17414TIP3    H273658   0.109   2.830  15.279  0.9990 -0.6945 -0.8420
17415TIP3   OH273659   5.514   6.045   2.538  0.0654  0.1729 -0.1824
17415TIP3    H173660   5.470   5.960   2.547  1.8109 -0.5912  2.3276
17415TIP3    H273661   5.449   6.108   2.568 -0.5019 -0.5615  0.1791
17416TIP3   OH273662   4.008   0.679  17.210  0.0247  0.2519  0.0602
17416TIP3    H173663   4.030   0.622  17.284 -0.7356  0.0942  0.1641
17416TIP3    H273664   3.938   0.735  17.243  1.0888  1.6170  0.1246
17417TIP3   OH273665   2.956   2.028  11.968  0.1021 -0.6399  0.1409
17417TIP3    H173666   2.905   1.969  12.023 -0.8243  0.2785  0.3067
17417TIP3    H273667   2.917   2.114  11.984  2.9833  0.4658  1.8411
17418TIP3   OH273668   6.558   0.266  11.367 -0.0950  0.4854 -0.0774
17418TIP3    H173669   6.479   0.213  11.371 -0.2169  0.6539 -0.2389
17418TIP3    H273670   6.557   0.303  11.278  1.0406 -0.8906 -0.7117
17419TIP3   OH273671   2.834   4.000  10.662 -0.6057  0.5934 -0.2492
17419TIP3    H173672   2.902   3.979  10.598  0.3128 -1.3465  1.2394
17419TIP3    H273673   2.875   4.064  10.721  0.2302 -0.9968  0.9825
17420TIP3   OH273674   1.952   2.852  16.290 -0.1648 -0.1144  0.6717
17420TIP3    H173675   1.960   2.919  16.358 -0.5817  1.1163 -0.4539
17420TIP3    H273676   1.860   2.825  16.294 -0.5928  1.0966 -0.4068
17421TIP3   OH273677   4.916   0.496   5.471 -0.3001 -0.0574 -0.8451
17421TIP3    H173678   4.874   0.563   5.525  1.0900 -0.2040  0.5157
17421TIP3    H273679   4.844   0.441   5.440 -1.2565  0.7268 -0.0830
17422TIP3   OH273680   4.536   6.209   1.352  0.2150  0.9298 -0.2952
17422TIP3    H173681   4.553   6.136   1.293  0.2051  0.5250  0.1942
17422TIP3    H273682   4.463   6.180   1.406  0.5108  1.1131  0.2095
17423TIP3   OH273683   3.615   2.247   5.476 -0.3370 -0.4777 -0.0338
17423TIP3    H173684   3.659   2.308   5.417 -1.4640  0.5923  0.1754
17423TIP3    H273685   3.675   2.173   5.483  0.4825  0.0166 -1.3461
17424TIP3   OH273686   0.470   1.347  14.713 -0.0927 -0.3260  0.0101
17424TIP3    H173687   0.541   1.362  14.776  0.4563 -0.4903 -0.5552
17424TIP3    H273688   0.465   1.251  14.706 -1.6425 -0.3935  1.4483
17425TIP3   OH273689   6.509   1.515  14.516 -0.3343  0.0759 -0.3298
17425TIP3    H173690   6.420   1.509  14.482 -0.4951  1.6199 -0.2579
17425TIP3    H273691   6.565   1.503  14.439 -0.6295  0.2472 -0.5712
17426TIP3   OH273692   5.978   0.455  12.786  0.5213 -0.0277 -0.0122
17426TIP3    H173693   6.013   0.470  12.873 -3.7147  0.5138  1.8530
17426TIP3    H273694   6.012   0.528  12.734  2.0751  0.4007  1.4949
17427TIP3   OH273695   1.700   2.185   5.672 -0.0969  0.0490 -0.9140
17427TIP3    H173696   1.647   2.243   5.617 -0.0602 -0.1219 -1.1317
17427TIP3    H273697   1.685   2.217   5.762 -0.4258  0.1153 -0.9897
17428TIP3   OH273698   0.227   5.267  14.608 -0.4026  0.1950 -0.5334
17428TIP3    H173699   0.190   5.314  14.533  0.0699 -0.5043 -1.2160
17428TIP3    H273700   0.164   5.197  14.626  0.7481 -1.3015 -2.0051
17429TIP3   OH273701   6.670   3.417  15.699 -0.2308 -0.3592  0.1882
17429TIP3    H173702   6.627   3.471  15.633  2.7639  0.0206 -1.6627
17429TIP3    H273703   6.712   3.347  15.649  2.4864  0.1740  1.5004
17430TIP3   OH273704   0.697   1.979  12.500  0.6543 -0.2381  1.0376
17430TIP3    H173705   0.653   1.894  12.503  0.0266 -0.0156 -0.7301
17430TIP3    H273706   0.744   1.979  12.416 -0.9522  1.8916  0.0525
17431TIP3   OH273707   0.545   0.688   2.318 -0.3035  0.1422  0.1153
17431TIP3    H173708   0.566   0.781   2.307  1.6482 -0.4074 -1.5594
17431TIP3    H273709   0.451   0.682   2.303 -1.1487  2.2056  3.4003
17432TIP3   OH273710   6.233   0.601  12.148 -0.3709  0.7625  0.0966
17432TIP3    H173711   6.280   0.533  12.195 -0.2983  1.4211  0.9952
17432TIP3    H273712   6.250   0.582  12.055  0.0531 -0.1377  0.3522
17433TIP3   OH273713   0.091   5.630   2.310  0.1689 -0.0250 -0.4385
17433TIP3    H173714   0.141   5.588   2.379 -2.2801 -2.7917 -0.1566
17433TIP3    H273715   0.149   5.629   2.234  0.6799 -2.9973 -0.1191
17434TIP3   OH273716   4.623   4.170  16.668  0.3904  0.1531 -0.0275
17434TIP3    H173717   4.596   4.205  16.753  0.9467 -0.2354  0.3145
17434TIP3    H273718   4.545   4.178  16.613  0.1597  0.8272  0.3847
17435TIP3   OH273719   4.441   2.449   5.807  0.1578 -0.1290 -0.2907
17435TIP3    H173720   4.379   2.425   5.738  1.3073 -0.7534 -1.1288
17435TIP3    H273721   4.389   2.500   5.869 -1.2558 -0.8491 -0.8374
17436TIP3   OH273722   0.167   3.006  12.967  0.5266  0.1899  0.1556
17436TIP3    H173723   0.210   3.050  13.040 -0.5152  1.5540 -0.0185
17436TIP3    H273724   0.100   3.068  12.937  1.5383  0.1253 -2.5880
17437TIP3   OH273725   6.554   2.533  13.779  0.4403  0.0160 -0.5986
17437TIP3    H173726   6.573   2.627  13.774  0.3058  0.0037 -1.7017
17437TIP3    H273727   6.600   2.496  13.704  1.1985 -0.9375  0.3127
17438TIP3   OH273728   4.454   2.938   1.225  0.1720 -0.3052  0.3998
17438TIP3    H173729   4.526   2.876   1.237 -0.4817 -0.7984  2.1721
17438TIP3    H273730   4.471   3.007   1.288 -1.4974 -1.0663  1.8057
17439TIP3   OH273731   1.074   4.377  14.591 -0.1485 -0.4833  0.2346
17439TIP3    H173732   1.053   4.398  14.500 -2.1861 -0.3029  0.7046
17439TIP3    H273733   1.065   4.282  14.596  0.4652 -0.5536  0.1563
17440TIP3   OH273734   2.993   3.986  14.723 -0.0085  0.3662  0.2617
17440TIP3    H173735   3.014   4.053  14.658  1.4473  0.6776  1.0167
17440TIP3    H273736   2.987   4.034  14.806 -1.5771 -0.0662  0.4291
17441TIP3   OH273737   2.220   4.798  10.777  0.1982 -0.0738  0.0214
17441TIP3    H173738   2.233   4.884  10.816 -1.9106  0.8179 -1.1087
17441TIP3    H273739   2.207   4.740  10.852  1.0573  0.6587  0.7737
17442TIP3   OH273740   2.423   2.016   2.050  0.1996 -0.0324  0.1464
17442TIP3    H173741   2.342   1.971   2.026  1.1785 -1.4206 -0.7109
17442TIP3    H273742   2.435   2.082   1.982  0.6288 -0.9507 -0.6972
17443TIP3   OH273743   0.812   6.018   4.335  0.0082 -0.2768  0.0766
17443TIP3    H173744   0.717   6.026   4.342  0.2749  2.6957  1.9826
17443TIP3    H273745   0.834   5.944   4.391 -1.1181 -0.6817  0.0072
17444TIP3   OH273746   5.337   0.807  12.017 -0.1233 -0.3469 -0.2344
17444TIP3    H173747   5.409   0.856  11.977 -1.6983  1.3209 -1.1326
17444TIP3    H273748   5.364   0.797  12.109  1.2574  0.2070 -0.5443
17445TIP3   OH273749   6.008   4.677  14.400 -0.8400 -0.4329  0.3250
17445TIP3    H173750   6.038   4.613  14.464  0.4012 -2.4564 -2.0954
17445TIP3    H273751   6.066   4.752  14.411  0.1575 -1.2476  0.7913
17446TIP3   OH273752   0.955   2.848  13.010  0.4247 -0.2502  0.0772
17446TIP3    H173753   0.970   2.762  13.050 -1.7262 -0.6517  0.1631
17446TIP3    H273754   0.904   2.896  13.075  1.4638  1.0582 -0.0403
17447TIP3   OH273755   0.707   2.023  10.503 -0.0306 -0.4994  0.3027
17447TIP3    H173756   0.618   2.055  10.521 -1.2046 -2.7496 -0.9662
17447TIP3    H273757   0.720   1.951  10.565  0.1347 -1.3645 -0.7051
17448TIP3   OH273758   2.291   0.951  14.547  0.0204 -0.2348  0.1114
17448TIP3    H173759   2.328   0.922  14.631  0.6671  0.6534  0.1562
17448TIP3    H273760   2.261   1.040  14.564 -1.4495 -0.6482 -0.1506
17449TIP3   OH273761   0.886   4.075   1.584 -0.3451 -0.0973 -0.1193
17449TIP3    H173762   0.853   4.015   1.651  0.7863  1.9602  2.4888
17449TIP3    H273763   0.966   4.035   1.552 -1.2383 -1.4223 -0.7620
17450TIP3   OH273764   4.400   1.548  16.259 -0.8105  0.1047 -0.1139
17450TIP3    H173765   4.436   1.613  16.198  0.7622 -1.0078 -0.4314
17450TIP3    H273766   4.412   1.464  16.214 -0.9270 -0.6038  1.1364
17451TIP3   OH273767   0.067   2.258   5.393  0.4464  0.1367 -0.0936
17451TIP3    H173768   0.022   2.229   5.472  0.0901  0.2641 -0.2493
17451TIP3    H273769   0.150   2.210   5.394 -0.1863 -1.0215 -0.4187
17452TIP3   OH273770   3.633   2.769  12.008 -0.2428 -0.1851 -0.9051
17452TIP3    H173771   3.657   2.701  12.070  0.5178 -0.7797 -1.8252
17452TIP3    H273772   3.583   2.832  12.060 -0.4143 -1.1177  0.0979
17453TIP3   OH273773   1.347   4.203   6.142 -0.3249  0.2304 -0.4178
17453TIP3    H173774   1.417   4.141   6.162 -0.1121  0.4055 -0.6108
17453TIP3    H273775   1.281   4.188   6.210  0.6687  1.2797  0.8537
17454TIP3   OH273776   0.990   4.047  11.642 -0.0567 -0.1261  0.1175
17454TIP3    H173777   1.035   4.020  11.722  0.6579  0.7996  0.0385
17454TIP3    H273778   1.000   4.142  11.638 -0.9635 -0.0343 -0.5515
17455TIP3   OH273779   5.198   2.150  12.538  0.7366 -0.0924 -0.1178
17455TIP3    H173780   5.170   2.239  12.557  2.3951  0.3871  0.1942
17455TIP3    H273781   5.195   2.144  12.443 -0.9216 -0.2483 -0.0788
17456TIP3   OH273782   5.935   5.626   4.293  0.6785  0.1236  0.2177
17456TIP3    H173783   6.000   5.644   4.361  1.0146  2.2616 -0.5850
17456TIP3    H273784   5.866   5.577   4.338  3.2851 -3.3505  0.8521
17457TIP3   OH273785   4.039   4.316  16.590  0.2490  0.1046 -0.3296
17457TIP3    H173786   4.069   4.367  16.666 -2.3620 -0.0533  0.9257
17457TIP3    H273787   4.019   4.230  16.625 -2.2231  0.3901 -0.8294
17458TIP3   OH273788   3.823   6.701   1.780  0.0794  0.3609 -0.3203
17458TIP3    H173789   3.772   6.637   1.730 -1.2446 -0.2151  1.6438
17458TIP3    H273790   3.855   6.653   1.856 -0.2805  1.8166  0.7978
17459TIP3   OH273791   3.910   0.383  12.905 -0.0385 -0.1216 -0.2483
17459TIP3    H173792   3.932   0.391  12.812  1.3211 -0.3708  0.0368
17459TIP3    H273793   3.881   0.292  12.914  0.0804 -0.1749 -0.3842
17460TIP3   OH273794   6.464   5.533   3.435  0.3741  0.1376  0.1540
17460TIP3    H173795   6.529   5.521   3.504 -0.4395  1.2124  1.1503
17460TIP3    H273796   6.497   5.607   3.384 -1.2377  2.4632  2.2295
17461TIP3   OH273797   5.434   1.419   3.736  0.4945  0.1897 -0.1439
17461TIP3    H173798   5.483   1.346   3.698  0.5034 -1.1937  2.3506
17461TIP3    H273799   5.480   1.497   3.704  0.9226 -0.8690 -2.3028
17462TIP3   OH273800   1.669   4.564  14.710  0.4856  0.1775  0.0696
17462TIP3    H173801   1.738   4.534  14.650 -1.0826  0.6162 -2.0487
17462TIP3    H273802   1.612   4.619  14.657 -0.3396  1.6332  2.2879
17463TIP3   OH273803   1.034   2.794  16.258  0.2879  0.1820  0.0607
17463TIP3    H173804   0.967   2.857  16.284  2.1369  1.8186  1.0474
17463TIP3    H273805   1.034   2.729  16.328  1.0139  1.2082  1.0236
17464TIP3   OH273806   0.248   4.880  15.017 -0.2091  0.2967 -0.1018
17464TIP3    H173807   0.210   4.960  15.055 -0.0433  0.4981 -0.3530
17464TIP3    H273808   0.181   4.846  14.959  1.0271  2.3324 -2.9612
17465TIP3   OH273809   2.702   3.645   3.240  0.9292 -0.4573 -0.3133
17465TIP3    H173810   2.693   3.687   3.154 -0.0154  0.5692  0.2497
17465TIP3    H273811   2.636   3.689   3.294  1.2994 -1.3032  0.8550
17466TIP3   OH273812   0.180   0.831   2.034  0.5883 -0.3745  0.0572
17466TIP3    H173813   0.272   0.807   2.040  0.5142 -0.6980 -0.0570
17466TIP3    H273814   0.144   0.811   2.120  1.0638  1.6935  0.7778
17467TIP3   OH273815   4.568   6.355  16.540 -0.6088 -0.3331  0.1030
17467TIP3    H173816   4.540   6.347  16.450  1.0603 -3.4285 -0.2852
17467TIP3    H273817   4.514   6.292  16.589  1.1770 -1.6937  0.4414
17468TIP3   OH273818   5.731   4.364  12.924 -0.5687  0.5396  0.3196
17468TIP3    H173819   5.783   4.352  12.845 -1.7338 -2.1957 -0.1181
17468TIP3    H273820   5.795   4.390  12.990  0.7673  0.7570 -0.9954
17469TIP3   OH273821   1.080   4.506  12.971  0.1474 -0.2845  0.3473
17469TIP3    H173822   1.083   4.412  12.954 -3.9746 -0.5993  0.3914
17469TIP3    H273823   1.072   4.513  13.067  0.2498  0.1135  0.3302
17470TIP3   OH273824   6.671   5.692  15.001  0.2665 -0.6770  0.1141
17470TIP3    H173825   6.623   5.659  15.077 -1.6904 -2.6413 -1.8253
17470TIP3    H273826   6.615   5.762  14.966  0.5414 -0.6052 -0.1866
17471TIP3   OH273827   4.786   3.276   1.769 -0.1538 -0.3052  0.6659
17471TIP3    H173828   4.809   3.331   1.844 -0.2229 -1.6873  1.7307
17471TIP3    H273829   4.775   3.188   1.805 -0.5175 -0.9520 -0.9147
17472TIP3   OH273830   5.463   0.862   5.348  0.2137  0.5090 -0.0923
17472TIP3    H173831   5.520   0.850   5.272  0.7813 -1.0813  0.5349
17472TIP3    H273832   5.504   0.931   5.399  1.1920 -0.1194 -0.0098
17473TIP3   OH273833   5.821   5.525  13.244  0.5915 -0.3664  0.1372
17473TIP3    H173834   5.839   5.615  13.272  0.0279  0.2125 -1.2886
17473TIP3    H273835   5.804   5.478  13.326  2.6410  0.3868  1.0666
17474TIP3   OH273836   0.247   0.959   5.652  0.4146  0.1228  0.5995
17474TIP3    H173837   0.285   1.018   5.586 -2.3529  0.8659 -0.4544
17474TIP3    H273838   0.213   0.885   5.601 -1.3398  0.4724  1.2072
17475TIP3   OH273839   1.369   0.668  13.145  0.4198 -0.1404 -0.4206
17475TIP3    H173840   1.456   0.703  13.164  0.3682 -0.4490  0.4229
17475TIP3    H273841   1.353   0.605  13.215 -0.5809  0.0774 -0.4379
17476TIP3   OH273842   4.106   3.543  16.505 -0.4170 -0.0799 -0.2969
17476TIP3    H173843   4.117   3.604  16.432  2.4521 -0.2629 -0.1378
17476TIP3    H273844   4.035   3.580  16.557  0.9221  2.9581 -0.4393
17477TIP3   OH273845   4.197   5.065   3.696  0.3759  0.0530  0.3427
17477TIP3    H173846   4.222   4.992   3.752 -0.4030  1.2638  2.3626
17477TIP3    H273847   4.123   5.032   3.644  0.1522 -0.6501  1.0926
17478TIP3   OH273848   4.801   6.318  15.256 -0.0140  0.3252  0.3277
17478TIP3    H173849   4.796   6.244  15.196 -0.8543  0.7123 -0.1004
17478TIP3    H273850   4.804   6.278  15.343  1.3243 -0.2455  0.0466
17479TIP3   OH273851   6.481   2.663  16.411 -0.0059 -0.0939 -0.1122
17479TIP3    H173852   6.504   2.668  16.504 -0.3189 -0.3285 -0.0205
17479TIP3    H273853   6.490   2.753  16.379 -0.0283  0.0134  0.1800
17480TIP3   OH273854   3.074   3.404  16.630  0.0452 -0.4537 -0.3779
17480TIP3    H173855   3.097   3.494  16.606 -1.2758  0.4855  1.5540
17480TIP3    H273856   3.005   3.414  16.696  1.2704 -2.8260  1.4243
17481TIP3   OH273857   4.700   1.141  15.922  0.5641  0.6458 -0.5652
17481TIP3    H173858   4.776   1.156  15.865  0.6764  0.6286 -0.4206
17481TIP3    H273859   4.654   1.067  15.881  0.1582  1.1983 -1.1230
17482TIP3   OH273860   5.784   0.085  13.555 -0.4035 -0.0111  0.5511
17482TIP3    H173861   5.751   0.008  13.508  0.6035  0.0000 -0.1878
17482TIP3    H273862   5.868   0.056  13.591  0.3544  0.9680 -0.3791
17483TIP3   OH273863   4.254   6.766   2.227  0.4361  0.0719  0.2098
17483TIP3    H173864   4.196   6.838   2.252  1.0206  0.1370  1.4625
17483TIP3    H273865   4.338   6.808   2.210  1.1163 -0.4070  2.1552
17484TIP3   OH273866   2.368   1.861  15.425 -0.5189  0.0451  0.0982
17484TIP3    H173867   2.301   1.838  15.490 -0.6864 -0.3985 -0.2277
17484TIP3    H273868   2.446   1.881  15.477 -0.1510 -1.9496  0.3917
17485TIP3   OH273869   1.457   6.071   6.509  0.1005  0.2410 -0.1796
17485TIP3    H173870   1.463   5.981   6.478  1.5733 -1.1427  3.5111
17485TIP3    H273871   1.546   6.105   6.503 -0.0746  0.7725  0.1647
17486TIP3   OH273872   0.176   0.220   4.686  0.4992 -0.0310  0.7193
17486TIP3    H173873   0.116   0.231   4.613 -0.1401  0.1539  1.2592
17486TIP3    H273874   0.247   0.282   4.669 -0.0233  0.5565  0.6381
17487TIP3   OH273875   6.304   4.667  13.486  0.0868 -0.1103 -0.4288
17487TIP3    H173876   6.232   4.730  13.479  0.5456  0.3606 -0.9692
17487TIP3    H273877   6.298   4.635  13.576 -0.0477  0.8372 -0.0845
17488TIP3   OH273878   4.708   6.559   5.589  0.2226  0.0474  0.2587
17488TIP3    H173879   4.742   6.470   5.585  2.1390  0.6954  1.0774
17488TIP3    H273880   4.627   6.551   5.640 -0.2272 -1.3604 -0.6297
17489TIP3   OH273881   6.480   4.786  14.448 -0.6437  0.2710 -0.6062
17489TIP3    H173882   6.573   4.765  14.454 -1.1072 -2.1841 -0.7750
17489TIP3    H273883   6.478   4.875  14.414  1.6314  0.8074  0.4541
17490TIP3   OH273884   3.047   4.397  14.879 -0.3366  0.0315  0.0235
17490TIP3    H173885   3.031   4.447  14.799 -1.7408 -0.9696 -0.3628
17490TIP3    H273886   3.060   4.463  14.947  0.6552  0.9023 -0.9670
17491TIP3   OH273887   2.147   4.236   4.297 -0.1301  0.5704  0.1458
17491TIP3    H173888   2.162   4.311   4.239  1.4716  0.0566 -0.1590
17491TIP3    H273889   2.144   4.160   4.238 -0.1108  0.2145  0.5952
17492TIP3   OH273890   2.290   5.977  17.188  0.5392  0.5727 -1.1702
17492TIP3    H173891   2.228   5.933  17.246 -0.3525 -0.6128 -2.9236
17492TIP3    H273892   2.236   6.028  17.128  1.2911  0.2528 -2.1577
17493TIP3   OH273893   4.594   4.183  15.450  0.0476  0.3231  0.4984
17493TIP3    H173894   4.516   4.229  15.482  0.0916  0.2254  0.7540
17493TIP3    H273895   4.655   4.253  15.426 -0.9602  0.4599 -1.9296
17494TIP3   OH273896   4.118   3.470  11.320  0.1294 -0.3452  0.6666
17494TIP3    H173897   4.064   3.447  11.396 -0.6919  3.1754  1.3624
17494TIP3    H273898   4.055   3.487  11.250  0.6220 -0.1874  0.2568
17495TIP3   OH273899   6.460   3.142  16.330 -0.1890  0.1575 -0.2225
17495TIP3    H173900   6.506   3.173  16.409  0.6319 -0.1122 -0.5811
17495TIP3    H273901   6.391   3.085  16.363  0.6461 -0.5867  0.2741
17496TIP3   OH273902   0.283   3.365  10.494 -0.2930 -0.6484 -0.2401
17496TIP3    H173903   0.224   3.376  10.419 -1.7350  2.6735  1.2041
17496TIP3    H273904   0.236   3.307  10.554 -0.7430 -0.4206 -0.3707
17497TIP3   OH273905   0.535   4.865   1.020 -0.5373 -0.1554  0.3377
17497TIP3    H173906   0.512   4.953   0.989  1.2691 -0.1314 -1.0966
17497TIP3    H273907   0.598   4.881   1.090  0.8252 -0.2800 -0.8216
17498TIP3   OH273908   1.442   3.784  13.509  0.3117  0.1698  0.0791
17498TIP3    H173909   1.470   3.876  13.508 -0.2166  0.3490  0.9480
17498TIP3    H273910   1.381   3.778  13.582  2.0951 -1.4078  1.5564
17499TIP3   OH273911   1.235   2.480   6.884  0.4351  0.2621  0.1746
17499TIP3    H173912   1.189   2.542   6.828  0.9520  0.5444  0.0579
17499TIP3    H273913   1.313   2.527   6.913  1.1176 -0.5003 -0.3509
17500TIP3   OH273914   1.469   4.356  12.041  0.0814  0.3360  0.2047
17500TIP3    H173915   1.402   4.320  12.098 -2.0912  1.7019 -1.3296
17500TIP3    H273916   1.523   4.410  12.098 -2.0619  1.7292  1.0109
17501TIP3   OH273917   0.014   4.299  10.885 -0.8018 -1.0963 -0.8981
17501TIP3    H173918   0.093   4.288  10.939 -1.7768 -1.7375  0.4488
17501TIP3    H273919   0.046   4.295  10.795  0.8133 -0.4850 -0.3860
17502TIP3   OH273920   5.570   4.896  13.025  0.4254  0.4473 -0.9048
17502TIP3    H173921   5.602   4.955  12.957  0.0717  1.1460 -0.4751
17502TIP3    H273922   5.633   4.905  13.096  0.3821  0.2821 -0.8440
17503TIP3   OH273923   4.896   6.229  16.005 -0.1996 -0.2544 -0.2068
17503TIP3    H173924   4.983   6.265  16.022  0.1889 -0.6725 -1.2169
17503TIP3    H273925   4.908   6.173  15.928 -1.5625  0.4664 -0.9883
17504TIP3   OH273926   0.200   3.010  17.133 -0.1797 -0.0138  0.0632
17504TIP3    H173927   0.200   2.944  17.203  2.5666 -0.3313 -0.1554
17504TIP3    H273928   0.285   3.000  17.090 -0.9303  1.6352 -1.9626
17505TIP3   OH273929   6.454   1.544  15.439 -0.4486  0.2832  0.2001
17505TIP3    H173930   6.463   1.638  15.427 -1.3886  0.4087  0.4213
17505TIP3    H273931   6.491   1.506  15.359 -0.2738  0.8389  0.0141
17506TIP3   OH273932   1.823   3.664  12.206 -0.6795 -0.1211  0.2366
17506TIP3    H173933   1.771   3.664  12.125 -0.2626  0.7472 -0.0450
17506TIP3    H273934   1.863   3.751  12.209  1.2558 -0.9471  0.1178
17507TIP3   OH273935   1.970   2.601  14.293 -0.0818 -0.4491  0.0250
17507TIP3    H173936   1.949   2.692  14.314 -1.9979 -0.9526  0.5179
17507TIP3    H273937   1.912   2.549  14.349 -2.1421 -1.9063 -3.1685
17508TIP3   OH273938   5.818   1.636   4.710 -0.5074 -0.0732 -0.0510
17508TIP3    H173939   5.733   1.612   4.672 -0.6503 -1.0183  0.8073
17508TIP3    H273940   5.800   1.646   4.804  0.0828  0.9813 -0.0347
17509TIP3   OH273941   4.959   2.832   3.945  0.7680 -0.3787  0.1044
17509TIP3    H173942   4.880   2.841   3.893  0.4712 -0.2812  0.5742
17509TIP3    H273943   5.028   2.870   3.890  0.4281 -0.1041 -0.1338
17510TIP3   OH273944   1.615   0.057  12.241 -0.2473 -0.4630  0.4036
17510TIP3    H173945   1.634   0.130  12.182  2.7296 -0.5555  1.0842
17510TIP3    H273946   1.662   0.079  12.321  2.1214 -3.7403  0.1175
17511TIP3   OH273947   4.424   5.015   6.310  0.1073 -0.0192 -0.2169
17511TIP3    H173948   4.340   5.025   6.355  0.2808  0.1327  0.0773
17511TIP3    H273949   4.454   4.928   6.337  1.2343  0.9047  1.7297
17512TIP3   OH273950   0.731   1.658  13.557  0.3951 -0.3778 -0.5400
17512TIP3    H173951   0.773   1.675  13.472 -1.7227  0.7023 -1.4464
17512TIP3    H273952   0.637   1.666  13.539 -0.1080  0.0522  1.9559
17513TIP3   OH273953   4.514   6.518   3.880 -0.4315 -0.5399 -0.3637
17513TIP3    H173954   4.520   6.529   3.975 -0.8749 -1.4292 -0.2197
17513TIP3    H273955   4.589   6.567   3.845 -1.8954  2.3223  0.2143
17514TIP3   OH273956   3.845   6.203  12.606  0.9271 -0.2860 -0.2386
17514TIP3    H173957   3.832   6.141  12.678  0.7926  0.2786  0.2289
17514TIP3    H273958   3.758   6.215  12.567  0.7771  0.3307  0.2741
17515TIP3   OH273959   3.939   1.790   2.979 -0.0162  0.3666  0.4638
17515TIP3    H173960   3.980   1.741   3.051  0.8428  1.3044  0.6406
17515TIP3    H273961   3.860   1.828   3.018  0.1196  0.3587  0.7551
17516TIP3   OH273962   5.343   5.701   3.575 -0.7952 -0.4639  0.6274
17516TIP3    H173963   5.317   5.630   3.635 -0.1979 -0.0278  1.4315
17516TIP3    H273964   5.438   5.707   3.586 -1.0124  1.5912  1.8917
17517TIP3   OH273965   0.919   3.350  14.619 -0.0761  0.4668 -0.2217
17517TIP3    H173966   0.897   3.367  14.527  0.0689 -0.7576 -0.4967
17517TIP3    H273967   1.001   3.398  14.632  1.1969 -1.2268 -1.4504
17518TIP3   OH273968   1.556   6.181   0.517 -0.7078 -0.6246  0.4752
17518TIP3    H173969   1.641   6.138   0.529  0.7846  0.6403 -3.6971
17518TIP3    H273970   1.576   6.274   0.525 -1.6037 -0.3132 -0.6175
17519TIP3   OH273971   4.922   3.404   3.766 -0.9769 -0.6140  0.6147
17519TIP3    H173972   4.875   3.451   3.835 -1.8495 -3.4902  2.1698
17519TIP3    H273973   4.980   3.344   3.814 -1.3963 -2.4975 -1.1092
17520TIP3   OH273974   1.704   4.908  11.731  0.3968 -0.2583  0.7262
17520TIP3    H173975   1.729   4.958  11.808 -1.7330  0.3777  1.0842
17520TIP3    H273976   1.718   4.969  11.658 -0.2101  0.1415  0.9348
17521TIP3   OH273977   6.095   6.194  16.617  0.5305 -0.1825 -0.5488
17521TIP3    H173978   6.166   6.145  16.576 -0.4934 -0.1865 -2.4063
17521TIP3    H273979   6.019   6.137  16.609  0.4302 -0.5625  2.2194
17522TIP3   OH273980   0.611   0.389  13.849 -0.2857  0.2766  0.2081
17522TIP3    H173981   0.529   0.365  13.805 -0.8167 -0.7590  1.6793
17522TIP3    H273982   0.589   0.467  13.900 -1.4977 -1.8845  3.3870
17523TIP3   OH273983   5.879   2.431   3.207  0.1974  0.0330  0.2905
17523TIP3    H173984   5.807   2.378   3.239 -0.0534  0.3147  0.1940
17523TIP3    H273985   5.907   2.387   3.127 -0.9846  0.8573 -0.6114
17524TIP3   OH273986   0.098   6.454   2.509 -0.1681 -0.2533 -0.2307
17524TIP3    H173987   0.048   6.509   2.570 -1.7642 -0.7241 -1.0703
17524TIP3    H273988   0.055   6.466   2.425  2.9106  1.6130 -1.7470
17525TIP3   OH273989   2.933   2.923  14.249 -0.5208 -0.0136 -0.1148
17525TIP3    H173990   2.955   2.920  14.342  1.2721  1.9525 -0.4082
17525TIP3    H273991   2.938   2.832  14.221  1.5409 -0.3731  1.1847
17526TIP3   OH273992   4.641   0.820   1.436 -0.1358 -0.0946  0.1541
17526TIP3    H173993   4.593   0.748   1.394 -0.3484 -0.4915  1.0444
17526TIP3    H273994   4.579   0.857   1.499 -0.0090  0.8445 -0.2643
17527TIP3   OH273995   3.276   0.574   5.845  0.4965 -0.1726  0.2804
17527TIP3    H173996   3.290   0.542   5.934 -0.3109 -0.0754  0.4487
17527TIP3    H273997   3.185   0.554   5.826  1.1717 -2.0224 -1.2961
17528TIP3   OH273998   4.803   6.671   3.502  0.2241  0.4138  0.4077
17528TIP3    H173999   4.843   6.638   3.583  0.3263  0.3405  0.3274
17528TIP3    H274000   4.821   6.765   3.503  2.0748  0.1203 -0.5669
17529TIP3   OH274001   2.456   4.630   5.073 -0.0451 -0.4373  0.0055
17529TIP3    H174002   2.488   4.694   5.136  1.1975  0.0420 -1.0791
17529TIP3    H274003   2.530   4.572   5.057 -0.6011 -1.0559 -0.4020
17530TIP3   OH274004   3.319   5.645  17.079 -0.6171  0.6432  0.3831
17530TIP3    H174005   3.389   5.686  17.030 -0.4355  1.3778  1.2358
17530TIP3    H274006   3.363   5.600  17.151 -0.9932  0.8607  0.7537
17531TIP3   OH274007   1.827   1.227  13.989  0.2439 -0.4621 -0.1914
17531TIP3    H174008   1.793   1.161  13.929 -0.4603  0.0702 -0.3882
17531TIP3    H274009   1.789   1.309  13.958  0.5926 -0.0580  0.4422
17532TIP3   OH274010   4.201   3.304   4.005  0.1615 -0.2177  0.4848
17532TIP3    H174011   4.279   3.272   4.049  1.3886 -1.8938 -2.6235
17532TIP3    H274012   4.134   3.238   4.024  1.4159 -2.4178 -2.1009
17533TIP3   OH274013   2.936   4.158  16.994  0.7085 -0.2148  0.3435
17533TIP3    H174014   2.906   4.127  17.079 -1.5783  0.5646 -0.0804
17533TIP3    H274015   2.858   4.152  16.938  1.9907 -0.1790 -1.5492
17534TIP3   OH274016   6.204   6.754  15.369  0.4892  0.1088  0.3782
17534TIP3    H174017   6.149   6.801  15.431 -0.1734  1.0693 -0.8767
17534TIP3    H274018   6.239   6.680  15.418  0.3690  1.0942  2.0051
17535TIP3   OH274019   1.062   0.005   4.295  0.2353 -0.4291  0.1875
17535TIP3    H174020   1.108   0.084   4.267 -1.3627 -0.3267 -2.4685
17535TIP3    H274021   1.080  -0.001   4.389  3.2627  1.1144 -0.1621
17536TIP3   OH274022   1.371   0.487  16.424 -0.6394  0.0822  0.1070
17536TIP3    H174023   1.308   0.528  16.365 -0.7344 -0.6100 -0.2788
17536TIP3    H274024   1.318   0.443  16.490 -0.5746 -0.5716 -0.2648
17537TIP3   OH274025   6.568   0.631  12.046 -0.1648  0.5170  0.2738
17537TIP3    H174026   6.493   0.573  12.038 -0.9891  1.5757  0.1486
17537TIP3    H274027   6.560   0.668  12.134 -0.3493  1.3690 -0.0923
17538TIP3   OH274028   2.042   3.068  15.685  0.4916 -0.3912 -0.9758
17538TIP3    H174029   2.076   3.039  15.769  0.4118 -0.9564 -1.1277
17538TIP3    H274030   2.116   3.111  15.642  0.8174 -0.9655 -1.0065
17539TIP3   OH274031   5.949   5.368   0.785  0.2605 -0.1112 -0.4116
17539TIP3    H174032   5.940   5.277   0.814 -1.0725 -0.2279 -1.1139
17539TIP3    H274033   5.879   5.414   0.831 -0.0228  0.2578 -1.1989
17540TIP3   OH274034   3.245   3.265  15.421  0.1030 -0.0339  0.2147
17540TIP3    H174035   3.185   3.322  15.372  0.3589 -0.0557 -0.1332
17540TIP3    H274036   3.311   3.324  15.456  0.9334 -0.2080 -0.9820
17541TIP3   OH274037   6.285   4.478   2.424 -0.2139 -0.5467  0.0324
17541TIP3    H174038   6.194   4.504   2.413 -0.1989  0.2095  1.4937
17541TIP3    H274039   6.280   4.402   2.482  0.0505 -0.9368 -0.4512
17542TIP3   OH274040   3.601   0.676   2.744  0.2996  0.4741 -0.5768
17542TIP3    H174041   3.563   0.715   2.665  0.7804 -0.9589 -1.5399
17542TIP3    H274042   3.533   0.616   2.776 -0.6489  2.3573  1.1971
17543TIP3   OH274043   2.278   5.425  17.088 -0.3145  0.9266 -0.2926
17543TIP3    H174044   2.218   5.443  17.160 -0.7464  0.7749 -0.6090
17543TIP3    H274045   2.230   5.452  17.009 -0.0314  0.6557 -0.5607
17544TIP3   OH274046   0.406   0.414  13.264  0.0955 -0.3733 -0.1633
17544TIP3    H174047   0.351   0.370  13.329 -0.3738 -0.3526 -0.5403
17544TIP3    H274048   0.489   0.429  13.309 -0.2831 -0.1947  0.4883
17545TIP3   OH274049   3.125   5.307  16.139  0.4753  0.1690  0.0273
17545TIP3    H174050   3.147   5.279  16.050 -0.9153  1.0786 -0.6482
17545TIP3    H274051   3.119   5.226  16.189  1.5303 -0.3345 -0.6422
17546TIP3   OH274052   3.708   2.943  16.661  0.1056 -0.6275 -0.1186
17546TIP3    H174053   3.783   2.901  16.619 -1.6181 -5.2652  0.8609
17546TIP3    H274054   3.641   2.946  16.593  0.0376  0.1309 -0.0243
17547TIP3   OH274055   3.626   2.693  13.957 -0.1111  0.4600  0.1778
17547TIP3    H174056   3.613   2.612  14.005  0.7389  1.0366  1.4488
17547TIP3    H274057   3.598   2.674  13.867 -0.4729 -1.0430  0.5974
17548TIP3   OH274058   1.766   0.914   3.844  0.0135  0.5047  0.0020
17548TIP3    H174059   1.730   0.965   3.771 -0.3978 -3.1906 -2.6680
17548TIP3    H274060   1.689   0.884   3.892 -0.0672 -0.9140 -0.9592
17549TIP3   OH274061   4.241   5.439  11.437 -0.7525 -0.1007 -0.1625
17549TIP3    H174062   4.180   5.499  11.480 -0.1835  1.1185 -1.0109
17549TIP3    H274063   4.194   5.407  11.360 -0.4790  0.5532 -0.6127
17550TIP3   OH274064   5.392   4.047  15.044  0.0183  0.1966 -0.1669
17550TIP3    H174065   5.479   4.084  15.035 -0.4704  1.2004 -0.9813
17550TIP3    H274066   5.370   4.015  14.956  0.3911 -2.0507  0.4748
17551TIP3   OH274067   6.365   0.548   3.847 -0.1347  0.0541  0.0175
17551TIP3    H174068   6.271   0.544   3.834 -0.0665  1.2023 -0.9459
17551TIP3    H274069   6.403   0.524   3.763  0.4082  0.7868  0.0390
17552TIP3   OH274070   1.973   4.926   6.435  0.0260  0.1220  0.0081
17552TIP3    H174071   1.943   4.898   6.522 -0.9485  1.4251  0.1355
17552TIP3    H274072   2.068   4.918   6.438 -0.0456 -0.4441  0.9851
17553TIP3   OH274073   5.131   6.172   5.921 -0.3730  0.4240  1.0909
17553TIP3    H174074   5.096   6.161   6.009  0.2698 -0.5930  1.2376
17553TIP3    H274075   5.213   6.123   5.921 -1.2685 -1.2233 -0.5891
17554TIP3   OH274076   4.986   3.092   5.110  0.0258 -1.1466  0.4442
17554TIP3    H174077   5.011   3.084   5.202 -1.2035 -1.4518  0.7659
17554TIP3    H274078   5.062   3.134   5.068  0.7612 -1.3799  1.5081
17555TIP3   OH274079   4.428   5.543   3.060  0.0988  0.3363  0.0068
17555TIP3    H174080   4.421   5.447   3.057  0.0147  0.3341  0.2497
17555TIP3    H274081   4.378   5.568   3.137  1.1737  0.4768  0.6820
17556TIP3   OH274082   3.728   6.581  16.572  0.0361 -0.2998  0.0824
17556TIP3    H174083   3.683   6.611  16.651 -1.8303  0.6606 -1.2604
17556TIP3    H274084   3.817   6.616  16.580 -0.8793  2.1231  0.5551
17557TIP3   OH274085   5.419   3.514   1.626  0.2217  0.1961 -0.0749
17557TIP3    H174086   5.461   3.432   1.600  1.9015  0.8954  0.3192
17557TIP3    H274087   5.471   3.546   1.699  0.5524  2.3838 -1.2039
17558TIP3   OH274088   5.937   2.223   4.425 -0.5997 -0.5910  0.1319
17558TIP3    H174089   6.009   2.166   4.397 -0.3177  0.4944 -1.4667
17558TIP3    H274090   5.944   2.225   4.521  2.1624  0.3038 -0.0177
17559TIP3   OH274091   1.110   3.923   1.504 -0.2303 -0.0763 -0.7667
17559TIP3    H174092   1.102   3.827   1.497 -0.5969  0.0385 -2.3824
17559TIP3    H274093   1.200   3.937   1.531 -0.7842 -0.9238  1.7794
17560TIP3   OH274094   2.719   3.318  11.514 -0.5735  0.0046  0.1189
17560TIP3    H174095   2.642   3.376  11.517 -0.8874 -0.3826 -0.4332
17560TIP3    H274096   2.695   3.249  11.453 -0.9947 -1.8575  2.2465
17561TIP3   OH274097   5.432   3.199   4.898  0.8510 -0.4717 -0.3250
17561TIP3    H174098   5.488   3.121   4.903  1.4318 -0.0258  0.4658
17561TIP3    H274099   5.467   3.248   4.824  1.2650 -0.3893 -0.0816
17562TIP3   OH274100   2.472   3.764   3.336  0.6160 -0.0445 -0.0475
17562TIP3    H174101   2.498   3.791   3.424 -1.0674 -2.0352  1.1572
17562TIP3    H274102   2.463   3.846   3.287  5.3807  0.9999  0.3621
17563TIP3   OH274103   2.646   1.910  13.992 -0.0839  0.8097 -0.1032
17563TIP3    H174104   2.621   1.838  13.935 -1.1084  0.1686  1.0983
17563TIP3    H274105   2.733   1.885  14.025 -0.1960  0.3873 -0.1167
17564TIP3   OH274106   1.648   3.101  13.285  0.4035 -0.1851 -0.0264
17564TIP3    H174107   1.708   3.071  13.353  0.6301 -1.7464 -0.8548
17564TIP3    H274108   1.691   3.075  13.203 -1.2490 -1.0812 -0.6511
17565TIP3   OH274109   1.435   0.032  16.509  0.8873 -0.4515  0.7784
17565TIP3    H174110   1.370  -0.020  16.557 -0.0616 -1.6716 -1.6593
17565TIP3    H274111   1.385   0.104  16.471  1.3787 -0.1905  0.6221
17566TIP3   OH274112   1.537   4.492  15.100  0.7842  0.2180 -0.2491
17566TIP3    H174113   1.557   4.546  15.177 -2.0611 -1.4100  1.8175
17566TIP3    H274114   1.582   4.409  15.117  2.7481  0.8373 -2.0036
17567TIP3   OH274115   1.877   5.584  11.792 -0.5366  0.1673 -0.0281
17567TIP3    H174116   1.896   5.571  11.885  0.0307  1.3023  0.0337
17567TIP3    H274117   1.962   5.602  11.753 -0.6909 -0.8425 -0.8888
17568TIP3   OH274118   4.536   0.621  12.472  0.1398  0.3338  0.0623
17568TIP3    H174119   4.494   0.535  12.470 -0.0349  0.3641  1.4277
17568TIP3    H274120   4.541   0.647  12.380  1.6650 -1.8409 -0.5617
17569TIP3   OH274121   3.480   4.476   6.629 -0.1568 -0.1063 -0.2467
17569TIP3    H174122   3.473   4.570   6.612  1.2777  0.0260 -0.2355
17569TIP3    H274123   3.573   4.461   6.646 -0.6814 -1.1367  2.1423
17570TIP3   OH274124   3.203   3.925  13.886 -0.5701 -0.2673  0.0507
17570TIP3    H174125   3.114   3.928  13.849 -0.3543  1.1206 -0.4281
17570TIP3    H274126   3.258   3.895  13.813 -0.4207  0.5739 -0.1996
17571TIP3   OH274127   4.841   4.676  12.691  0.3189 -0.3985 -0.4083
17571TIP3    H174128   4.904   4.634  12.633  0.7163 -0.3946  0.0144
17571TIP3    H274129   4.835   4.618  12.767 -0.4189 -0.5562 -0.5750
17572TIP3   OH274130   4.502   0.835   0.803 -0.7889  0.2367 -1.0316
17572TIP3    H174131   4.497   0.901   0.734  1.1549  3.7855  1.8609
17572TIP3    H274132   4.422   0.847   0.853  0.4223  1.9892  0.6290
17573TIP3   OH274133   3.946   1.781  17.232 -0.7923 -0.0715 -0.3301
17573TIP3    H174134   3.928   1.766  17.139 -0.8625 -0.3516 -0.2727
17573TIP3    H274135   4.001   1.859  17.233 -1.9305  0.7554 -0.5069
17574TIP3   OH274136   1.800   2.628   0.622  0.3022 -0.0445 -0.3577
17574TIP3    H174137   1.712   2.614   0.589 -0.5468  0.5293  1.5738
17574TIP3    H274138   1.857   2.610   0.546 -1.4446 -0.3118 -1.6588
17575TIP3   OH274139   2.253   4.682  15.760  0.2515  0.0559  0.6719
17575TIP3    H174140   2.212   4.627  15.693  1.0466  0.6508 -0.3300
17575TIP3    H274141   2.276   4.763  15.714 -2.4877  2.0377  2.4910
17576TIP3   OH274142   4.003   1.014  14.835  0.3673 -0.1533 -0.1851
17576TIP3    H174143   3.985   1.076  14.905 -1.3956 -1.3404  0.4601
17576TIP3    H274144   4.058   1.063  14.774 -0.6253  1.9164  0.4939
17577TIP3   OH274145   1.063   2.084  12.494 -0.3238  0.1025  0.0574
17577TIP3    H174146   0.974   2.114  12.476 -1.0136 -0.5082  2.1623
17577TIP3    H274147   1.111   2.163  12.517 -0.2814  0.4311 -1.0660
17578TIP3   OH274148   6.723   5.494  16.307  0.0826  0.3823 -0.4372
17578TIP3    H174149   6.746   5.552  16.379 -0.1831 -0.1680  0.0991
17578TIP3    H274150   6.698   5.412  16.349  0.8796 -0.2733 -1.1940
17579TIP3   OH274151   0.123   0.123   4.020  0.1328  0.4929  0.1561
17579TIP3    H174152   0.090   0.211   4.002 -0.9490  0.2828  1.0313
17579TIP3    H274153   0.215   0.125   3.992  0.4129  2.2024  1.0906
17580TIP3   OH274154   6.388   0.111   2.560  0.4942  0.2148  0.1341
17580TIP3    H174155   6.294   0.103   2.576  0.3245 -1.2711 -1.3276
17580TIP3    H274156   6.425   0.030   2.593  0.8908 -0.3189 -1.5302
17581TIP3   OH274157   4.690   4.075  15.729  0.1622 -0.0580  0.8691
17581TIP3    H174158   4.606   4.039  15.702  0.9165 -1.0014 -0.3041
17581TIP3    H274159   4.668   4.147  15.788 -1.5347  0.8855 -0.8115
17582TIP3   OH274160   4.973   2.516   3.934  0.0154  0.0197  0.1058
17582TIP3    H174161   5.015   2.568   3.865 -1.6549  1.2353 -0.0786
17582TIP3    H274162   4.887   2.557   3.945 -0.4446 -1.2650  1.6742
17583TIP3   OH274163   4.534   0.749  14.546 -0.4730 -0.8421 -0.2786
17583TIP3    H174164   4.571   0.752  14.634  0.9887  0.6980 -0.8781
17583TIP3    H274165   4.466   0.683  14.551  0.8737 -2.2106  1.4989
17584TIP3   OH274166   6.651   0.796  15.985 -0.3563 -0.3950  0.3473
17584TIP3    H174167   6.562   0.787  16.020 -0.2558  1.0815  1.0271
17584TIP3    H274168   6.699   0.722  16.023 -1.4522 -1.6554 -0.6308
17585TIP3   OH274169   6.093   6.239  15.215 -0.0130  0.1011 -0.1387
17585TIP3    H174170   6.092   6.329  15.246 -0.8196 -0.1409  0.5922
17585TIP3    H274171   6.045   6.241  15.133  2.3030  0.7837 -1.5728
17586TIP3   OH274172   6.053   3.482   4.310 -0.3556  0.1107 -0.2220
17586TIP3    H174173   6.114   3.486   4.238 -0.2846  0.5640 -0.1382
17586TIP3    H274174   5.998   3.560   4.301  0.1724  0.6039  0.6683
17587TIP3   OH274175   2.712   4.692   0.451 -0.4365  0.4314  0.0725
17587TIP3    H174176   2.629   4.646   0.462 -0.9546  1.4324  0.4636
17587TIP3    H274177   2.768   4.629   0.405 -1.5670 -0.0735 -0.6548
17588TIP3   OH274178   2.779   3.775  15.500  0.2089 -0.7283 -0.5324
17588TIP3    H174179   2.802   3.701  15.443  0.6154 -1.1433  0.1514
17588TIP3    H274180   2.850   3.837  15.489 -0.9317  0.3445 -2.3755
17589TIP3   OH274181   4.971   1.344  14.968  0.2528 -0.2070  0.7580
17589TIP3    H174182   4.959   1.439  14.974 -0.7660 -0.3814  1.6057
17589TIP3    H274183   4.954   1.324  14.876  3.4224  0.7953 -0.1711
17590TIP3   OH274184   5.741   4.317   1.119 -0.2661 -0.1885  0.2214
17590TIP3    H174185   5.736   4.292   1.027  2.3569  2.2045 -0.6799
17590TIP3    H274186   5.678   4.388   1.128 -2.6157 -2.2171  1.1050
17591TIP3   OH274187   4.648   6.671   0.053  0.1478 -0.1003 -0.2393
17591TIP3    H174188   4.739   6.699   0.040 -0.3241  2.3766  1.0628
17591TIP3    H274189   4.597   6.725  -0.007 -0.6747  0.8330  1.2168
17592TIP3   OH274190   6.442   1.020  11.144 -0.2188  0.5693 -0.0501
17592TIP3    H174191   6.397   1.029  11.228 -1.0590 -0.5461 -0.3563
17592TIP3    H274192   6.509   0.953  11.160 -0.0309  0.7307 -0.1477
17593TIP3   OH274193   6.263   5.822  11.526 -0.4996  0.2173 -0.0616
17593TIP3    H174194   6.257   5.899  11.583  2.4816  1.6697 -1.5109
17593TIP3    H274195   6.186   5.829  11.469 -0.6173  1.7862  0.2459
17594TIP3   OH274196   4.471   5.221  16.973 -0.5457  0.2580  0.6048
17594TIP3    H174197   4.411   5.295  16.983 -1.5032 -0.5558  1.0381
17594TIP3    H274198   4.548   5.259  16.929 -1.9030  1.0767 -1.1984
17595TIP3   OH274199   5.506   1.987   5.654  0.5245 -0.3118  0.2367
17595TIP3    H174200   5.439   2.043   5.694  0.5973  2.1990 -2.8059
17595TIP3    H274201   5.572   1.976   5.723 -0.8786  0.9650  1.8659
17596TIP3   OH274202   0.802   6.394  10.631 -0.2653  0.5937  0.2047
17596TIP3    H174203   0.823   6.411  10.540 -1.0125  1.0629  0.1093
17596TIP3    H274204   0.798   6.298  10.637 -2.2547  0.5593 -0.7718
17597TIP3   OH274205   6.211   3.841   1.852 -0.0960 -0.1070 -0.2882
17597TIP3    H174206   6.151   3.767   1.844 -0.0405 -0.0954 -0.8646
17597TIP3    H274207   6.161   3.917   1.823 -0.1574  0.0897  0.3156
17598TIP3   OH274208   4.305   6.062  10.744 -1.0522 -0.7868 -0.0160
17598TIP3    H174209   4.399   6.073  10.756 -1.4008  0.1393  2.5714
17598TIP3    H274210   4.296   5.986  10.686  1.2603  0.1542 -1.7686
17599TIP3   OH274211   6.728   4.497   3.656  0.2948 -0.3393  0.1908
17599TIP3    H174212   6.706   4.451   3.737  2.2017 -0.6285  0.5877
17599TIP3    H274213   6.701   4.588   3.672 -1.6766 -0.8591  0.1421
17600TIP3   OH274214   4.398   6.608  13.141 -0.0218  0.1428  0.1286
17600TIP3    H174215   4.414   6.623  13.048  0.5582  0.7601  0.3142
17600TIP3    H274216   4.380   6.695  13.177 -3.6691 -0.4091  0.0204
17601TIP3   OH274217   6.281   0.352   4.860 -0.0828 -0.3122 -0.6857
17601TIP3    H174218   6.233   0.336   4.942  0.8272 -0.5267 -0.1864
17601TIP3    H274219   6.372   0.359   4.886  0.1465  0.3190 -1.6054
17602TIP3   OH274220   6.570   2.580  17.110 -0.1947 -0.7411 -0.1680
17602TIP3    H174221   6.592   2.658  17.059 -0.2444  0.7673  1.9688
17602TIP3    H274222   6.486   2.601  17.151 -0.2340 -1.9389  0.4222
17603TIP3   OH274223   5.037   2.901  11.522  0.2714 -0.1079  0.4304
17603TIP3    H174224   5.125   2.916  11.488  0.2113 -1.5650 -0.4552
17603TIP3    H274225   4.995   2.987  11.518  0.8378  0.1434 -1.5870
17604TIP3   OH274226   6.636   0.777   2.095  0.1562 -0.7089  0.1600
17604TIP3    H174227   6.547   0.762   2.127 -0.4526  1.6531 -0.2532
17604TIP3    H274228   6.639   0.870   2.072  2.4998 -0.8884 -0.6124
17605TIP3   OH274229   2.082   2.799   6.040 -0.2990  0.2356  0.4182
17605TIP3    H174230   2.030   2.780   6.118  0.2113 -0.2841  0.6423
17605TIP3    H274231   2.112   2.713   6.009  1.9641  0.6080  1.3754
17606TIP3   OH274232   4.333   4.736   5.488 -0.3355  0.1197  0.4029
17606TIP3    H174233   4.406   4.793   5.463 -0.1273 -0.6386 -0.8385
17606TIP3    H274234   4.257   4.773   5.442 -0.2932 -0.3136 -0.0286
17607TIP3   OH274235   0.017   5.018   5.358  0.1997  0.0305 -0.1198
17607TIP3    H174236   0.046   5.108   5.373  0.1695 -0.0723  0.6024
17607TIP3    H274237   0.049   4.970   5.434 -0.1436 -0.4852 -0.2967
17608TIP3   OH274238   2.677   0.263  12.803 -0.2369  0.4882  0.2774
17608TIP3    H174239   2.606   0.259  12.739  0.1059 -0.6088 -0.0479
17608TIP3    H274240   2.739   0.196  12.775  1.3295  1.9403  0.1277
17609TIP3   OH274241   3.225   5.469  16.600  0.4581 -0.6735 -0.1261
17609TIP3    H174242   3.129   5.472  16.611  0.5882  0.5007  0.9219
17609TIP3    H274243   3.237   5.448  16.508 -0.8098 -0.8188 -0.2884
17610TIP3   OH274244   0.736   0.319   3.037 -0.3235 -0.2027 -0.0083
17610TIP3    H174245   0.820   0.321   2.992 -0.3500 -1.7720 -0.1943
17610TIP3    H274246   0.692   0.240   3.004 -2.1767  0.9343 -0.4265
17611TIP3   OH274247   6.279   5.379  12.044  0.6316 -0.0555 -1.2007
17611TIP3    H174248   6.296   5.454  11.987 -0.0483 -0.5622 -2.1042
17611TIP3    H274249   6.211   5.329  11.999  0.4968 -0.7945 -0.2232
17612TIP3   OH274250   1.769   4.164   6.075  0.0963  0.3394  0.0640
17612TIP3    H174251   1.759   4.219   6.153  1.6870 -1.1564  1.3969
17612TIP3    H274252   1.777   4.226   6.003 -0.5305  1.7891  1.1955
17613TIP3   OH274253   5.866   1.011   0.156 -0.8798 -0.3696  0.5586
17613TIP3    H174254   5.776   1.029   0.131 -1.2831 -0.6180  1.7664
17613TIP3    H274255   5.885   1.074   0.226  0.1585  0.2179 -0.2206
17614TIP3   OH274256   3.665   1.993  12.321  0.2424 -0.2781  0.2415
17614TIP3    H174257   3.668   1.997  12.417  0.7532 -0.2081  0.2210
17614TIP3    H274258   3.674   1.901  12.300  1.5192 -0.1671  0.2154
17615TIP3   OH274259   4.499   3.136  13.330  0.2924 -0.2826  0.0339
17615TIP3    H174260   4.404   3.122  13.335 -0.0654  1.4308 -1.0255
17615TIP3    H274261   4.530   3.065  13.274 -0.5035 -0.3963 -0.2907
17616TIP3   OH274262   0.015   2.179   1.329 -0.4302  0.1687 -0.0285
17616TIP3    H174263   0.100   2.201   1.369 -0.7084 -0.4083  0.9038
17616TIP3    H274264   0.014   2.230   1.248  0.7952  0.2145 -0.0439
17617TIP3   OH274265   0.304   1.963   1.595 -0.7228 -0.1010  0.2940
17617TIP3    H174266   0.298   1.991   1.503 -2.5755 -0.6392  0.2021
17617TIP3    H274267   0.281   2.041   1.645  0.8613  0.3569  0.3643
17618TIP3   OH274268   2.851   6.716  17.183  0.0675  0.2379  0.5909
17618TIP3    H174269   2.866   6.693  17.091  0.9606  1.2182  0.4724
17618TIP3    H274270   2.792   6.791  17.180 -2.4978 -1.6136  0.9627
17619TIP3   OH274271   2.218   2.456   1.052  0.5634 -0.2722 -0.6812
17619TIP3    H174272   2.254   2.503   0.976  0.7594  1.4381  0.4199
17619TIP3    H274273   2.142   2.508   1.078  0.3183 -1.0198  0.1177
17620TIP3   OH274274   3.675   1.627  13.003 -0.0261  0.4110  0.0463
17620TIP3    H174275   3.583   1.642  13.021 -0.4014 -0.8280 -0.6896
17620TIP3    H274276   3.676   1.577  12.922  1.1840 -1.3301  1.0583
17621TIP3   OH274277   6.467   6.560  14.357 -0.4127 -0.1408  0.0904
17621TIP3    H174278   6.418   6.478  14.364 -0.2737 -0.4238 -1.6296
17621TIP3    H274279   6.400   6.628  14.364 -0.6840 -0.4389  0.4382
17622TIP3   OH274280   1.465   2.561   4.329  0.1618  0.2001  0.2200
17622TIP3    H174281   1.375   2.585   4.305  0.1442 -0.2231 -0.1769
17622TIP3    H274282   1.511   2.644   4.337 -0.3314  0.4314  0.6855
17623TIP3   OH274283   0.262   3.150  11.284  0.0953 -0.2747 -0.0758
17623TIP3    H174284   0.269   3.091  11.208  1.1910  0.3158 -0.4579
17623TIP3    H274285   0.348   3.192  11.289 -0.8551  1.8011 -0.2344
17624TIP3   OH274286   6.585   1.836  12.190 -0.2717 -0.6583  0.0880
17624TIP3    H174287   6.625   1.758  12.229  0.3317 -1.2740 -1.6516
17624TIP3    H274288   6.529   1.871  12.259 -0.3512 -2.4818  1.0234
17625TIP3   OH274289   6.741   5.530  16.612  0.2819  0.9260  0.7281
17625TIP3    H174290   6.717   5.496  16.698 -0.6565  0.4481  0.3017
17625TIP3    H274291   6.796   5.462  16.574 -3.1652 -1.2352 -0.9036
17626TIP3   OH274292   3.668   3.283   1.451  0.2311  0.3083  0.4515
17626TIP3    H174293   3.684   3.334   1.530  0.1809 -0.0366  0.6887
17626TIP3    H274294   3.695   3.194   1.475 -0.0201  0.1541  0.1610
17627TIP3   OH274295   0.986   2.717  12.739  0.0507  0.7397  0.9649
17627TIP3    H174296   0.921   2.648  12.745 -2.2467  2.4920 -1.4023
17627TIP3    H274297   0.978   2.764  12.822 -0.7198  0.0847  1.2783
17628TIP3   OH274298   0.252   2.034   2.124  0.1174 -0.3587 -0.0094
17628TIP3    H174299   0.185   2.041   2.192 -0.3382 -0.3879 -0.4497
17628TIP3    H274300   0.323   2.091   2.154  0.3073 -1.0674  0.9362
17629TIP3   OH274301   3.930   1.466  13.112  0.4798  0.2181  0.3249
17629TIP3    H174302   3.971   1.534  13.166  0.3692 -0.7015  1.6154
17629TIP3    H274303   3.959   1.384  13.152 -2.3444 -0.4908  1.1080
17630TIP3   OH274304   3.364   3.123  15.213  0.3121 -0.0997  0.0728
17630TIP3    H174305   3.346   3.153  15.302  0.9598 -3.7476  1.6287
17630TIP3    H274306   3.310   3.045  15.202  1.8411 -0.9811 -1.8956
17631TIP3   OH274307   3.514   4.824   2.921 -0.0092 -0.2711  0.3546
17631TIP3    H174308   3.608   4.834   2.915 -0.0199 -0.9110 -1.0869
17631TIP3    H274309   3.499   4.794   3.011  0.9180  2.0531  1.3627
17632TIP3   OH274310   0.164   1.718  10.847 -0.3516 -0.0164 -0.6330
17632TIP3    H174311   0.103   1.645  10.831 -1.1426  0.8187 -1.5596
17632TIP3    H274312   0.126   1.791  10.798  1.4125  0.5355 -1.2250
17633TIP3   OH274313   5.747   1.091   4.593  0.1751 -0.0114 -0.0098
17633TIP3    H174314   5.818   1.028   4.585 -1.8731 -2.6615  1.1748
17633TIP3    H274315   5.738   1.107   4.687 -0.7420  0.3460 -0.1464
17634TIP3   OH274316   2.739   2.196  11.169 -0.3609 -0.0187  0.1368
17634TIP3    H174317   2.754   2.255  11.094  0.9290 -1.1790 -0.5771
17634TIP3    H274318   2.801   2.124  11.154 -0.9646 -0.8849  1.6871
17635TIP3   OH274319   5.095   1.569   3.607  0.2539 -0.2746 -0.3636
17635TIP3    H174320   5.031   1.605   3.545  1.5358 -1.3425 -2.4025
17635TIP3    H274321   5.041   1.533   3.678 -1.2923  0.6152 -1.0287
17636TIP3   OH274322   6.293   0.798  11.010 -0.1149  0.3113 -0.5675
17636TIP3    H174323   6.321   0.888  11.024 -0.3775  0.2803  0.2000
17636TIP3    H274324   6.372   0.753  10.979  0.7119  0.2512  1.4500
17637TIP3   OH274325   3.230   2.152   2.925  0.0647 -0.6961  0.5925
17637TIP3    H174326   3.135   2.148   2.915  0.0715  0.7286 -0.4004
17637TIP3    H274327   3.250   2.246   2.923  1.6694 -1.0183 -1.2960
17638TIP3   OH274328   5.628   0.547  12.858 -0.2916 -0.1072 -0.3778
17638TIP3    H174329   5.668   0.474  12.906 -1.5986 -0.0720  0.8265
17638TIP3    H274330   5.667   0.625  12.895 -1.1396 -0.0898  0.5134
17639TIP3   OH274331   0.430   2.388  14.797  0.4610 -0.2657  0.1734
17639TIP3    H174332   0.446   2.430  14.712  0.7488 -1.9374 -0.6506
17639TIP3    H274333   0.441   2.458  14.861 -1.1775  1.3945 -1.2392
17640TIP3   OH274334   4.426   4.623  12.961 -0.2470  0.0210 -0.3524
17640TIP3    H174335   4.487   4.550  12.966 -0.3386 -0.0535 -0.3093
17640TIP3    H274336   4.429   4.650  12.869  2.6671  2.4624  0.3230
17641TIP3   OH274337   0.126   2.098  12.866 -0.3602 -0.0492 -0.3971
17641TIP3    H174338   0.143   2.087  12.959  0.7000 -1.8521 -0.7490
17641TIP3    H274339   0.142   2.191  12.849  0.2363  0.1343  1.0618
17642TIP3   OH274340   1.891   0.442  15.469  0.1903  0.2084  0.1567
17642TIP3    H174341   1.872   0.424  15.561 -0.2952  0.2017  0.0587
17642TIP3    H274342   1.823   0.505  15.443 -0.7623 -1.1162 -0.6704
17643TIP3   OH274343   1.050   5.681   1.122  0.0459 -0.3546  0.1716
17643TIP3    H174344   1.068   5.674   1.028  0.0954  0.7185  0.0933
17643TIP3    H274345   0.955   5.685   1.127  0.0379 -0.5370  0.1810
17644TIP3   OH274346   1.558   1.302  10.981 -0.0292 -0.1360 -0.8888
17644TIP3    H174347   1.475   1.311  10.933 -0.3764 -1.1190 -0.5000
17644TIP3    H274348   1.605   1.234  10.933  0.4726  0.2700 -0.9808
17645TIP3   OH274349   3.258   3.965  12.296  0.2907 -0.4204 -0.1180
17645TIP3    H174350   3.280   3.997  12.209  1.1125 -4.1353 -1.4736
17645TIP3    H274351   3.174   3.921  12.285  0.3803 -0.8847  0.9330
17646TIP3   OH274352   2.315   0.250   1.267  0.2392  0.2233 -0.5591
17646TIP3    H174353   2.370   0.188   1.316  0.0211  0.3179 -0.1844
17646TIP3    H274354   2.320   0.220   1.176  0.6281  0.0233 -0.4756
17647TIP3   OH274355   4.108   1.417  12.684 -0.7579  0.8121  0.0984
17647TIP3    H174356   4.112   1.402  12.779  2.6207  2.5451  0.3861
17647TIP3    H274357   4.117   1.330  12.646  3.1241  0.3352  1.5491
17648TIP3   OH274358   3.214   3.188  12.695  0.3306  0.0958  0.1038
17648TIP3    H174359   3.257   3.110  12.662 -0.0486  0.7966 -2.2511
17648TIP3    H274360   3.239   3.193  12.787  2.4058 -1.3897 -0.3255
17649TIP3   OH274361   1.943   5.000   4.385 -0.2797  0.4345 -0.2868
17649TIP3    H174362   2.012   4.935   4.377 -1.9268 -1.3354 -0.9668
17649TIP3    H274363   1.941   5.021   4.478 -1.5169 -2.6920  0.5178
17650TIP3   OH274364   2.523   4.982   5.453 -0.2843  0.1518 -0.0340
17650TIP3    H174365   2.599   4.943   5.497 -0.8867  0.5086  1.3922
17650TIP3    H274366   2.539   5.076   5.459  0.8823  0.2378 -2.9495
17651TIP3   OH274367   4.733   2.856  16.373 -0.1039  0.2031  0.5260
17651TIP3    H174368   4.787   2.843  16.296  0.4530 -0.4383  1.0206
17651TIP3    H274369   4.644   2.837  16.343  0.0922  0.0843  0.0113
17652TIP3   OH274370   3.222   1.240   1.027 -0.1363  0.0141 -0.2545
17652TIP3    H174371   3.159   1.209   1.093 -2.5884 -1.3550 -3.0032
17652TIP3    H274372   3.193   1.328   1.006 -0.0890  0.0115 -0.3295
17653TIP3   OH274373   5.209   0.265  16.539  0.2394 -0.3531 -0.0739
17653TIP3    H174374   5.211   0.331  16.608 -2.7579  1.8025 -1.8160
17653TIP3    H274375   5.153   0.196  16.573 -0.1059  0.0449  0.1672
17654TIP3   OH274376   4.832   2.322  16.038  0.0190  0.4799 -0.5136
17654TIP3    H174377   4.883   2.339  15.959 -1.4842 -1.8926 -2.1170
17654TIP3    H274378   4.887   2.266  16.092  0.4673  0.8975 -0.5315
17655TIP3   OH274379   2.657   4.653   6.098 -0.1009  0.2529 -0.4375
17655TIP3    H174380   2.697   4.579   6.053 -1.7490 -1.7348  1.1998
17655TIP3    H274381   2.670   4.635   6.191 -1.4467  1.4784  0.0275
17656TIP3   OH274382   0.340   3.779   5.665  0.2048 -0.2906 -0.1401
17656TIP3    H174383   0.257   3.741   5.636  0.0324  1.3105 -1.9379
17656TIP3    H274384   0.373   3.717   5.730 -2.1940 -1.1642  0.3447
17657TIP3   OH274385   1.389   2.530  16.084 -0.3452  0.3008 -0.3167
17657TIP3    H174386   1.369   2.624  16.085  0.4824  0.4829 -0.3859
17657TIP3    H274387   1.420   2.512  16.173  0.6524  0.3560 -0.6469
17658TIP3   OH274388   6.703   1.908  14.443  0.5285  0.3127  0.0057
17658TIP3    H174389   6.700   2.004  14.451  0.6068  0.3381 -0.2727
17658TIP3    H274390   6.650   1.877  14.516 -0.9424  0.6051 -0.8814
17659TIP3   OH274391   5.360   0.769   3.931  0.1767  0.0234 -0.3008
17659TIP3    H174392   5.409   0.715   3.868  0.0185  0.0966 -0.4857
17659TIP3    H274393   5.428   0.802   3.991  0.6451  1.7388 -1.7196
17660TIP3   OH274394   4.397   1.330  15.419  0.0483 -0.2170  0.7614
17660TIP3    H174395   4.418   1.415  15.459 -0.4019 -0.3757  1.3573
17660TIP3    H274396   4.439   1.333  15.333  1.3554 -0.0027  1.3799
17661TIP3   OH274397   5.997   2.605  14.177  0.3399  0.2696  0.4095
17661TIP3    H174398   6.081   2.606  14.223  2.4942  2.0060 -3.0480
17661TIP3    H274399   5.952   2.684  14.207  0.5741  0.0938  1.2498
17662TIP3   OH274400   0.711   3.645   0.760 -0.5911 -0.2884  0.3860
17662TIP3    H174401   0.797   3.608   0.741 -0.5971 -0.4430  0.6572
17662TIP3    H274402   0.669   3.581   0.816 -0.8591 -0.1809  0.3083
17663TIP3   OH274403   5.904   2.465   5.953 -0.6936 -0.0672  0.5901
17663TIP3    H174404   5.890   2.559   5.968 -0.4234 -0.2748  2.3170
17663TIP3    H274405   5.851   2.422   6.020  0.4558 -1.0960  0.8773
17664TIP3   OH274406   0.630   5.436   1.544  1.0190 -0.1430  0.6045
17664TIP3    H174407   0.542   5.433   1.507  1.7977  1.1546 -1.5577
17664TIP3    H274408   0.617   5.455   1.637 -0.9708 -0.2598  0.3892
17665TIP3   OH274409   4.552   1.336   0.711 -0.0252  0.3363  0.2723
17665TIP3    H174410   4.614   1.372   0.775 -1.0554 -0.0060  1.5152
17665TIP3    H274411   4.466   1.344   0.754 -0.8331  0.6505 -1.3360
17666TIP3   OH274412   0.680   0.492  16.432 -0.4233  0.1287  0.7752
17666TIP3    H174413   0.648   0.577  16.460 -1.0723 -0.1504  0.8827
17666TIP3    H274414   0.680   0.438  16.511  1.6973  0.5142  1.1081
17667TIP3   OH274415   6.454   1.321   0.677 -0.3129 -0.5292 -0.1331
17667TIP3    H174416   6.365   1.347   0.655  0.3598  1.4844 -0.6169
17667TIP3    H274417   6.492   1.290   0.594  0.1690  0.8891 -0.4618
17668TIP3   OH274418   5.162   6.624   3.199  0.7249 -0.1107 -0.0472
17668TIP3    H174419   5.072   6.652   3.180  1.4033  0.9639 -1.9304
17668TIP3    H274420   5.206   6.628   3.115  2.4330 -1.1559  0.7439
17669TIP3   OH274421   2.276   4.463   4.917 -0.1016  0.1058 -0.0268
17669TIP3    H174422   2.331   4.385   4.915  1.2998  1.0629 -0.3274
17669TIP3    H274423   2.332   4.531   4.954 -1.3235  0.9574  0.3157
17670TIP3   OH274424   2.937   1.699  16.949  0.0531 -0.0011  0.5682
17670TIP3    H174425   2.948   1.761  16.877 -2.5382 -1.9109 -1.7080
17670TIP3    H274426   2.882   1.745  17.012  1.1026  1.1994  0.6377
17671TIP3   OH274427   3.276   3.447   5.654  0.5611 -0.4385 -0.8270
17671TIP3    H174428   3.283   3.353   5.637  0.2261 -0.5279 -0.4688
17671TIP3    H274429   3.196   3.456   5.706  0.5164  0.0605 -0.9824
17672TIP3   OH274430   6.720   3.576   6.975 -0.5876  0.1724  0.5623
17672TIP3    H174431   6.805   3.554   7.013  0.6690 -0.0456 -2.1162
17672TIP3    H274432   6.698   3.499   6.922 -1.0760  1.2987 -0.9347
17673TIP3   OH274433   6.270   0.933   3.714  0.4340 -0.6190  0.2252
17673TIP3    H174434   6.226   1.017   3.696  2.1938  0.0369 -1.2661
17673TIP3    H274435   6.199   0.869   3.711 -0.7551  0.6405  0.0148
17674TIP3   OH274436   2.173   4.993  17.165 -0.5891  0.4228 -0.0664
17674TIP3    H174437   2.155   4.974  17.073 -0.3098  1.9836 -0.4685
17674TIP3    H274438   2.171   5.088  17.171  1.8624  0.4961  1.0147
17675TIP3   OH274439   6.237   0.026   0.253 -0.2880  0.1258 -0.7525
17675TIP3    H174440   6.261  -0.026   0.329 -1.4014 -0.0671 -0.5151
17675TIP3    H274441   6.206  -0.038   0.189  1.6565  0.1753 -1.8100
17676TIP3   OH274442   0.548   1.123   3.121 -0.2288  0.5097  0.0524
17676TIP3    H174443   0.539   1.045   3.068 -0.9462 -0.7559  1.9373
17676TIP3    H274444   0.498   1.190   3.075 -2.8047 -1.1477  0.2681
17677TIP3   OH274445   5.741   5.372   2.871 -0.0356 -0.4958  0.1550
17677TIP3    H174446   5.771   5.283   2.849  0.0187 -0.2820 -0.6875
17677TIP3    H274447   5.651   5.375   2.838 -0.0163 -0.2249  0.1298
17678TIP3   OH274448   5.921   2.356   0.267  0.1539  1.0568 -0.3333
17678TIP3    H174449   5.855   2.379   0.332  1.4406  1.2147  0.9859
17678TIP3    H274450   5.961   2.276   0.302 -0.2178  0.2017 -1.7873
17679TIP3   OH274451   6.331   1.300  15.539  0.2940  0.3425 -0.6051
17679TIP3    H174452   6.362   1.232  15.479  0.5339  0.8559 -1.0757
17679TIP3    H274453   6.340   1.382  15.489  0.0130  0.7194 -0.0498
17680TIP3   OH274454   5.537   2.571  16.111  0.3530  0.3773  0.3279
17680TIP3    H174455   5.572   2.563  16.022  0.5349  0.5301  0.3851
17680TIP3    H274456   5.485   2.491  16.123  0.2118  0.4239  0.0332
17681TIP3   OH274457   3.740   6.284   6.274 -0.5140 -0.0906 -0.4481
17681TIP3    H174458   3.830   6.260   6.253 -1.2222 -2.9568 -0.6166
17681TIP3    H274459   3.738   6.289   6.370 -0.0192  0.8148 -0.4765
17682TIP3   OH274460   4.629   6.032  15.768  0.1032 -0.5652 -0.4469
17682TIP3    H174461   4.563   6.024  15.836 -2.8781  0.7868 -2.9263
17682TIP3    H274462   4.639   5.943  15.734 -3.0046 -0.3864 -2.1081
17683TIP3   OH274463   1.201   4.356   0.190  0.0758  0.6422  0.1002
17683TIP3    H174464   1.119   4.316   0.221  0.1011  0.2289 -0.3545
17683TIP3    H274465   1.261   4.346   0.264  0.3557 -0.9961 -0.2923
17684TIP3   OH274466   4.177   4.100  13.676  0.2555  0.0612 -0.2588
17684TIP3    H174467   4.220   4.017  13.696  1.9655  0.2967 -2.4963
17684TIP3    H274468   4.108   4.077  13.614  2.3432  0.4413 -2.9070
17685TIP3   OH274469   2.540   1.610  13.180  0.0118  0.1438  0.4824
17685TIP3    H174470   2.456   1.622  13.224  0.2598 -0.2888  1.0795
17685TIP3    H274471   2.598   1.573  13.247  1.0159  1.5277  0.4216
17686TIP3   OH274472   3.385   4.900   5.490 -0.1861 -0.7672 -0.4592
17686TIP3    H174473   3.386   4.945   5.575 -0.2664  0.4121 -1.0697
17686TIP3    H274474   3.311   4.839   5.497  0.4959 -1.5091  0.7171
17687TIP3   OH274475   3.603   3.088  12.488 -0.2579 -0.2607  0.1116
17687TIP3    H174476   3.553   3.150  12.435 -0.3290 -0.0887  0.3770
17687TIP3    H274477   3.572   3.102  12.578  1.8433  1.4673  0.6521
17688TIP3   OH274478   1.993   1.870  10.753  0.1476  0.3276 -0.3070
17688TIP3    H174479   1.932   1.796  10.755  0.2691  0.2264  1.6935
17688TIP3    H274480   1.942   1.942  10.716 -1.1318  0.1584  1.0447
17689TIP3   OH274481   0.777   4.113   2.233 -0.2073  0.5616 -0.1178
17689TIP3    H174482   0.837   4.051   2.192 -0.8392 -2.0837  2.5900
17689TIP3    H274483   0.698   4.108   2.180 -0.2607 -1.0518  0.0601
17690TIP3   OH274484   2.132   4.181   3.275  0.4747 -0.1008 -0.4219
17690TIP3    H174485   2.122   4.089   3.251  0.4669  0.2356 -1.7556
17690TIP3    H274486   2.051   4.202   3.321  1.1107 -1.1489  1.2788
17691TIP3   OH274487   5.454   0.799   5.678 -0.0101 -0.0456  0.4078
17691TIP3    H174488   5.501   0.731   5.630 -0.3995  0.2654 -0.4341
17691TIP3    H274489   5.449   0.766   5.767 -0.1158 -1.0874  0.0333
17692TIP3   OH274490   5.083   5.705   0.175  0.2614 -0.2626  0.6431
17692TIP3    H174491   5.148   5.636   0.166  2.0934  1.5640 -1.1401
17692TIP3    H274492   5.124   5.769   0.233  0.2282  1.0104 -0.6670
17693TIP3   OH274493   5.329   4.639   1.371  0.0059  0.0190 -0.0449
17693TIP3    H174494   5.384   4.561   1.359  1.0266  0.7724 -0.4778
17693TIP3    H274495   5.256   4.609   1.424 -0.0481 -1.4209 -0.8782
17694TIP3   OH274496   0.599   4.471  16.487 -0.4476 -0.0845 -0.1107
17694TIP3    H174497   0.546   4.546  16.515 -1.0938  0.5261 -2.6431
17694TIP3    H274498   0.682   4.510  16.459 -0.1967 -0.5145  0.0291
17695TIP3   OH274499   5.666   0.265  13.190 -0.8815  0.1498  0.3142
17695TIP3    H174500   5.637   0.190  13.139  2.2753 -1.2207  0.2918
17695TIP3    H274501   5.719   0.317  13.129 -0.6512  0.8550  1.0851
17696TIP3   OH274502   5.426   2.350   1.314  0.4287 -0.3794 -0.0370
17696TIP3    H174503   5.336   2.346   1.284  0.9521  0.6053 -1.9026
17696TIP3    H274504   5.474   2.290   1.256  1.7998  3.0010 -2.7666
17697TIP3   OH274505   6.699   2.067  11.216  0.0836  0.1962  0.3971
17697TIP3    H174506   6.753   2.044  11.292 -1.6705 -1.9048  1.1086
17697TIP3    H274507   6.610   2.071  11.250 -0.5497  0.9645 -1.2488
17698TIP3   OH274508   2.727   6.241  16.396 -0.0203 -0.4540 -0.4028
17698TIP3    H174509   2.796   6.274  16.339  1.4613 -0.4222  1.3230
17698TIP3    H274510   2.733   6.146  16.388  0.7925 -0.4792  0.3385
17699TIP3   OH274511   4.228   4.603   1.777  0.3832 -0.7816  0.5234
17699TIP3    H174512   4.235   4.508   1.763  0.0688 -0.7507  0.1167
17699TIP3    H274513   4.315   4.630   1.806  0.8359 -1.0035 -0.5760
17700TIP3   OH274514   2.749   2.051  17.026 -0.2173  0.6081 -0.2910
17700TIP3    H174515   2.678   2.067  17.088  1.3413 -1.3653  2.1834
17700TIP3    H274516   2.776   1.961  17.042  2.4288  1.0709 -1.5927
17701TIP3   OH274517   3.438   3.454  16.993  0.5699 -0.8517  0.2222
17701TIP3    H174518   3.351   3.415  16.995  0.1664 -0.0517 -0.8938
17701TIP3    H274519   3.465   3.456  17.085 -0.6079 -1.0523  0.5939
17702TIP3   OH274520   3.240   2.460   2.921 -0.8323 -0.4363 -0.1225
17702TIP3    H174521   3.160   2.418   2.890  1.4567 -2.8715 -3.4199
17702TIP3    H274522   3.283   2.491   2.841  2.0797 -0.2687  1.3759
17703TIP3   OH274523   5.306   6.256  15.413 -0.6350  0.2090  0.2113
17703TIP3    H174524   5.269   6.177  15.454 -2.2249  0.3746 -0.8075
17703TIP3    H274525   5.304   6.322  15.481  0.5849 -0.5747  1.0395
17704TIP3   OH274526   0.859   0.627  15.532  0.3269 -0.4198 -0.7851
17704TIP3    H174527   0.929   0.563  15.544  0.3317 -0.7684 -2.4869
17704TIP3    H274528   0.881   0.699  15.592  0.7315 -1.6384  0.5877
17705TIP3   OH274529   0.943   2.198  14.440 -0.2208  0.4403 -0.2604
17705TIP3    H174530   1.011   2.169  14.379 -1.3017 -1.3503 -0.6989
17705TIP3    H274531   0.991   2.220  14.520  1.0696  1.3568 -1.2454
17706TIP3   OH274532   2.983   0.201  15.979 -0.3205 -0.2183  0.0855
17706TIP3    H174533   2.906   0.258  15.990 -0.9847 -0.9264 -0.7249
17706TIP3    H274534   3.031   0.209  16.062  0.6869  3.0377 -0.6505
17707TIP3   OH274535   5.156   3.391  14.925  0.3230 -0.4740  0.0033
17707TIP3    H174536   5.129   3.437  15.005  1.2150  0.0810  0.0063
17707TIP3    H274537   5.074   3.374  14.878 -0.1142  0.2672  0.4721
17708TIP3   OH274538   3.376   1.215   1.990 -0.4754  0.0426 -0.6316
17708TIP3    H174539   3.462   1.230   1.952 -0.2647 -0.2650 -0.2829
17708TIP3    H274540   3.394   1.171   2.073 -0.9512  0.2830 -0.3995
17709TIP3   OH274541   5.596   3.238  14.813 -0.1305 -0.3529 -0.4831
17709TIP3    H174542   5.644   3.162  14.779 -0.2823 -0.6934  0.0557
17709TIP3    H274543   5.660   3.309  14.809  0.2177 -0.6556 -0.3799
17710TIP3   OH274544   4.007   6.684   0.698  0.0349 -0.5053  0.3056
17710TIP3    H174545   3.966   6.717   0.778 -1.5468  1.3383 -1.1514
17710TIP3    H274546   4.007   6.759   0.638  1.1172 -1.8129 -1.4498
17711TIP3   OH274547   2.334   5.547   3.248 -0.0563 -0.6549 -0.0969
17711TIP3    H174548   2.328   5.620   3.310 -1.3046 -1.1638  0.3869
17711TIP3    H274549   2.399   5.577   3.184 -2.3912  2.0693 -1.4321
17712TIP3   OH274550   2.219   3.468  16.558 -0.1163  0.0788  0.1370
17712TIP3    H174551   2.252   3.508  16.477  0.4667 -1.9517 -0.6775
17712TIP3    H274552   2.288   3.484  16.623  0.0551  0.4720 -0.1343
17713TIP3   OH274553   4.736   2.286  11.771 -0.4298  0.1572 -0.8690
17713TIP3    H174554   4.814   2.231  11.763 -0.5535 -0.1225 -0.1974
17713TIP3    H274555   4.663   2.225  11.763 -0.5724 -0.0829  1.6802
17714TIP3   OH274556   5.237   3.224   5.505  0.2952  0.1166  0.4396
17714TIP3    H174557   5.180   3.290   5.543 -0.9617 -1.0645  0.6620
17714TIP3    H274558   5.218   3.226   5.411 -1.7709 -1.7427  0.7489
17715TIP3   OH274559   5.326   5.777  12.345  0.1032  0.0682 -0.2260
17715TIP3    H174560   5.414   5.810  12.365  0.1717 -0.7628  0.9496
17715TIP3    H274561   5.286   5.846  12.293  1.0158  1.0214  0.2962
17716TIP3   OH274562   5.751   4.781  14.344 -0.5253  0.2476 -0.5640
17716TIP3    H174563   5.833   4.743  14.378 -0.4357  0.8271 -0.1137
17716TIP3    H274564   5.683   4.721  14.375 -0.2013 -0.7840 -1.7698
17717TIP3   OH274565   1.960   0.239  16.317 -0.4617 -0.3291 -0.6755
17717TIP3    H174566   1.974   0.322  16.271 -1.6767 -0.5595 -1.5138
17717TIP3    H274567   1.940   0.176  16.247  0.7200 -1.4111 -0.0748
17718TIP3   OH274568   6.247   4.817  12.555 -0.2309 -0.2827 -0.6290
17718TIP3    H174569   6.333   4.846  12.584 -0.9339  0.6414  0.6449
17718TIP3    H274570   6.255   4.722  12.548  0.6203 -0.3188  0.4567
17719TIP3   OH274571   4.622   6.040   2.560 -0.0923  0.1154  1.1205
17719TIP3    H174572   4.569   6.119   2.564 -1.0774 -0.2394 -2.2429
17719TIP3    H274573   4.712   6.071   2.564 -0.4273  1.6033 -1.1819
17720TIP3   OH274574   1.989   3.735   2.057 -0.1100 -0.1957  0.1694
17720TIP3    H174575   2.048   3.727   1.982 -0.5170 -0.3846 -0.1325
17720TIP3    H274576   2.009   3.821   2.094  1.5402 -0.9294  1.0922
17721TIP3   OH274577   0.098   2.036  14.856 -0.0535 -0.4773  0.3811
17721TIP3    H174578   0.110   2.022  14.950 -0.7181  0.0143  0.5427
17721TIP3    H274579   0.151   1.967  14.815  0.6020 -0.4166  1.1054
17722TIP3   OH274580   3.335   5.218  12.882 -0.1967 -0.5942  0.0223
17722TIP3    H174581   3.320   5.207  12.976 -1.1425 -1.2485 -0.1897
17722TIP3    H274582   3.250   5.245  12.847  0.4554  0.9219 -0.4754
17723TIP3   OH274583   5.306   2.081  15.571  0.0026  0.2893  0.2331
17723TIP3    H174584   5.240   2.148  15.589 -0.9618 -0.4774 -0.3815
17723TIP3    H274585   5.279   2.042  15.488 -0.3017 -1.8329  1.2586
17724TIP3   OH274586   5.431   4.654  11.129 -0.0999  0.2488  0.0450
17724TIP3    H174587   5.517   4.616  11.145 -0.6978 -1.5749 -0.8327
17724TIP3    H274588   5.390   4.596  11.065 -1.8117  1.3367  0.0843
17725TIP3   OH274589   6.751   5.585   3.068 -0.3694  0.2187  0.2102
17725TIP3    H174590   6.734   5.571   3.161 -2.5422  0.7923 -0.0415
17725TIP3    H274591   6.831   5.636   3.065 -0.0633 -0.1191  1.7399
17726TIP3   OH274592   5.530   5.517   3.367  0.1274  0.4300  0.0478
17726TIP3    H174593   5.500   5.575   3.437 -0.8813 -1.6676  1.4675
17726TIP3    H274594   5.624   5.509   3.381  0.3359  1.8748 -0.3419
17727TIP3   OH274595   1.673   5.895  12.348  0.5072 -0.4061  0.0087
17727TIP3    H174596   1.649   5.885  12.256 -1.0018 -0.9728  0.4385
17727TIP3    H274597   1.607   5.954  12.384 -0.2271 -1.9010  1.2072
17728TIP3   OH274598   0.082   2.862   0.338  0.3385 -0.3283  0.4263
17728TIP3    H174599  -0.009   2.833   0.332  0.1787  0.4020 -1.2928
17728TIP3    H274600   0.099   2.903   0.254  2.3642 -0.7213  0.6015
17729TIP3   OH274601   2.923   4.140   1.889  0.3181 -0.5944  0.5201
17729TIP3    H174602   2.843   4.192   1.879  1.1558  0.6395 -0.1117
17729TIP3    H274603   2.906   4.060   1.840 -1.2388 -1.2371  2.0323
17730TIP3   OH274604   5.060   2.259   0.946  0.3436  0.7535 -0.1306
17730TIP3    H174605   5.084   2.258   0.854  0.9678 -2.2288 -0.0378
17730TIP3    H274606   4.965   2.253   0.946  0.2819  1.5559 -0.5372
17731TIP3   OH274607   0.512   4.784  14.890  0.2888 -0.2591  0.1859
17731TIP3    H174608   0.450   4.831  14.946  0.2497 -0.7463  0.5583
17731TIP3    H274609   0.464   4.768  14.809  0.1202 -0.1315  0.2606
17732TIP3   OH274610   5.713   2.060   1.491 -0.0551 -0.0615  0.2212
17732TIP3    H174611   5.711   2.128   1.558 -2.0206  1.8690 -1.6102
17732TIP3    H274612   5.625   2.061   1.453  1.3718  0.3343 -3.5789
17733TIP3   OH274613   2.046   1.467  15.140  0.3512 -0.6538 -0.6218
17733TIP3    H174614   2.040   1.513  15.223  1.9346  0.5047 -1.0841
17733TIP3    H274615   1.972   1.406  15.140 -0.4981  0.3103  0.9985
17734TIP3   OH274616   1.108   2.831  15.045 -0.2817 -0.1466 -0.6530
17734TIP3    H174617   1.080   2.810  15.134 -0.8273 -1.8174 -1.1777
17734TIP3    H274618   1.160   2.910  15.054 -2.6150  1.3315  0.7906
17735TIP3   OH274619   1.415   1.949  12.234  0.1349 -0.0172 -0.1881
17735TIP3    H174620   1.388   2.004  12.160  1.6519 -0.7402 -1.3445
17735TIP3    H274621   1.442   2.011  12.302  2.4587  0.7567 -1.7020
17736TIP3   OH274622   5.360   5.068  10.997 -0.9060 -0.7406  0.8683
17736TIP3    H174623   5.348   5.140  10.935 -1.6804 -0.5964  1.1681
17736TIP3    H274624   5.362   4.989  10.943  2.2392 -0.3843  0.2931
17737TIP3   OH274625   5.071   0.031   1.536  0.0655  0.0327  0.7015
17737TIP3    H174626   4.986  -0.000   1.504  0.9466 -0.0990 -1.7241
17737TIP3    H274627   5.062   0.127   1.536  0.2725  0.0757 -0.7676
17738TIP3   OH274628   3.734   4.776   6.448 -0.5261  0.3540  0.2527
17738TIP3    H174629   3.647   4.817   6.451 -1.0562 -0.4240 -2.1277
17738TIP3    H274630   3.795   4.850   6.437 -1.1203  0.7671 -0.3705
17739TIP3   OH274631   3.943   2.647  10.513  0.5540  0.8694  0.4007
17739TIP3    H174632   4.031   2.625  10.543  0.0834  0.7788  1.7970
17739TIP3    H274633   3.935   2.741  10.528 -0.3479  0.5070  2.4480
17740TIP3   OH274634   6.665   6.409  16.465  0.2112 -0.7851  0.2983
17740TIP3    H174635   6.620   6.340  16.514 -1.6531  0.1482 -0.0032
17740TIP3    H274636   6.646   6.389  16.374  1.3102 -0.9407  0.0911
17741TIP3   OH274637   2.714   5.121  12.569  0.1205 -0.6215  0.1535
17741TIP3    H174638   2.744   5.047  12.517  2.7987 -1.5778  2.7962
17741TIP3    H274639   2.680   5.083  12.649 -1.0676  0.9350  0.4432
17742TIP3   OH274640   6.006   4.323  12.088 -0.7836  0.1592  0.1458
17742TIP3    H174641   5.943   4.300  12.156  0.2571  1.8316  1.7668
17742TIP3    H274642   5.997   4.254  12.023 -1.3257 -1.9187  2.2933
17743TIP3   OH274643   5.660   6.461   5.118 -0.1397 -0.2426 -0.4964
17743TIP3    H174644   5.755   6.463   5.109 -0.0294 -0.0781  0.5869
17743TIP3    H274645   5.639   6.532   5.178 -0.9494 -0.2675 -0.7321
17744TIP3   OH274646   6.736   0.814  13.229 -0.0838  0.4616 -0.5011
17744TIP3    H174647   6.683   0.894  13.231 -1.0369 -0.1400 -0.7903
17744TIP3    H274648   6.672   0.743  13.239  0.8351 -0.2429  0.6575
17745TIP3   OH274649   0.997   6.170  15.343 -0.4249 -0.0955  0.6890
17745TIP3    H174650   0.987   6.100  15.279  0.1242  0.1815  0.2942
17745TIP3    H274651   1.087   6.200  15.333 -0.7931  1.0109  0.4831
17746TIP3   OH274652   0.449   4.136  14.240  0.0703 -0.3113 -0.3268
17746TIP3    H174653   0.461   4.222  14.200  0.1629 -0.5261 -0.7684
17746TIP3    H274654   0.401   4.153  14.321 -2.1501 -0.0876 -1.6348
17747TIP3   OH274655   0.877   2.826  13.780 -0.1946  0.1410 -0.6140
17747TIP3    H174656   0.888   2.731  13.776  2.7609  0.3935 -0.8928
17747TIP3    H274657   0.880   2.847  13.873 -0.7761 -0.0188 -0.5569
17748TIP3   OH274658   0.560   4.681   6.468  0.2806  0.0376  0.0001
17748TIP3    H174659   0.555   4.657   6.376  0.2564  0.2065 -0.0432
17748TIP3    H274660   0.638   4.636   6.500 -0.4521 -1.1045  0.2287
17749TIP3   OH274661   2.597   4.271  11.813  0.1578  0.3793  0.0036
17749TIP3    H174662   2.574   4.364  11.823  0.8798  0.3455  2.3870
17749TIP3    H274663   2.690   4.266  11.836 -0.0068 -1.0168  0.4602
17750TIP3   OH274664   1.288   1.268  17.215 -0.4753 -0.3470  0.2767
17750TIP3    H174665   1.343   1.323  17.160 -3.1925 -0.6725 -3.0632
17750TIP3    H274666   1.257   1.327  17.284  0.3907  1.0211 -0.4568
17751TIP3   OH274667   2.308   2.062  15.773 -0.4958  0.6226  0.5610
17751TIP3    H174668   2.344   2.083  15.687  0.8060 -1.3938  0.5556
17751TIP3    H274669   2.336   2.134  15.830 -1.5214  2.0684 -0.6854
17752TIP3   OH274670   5.634   2.332  11.841 -0.1926 -0.2422 -0.1299
17752TIP3    H174671   5.583   2.306  11.764 -0.4813 -0.1048  0.0146
17752TIP3    H274672   5.583   2.403  11.881  0.2209  0.0459 -0.1076
17753TIP3   OH274673   5.388   6.155   5.673 -0.1737  0.2217 -0.2127
17753TIP3    H174674   5.422   6.183   5.588  0.2201  4.0051  0.9969
17753TIP3    H274675   5.464   6.160   5.732 -0.8053 -0.6165  0.6965
17754TIP3   OH274676   3.622   0.019   0.412  0.5000 -0.7421  0.2028
17754TIP3    H174677   3.610  -0.074   0.394 -0.0497 -0.3350 -1.8378
17754TIP3    H274678   3.682   0.049   0.343 -2.5778  1.1915 -1.8614
17755TIP3   OH274679   5.769   1.991   0.161 -0.2433  0.1491  0.3979
17755TIP3    H174680   5.715   1.913   0.151  1.2727 -1.2045  2.1584
17755TIP3    H274681   5.711   2.063   0.137 -2.5588 -1.2891  1.3343
17756TIP3   OH274682   3.370   5.804   0.990  0.1094 -0.1643 -0.0780
17756TIP3    H174683   3.315   5.771   0.919  1.1201  0.6313 -1.2901
17756TIP3    H274684   3.375   5.732   1.052  0.0185 -1.2670 -1.3071
17757TIP3   OH274685   0.521   4.077  16.801 -0.4755  0.1903  0.1829
17757TIP3    H174686   0.490   4.094  16.713  1.2854  1.8951 -0.1833
17757TIP3    H274687   0.571   4.155  16.824 -0.5402 -0.3883  2.5379
17758TIP3   OH274688   4.519   3.610  16.485 -0.5029 -0.1634  0.1444
17758TIP3    H174689   4.612   3.595  16.472 -0.6096 -0.4097 -0.3385
17758TIP3    H274690   4.504   3.590  16.577 -0.1337 -0.3949  0.1551
17759TIP3   OH274691   5.493   0.880   2.300  0.4513  0.2329 -1.0319
17759TIP3    H174692   5.463   0.949   2.240  0.5922 -0.7247 -2.2516
17759TIP3    H274693   5.437   0.805   2.280  1.5731 -0.6106 -1.1452
17760TIP3   OH274694   1.050   4.877   5.830 -0.0626 -0.2647 -0.1726
17760TIP3    H174695   1.111   4.809   5.801  0.9886  1.2059 -1.5587
17760TIP3    H274696   1.065   4.883   5.925 -0.5890 -2.3094  0.0947
17761TIP3   OH274697   6.429   1.166  16.440 -0.0508  0.2436  0.0512
17761TIP3    H174698   6.517   1.134  16.462 -0.0900  1.7260  2.7495
17761TIP3    H274699   6.398   1.106  16.372  2.8564 -0.5788 -0.6884
17762TIP3   OH274700   2.107   6.297  14.808  0.2474  0.2593 -0.3227
17762TIP3    H174701   2.053   6.344  14.745  0.3415  0.8079 -0.0031
17762TIP3    H274702   2.045   6.268  14.875  0.5885  2.7940  1.2051
17763TIP3   OH274703   5.709   3.431   4.929  0.0269  0.6501  0.8355
17763TIP3    H174704   5.647   3.367   4.895  0.6439  0.2280  0.5034
17763TIP3    H274705   5.792   3.412   4.885  0.4829  0.9987  1.5146
17764TIP3   OH274706   2.945   3.593  10.828  0.1508 -0.1456 -0.9186
17764TIP3    H174707   2.867   3.613  10.880 -0.1809 -0.2526 -1.3676
17764TIP3    H274708   2.911   3.574  10.741  0.7695  0.8116 -1.3801
17765TIP3   OH274709   5.028   5.076  10.942  0.4087 -0.3999 -0.4474
17765TIP3    H174710   5.042   5.017  11.016 -1.5519 -0.3520  0.0288
17765TIP3    H274711   4.942   5.051  10.908 -0.4701  2.1172 -0.2692
17766TIP3   OH274712   2.824   2.989   4.741 -0.2625  0.5045  0.1574
17766TIP3    H174713   2.777   2.971   4.823 -1.7071  0.1801 -0.7008
17766TIP3    H274714   2.892   3.052   4.766  1.2689 -1.7536  2.1508
17767TIP3   OH274715   0.426   5.263  16.153 -0.1910 -0.4101  0.0077
17767TIP3    H174716   0.420   5.248  16.059  0.2151 -1.3428  0.1237
17767TIP3    H274717   0.338   5.290  16.179 -0.2984 -0.1277 -0.6392
17768TIP3   OH274718   5.760   4.315  16.797  0.4067  0.1150 -0.3176
17768TIP3    H174719   5.725   4.244  16.743 -0.4306 -0.0908  0.4744
17768TIP3    H274720   5.733   4.395  16.751  0.5022 -0.0650 -0.6903
17769TIP3   OH274721   3.489   4.214   1.459 -0.3952 -0.4730  0.1028
17769TIP3    H174722   3.570   4.195   1.413 -0.4169 -0.3010 -0.0077
17769TIP3    H274723   3.490   4.155   1.535  0.7572  0.8227  1.1680
17770TIP3   OH274724   3.404   4.763  15.323  0.2715 -0.0602  0.6721
17770TIP3    H174725   3.439   4.676  15.342 -0.1474 -0.0538  1.5094
17770TIP3    H274726   3.403   4.808  15.408  1.0116  0.9642  0.1566
17771TIP3   OH274727   4.899   5.414   5.109  0.5169 -0.2577  0.0936
17771TIP3    H174728   4.977   5.392   5.160 -2.1239  0.8952  5.2412
17771TIP3    H274729   4.911   5.505   5.083  1.2734 -0.4034 -0.0909
17772TIP3   OH274730   3.969   0.986   5.905 -0.3859 -0.2850 -0.1451
17772TIP3    H174731   4.028   0.933   5.958  0.0202  0.9435  0.6691
17772TIP3    H274732   3.906   1.021   5.967  0.0857  1.1617 -0.4562
17773TIP3   OH274733   2.974   1.219  15.908  0.3517  0.0908  0.3792
17773TIP3    H174734   2.996   1.312  15.905  1.5817 -0.1754  0.4632
17773TIP3    H274735   2.964   1.200  16.001 -0.7214  0.2978  0.3236
17774TIP3   OH274736   4.725   3.582   2.553  0.7055 -0.3639  0.0984
17774TIP3    H174737   4.716   3.569   2.647  0.7425 -0.5589  0.0747
17774TIP3    H274738   4.718   3.495   2.515  1.9958 -0.4501  0.0269
17775TIP3   OH274739   4.925   1.940   1.752  0.7045  0.3074 -0.0277
17775TIP3    H174740   4.913   1.988   1.670 -0.1163  0.9943  0.4698
17775TIP3    H274741   4.897   2.002   1.819 -1.5232 -1.2480  0.5685
17776TIP3   OH274742   3.808   3.889  15.715  0.5636  0.0643 -0.5862
17776TIP3    H174743   3.758   3.852  15.642  1.1257  0.8795 -1.4029
17776TIP3    H274744   3.892   3.844  15.711 -0.0021 -1.2097  0.7082
17777TIP3   OH274745   1.190   1.518   2.029 -0.0568 -0.2792 -0.4929
17777TIP3    H174746   1.129   1.482   1.965 -0.4510 -0.1359 -0.2028
17777TIP3    H274747   1.154   1.493   2.114  0.5158 -0.5546 -0.3284
17778TIP3   OH274748   2.068   1.818  14.633  0.6535 -0.2698  0.3155
17778TIP3    H174749   2.002   1.859  14.577  1.9774  0.1937 -0.9764
17778TIP3    H274750   2.025   1.740  14.669  0.1696 -1.3821 -2.4689
17779TIP3   OH274751   1.202   6.612  11.881 -0.3722 -0.8664 -0.5623
17779TIP3    H174752   1.180   6.666  11.805  1.2905  0.4067 -0.1973
17779TIP3    H274753   1.287   6.573  11.858  0.8333  0.6189  1.1293
17780TIP3   OH274754   6.174   5.574   3.776 -0.1786  0.2075  0.4605
17780TIP3    H174755   6.111   5.549   3.844  0.3332  0.4784  1.0378
17780TIP3    H274756   6.139   5.656   3.740 -1.3627 -0.7892 -0.8022
17781TIP3   OH274757   2.998   3.107   5.383 -0.3004 -0.1879 -0.4436
17781TIP3    H174758   3.008   3.109   5.478  1.4024  0.7771 -0.6053
17781TIP3    H274759   3.020   3.018   5.357  0.7425 -0.0477 -0.0640
17782TIP3   OH274760   4.498   0.268  15.352  0.1168 -0.5815 -0.6046
17782TIP3    H174761   4.467   0.358  15.338 -1.1902 -0.8323  0.3849
17782TIP3    H274762   4.575   0.278  15.409  0.3819 -0.0554 -1.0452
17783TIP3   OH274763   4.350   6.049  13.969 -0.0402  0.0715 -0.2759
17783TIP3    H174764   4.341   6.143  13.984 -0.8561  0.0048 -0.3032
17783TIP3    H274765   4.272   6.011  14.010 -0.5858 -0.4342 -1.7238
17784TIP3   OH274766   5.275   4.369   5.593  0.2164  0.5798  0.5712
17784TIP3    H174767   5.240   4.283   5.616  1.7460 -0.1276  0.3326
17784TIP3    H274768   5.248   4.426   5.666 -0.9147 -0.0403  0.6703
17785TIP3   OH274769   0.924   1.904  11.034  0.2106 -0.5223 -0.2221
17785TIP3    H174770   0.944   1.934  10.945  1.2639  1.3378  0.5883
17785TIP3    H274771   1.008   1.908  11.080 -0.4361 -0.8802  1.0231
17786TIP3   OH274772   4.019   4.920   2.006  0.0978  0.5724 -0.3674
17786TIP3    H174773   4.000   4.934   2.099 -1.7936 -0.5365 -0.5406
17786TIP3    H274774   4.098   4.972   1.990  0.0870  1.3250  1.6869
17787TIP3   OH274775   4.823   4.735  15.442 -0.5310  0.0338  0.4940
17787TIP3    H174776   4.775   4.785  15.376  0.8464  2.4454  1.1985
17787TIP3    H274777   4.762   4.729  15.516 -0.4398  1.4136  0.6966
17788TIP3   OH274778   6.173   5.066  11.902  0.0272  0.3203 -0.1513
17788TIP3    H174779   6.222   5.060  11.984 -1.0767  1.3069  0.6045
17788TIP3    H274780   6.176   4.977  11.866 -2.0229 -0.9703  2.4955
17789TIP3   OH274781   4.622   5.347   3.765 -0.1712 -0.2844 -0.7016
17789TIP3    H174782   4.621   5.440   3.743 -1.1275 -0.0336  0.3169
17789TIP3    H274783   4.626   5.302   3.681  1.7404  0.6784 -1.1624
17790TIP3   OH274784   5.289   2.341  14.986  0.0850  0.1747  0.2904
17790TIP3    H174785   5.341   2.261  14.992  0.9872  0.7737  0.6428
17790TIP3    H274786   5.236   2.342  15.066 -1.2035 -0.9096 -0.5045
17791TIP3   OH274787   6.604   3.392   2.482 -0.0351 -0.3138 -0.0835
17791TIP3    H174788   6.598   3.393   2.577 -0.1172  1.2839 -0.0689
17791TIP3    H274789   6.698   3.391   2.464  0.0610  1.5540  0.0828
17792TIP3   OH274790   0.711   0.086  16.334  0.2210 -0.7848 -0.6695
17792TIP3    H174791   0.787   0.033  16.308  1.6548  1.2150 -0.7862
17792TIP3    H274792   0.749   0.162  16.377 -1.7913 -0.0039 -0.1602
17793TIP3   OH274793   3.357   0.319   3.942  0.4333 -0.2385 -0.1402
17793TIP3    H174794   3.406   0.400   3.932 -0.1035  0.2075  0.7819
17793TIP3    H274795   3.268   0.340   3.913 -0.0089 -0.1555  1.2306
17794TIP3   OH274796   4.750   5.283   4.885  0.3303 -0.0111  0.8515
17794TIP3    H174797   4.772   5.374   4.907  1.4265 -0.0991  0.1845
17794TIP3    H274798   4.660   5.288   4.854  0.2920  0.8174  1.0558
17795TIP3   OH274799   1.857   3.396   2.910 -0.5299  0.0830  0.1081
17795TIP3    H174800   1.914   3.352   2.847  0.1045 -0.4000  0.9963
17795TIP3    H274801   1.899   3.381   2.994 -1.7332  0.1254  0.7330
17796TIP3   OH274802   6.073   4.545   0.833 -0.2932 -0.1964 -0.2043
17796TIP3    H174803   6.043   4.503   0.914 -0.9602 -0.9843 -0.8377
17796TIP3    H274804   6.152   4.497   0.809 -0.7643 -0.7721 -0.6471
17797TIP3   OH274805   4.068   3.547   5.662 -0.0897 -0.0504 -0.4060
17797TIP3    H174806   4.133   3.597   5.613 -1.6629  1.8357 -0.6899
17797TIP3    H274807   4.038   3.480   5.601  1.4735 -0.8797 -0.3024
17798TIP3   OH274808   5.599   0.329   1.037  0.0255  0.4888  0.2186
17798TIP3    H174809   5.668   0.388   1.008 -0.9697  1.7646  0.3650
17798TIP3    H274810   5.544   0.315   0.959  0.6971 -0.9408 -0.0395
17799TIP3   OH274811   3.125   1.395   2.804 -0.6224 -0.1515  0.0813
17799TIP3    H174812   3.151   1.418   2.894  1.7940 -0.7828 -0.3788
17799TIP3    H274813   3.029   1.397   2.805 -0.7824 -2.2967  3.2682
17800TIP3   OH274814   4.037   3.787  14.977 -0.6065  0.5196  0.7622
17800TIP3    H174815   4.118   3.833  14.997  0.1886 -0.7423  0.5118
17800TIP3    H274816   4.004   3.830  14.898 -1.5260  2.6850  2.2342
17801TIP3   OH274817   2.307   6.239   2.741 -0.2729  0.2737  0.0206
17801TIP3    H174818   2.227   6.186   2.743  0.7915 -1.4133 -0.4904
17801TIP3    H274819   2.277   6.328   2.760 -2.2925 -0.2876 -0.3168
17802TIP3   OH274820   5.900   5.811  14.731 -0.2217 -0.0636 -0.0207
17802TIP3    H174821   5.874   5.836  14.642  0.0358 -1.2412 -0.4447
17802TIP3    H274822   5.918   5.894  14.775 -3.4407  0.7673 -0.0678
17803TIP3   OH274823   0.588   1.734   0.895  0.0164  0.4423 -0.0162
17803TIP3    H174824   0.493   1.745   0.890  0.1542  1.5528 -0.3444
17803TIP3    H274825   0.601   1.640   0.879 -1.0652  0.1271  0.7648
17804TIP3   OH274826   1.693   6.206   5.058  0.3255  0.2183 -0.0298
17804TIP3    H174827   1.680   6.194   5.152 -0.0032 -0.6143 -0.1752
17804TIP3    H274828   1.604   6.203   5.021  0.5275 -0.4300 -0.4741
17805TIP3   OH274829   0.059   1.517   2.848  0.0736  0.4040  0.3426
17805TIP3    H174830   0.035   1.547   2.760 -2.4786 -1.3587  0.3058
17805TIP3    H274831   0.140   1.468   2.836 -0.3991 -0.0809 -1.1362
17806TIP3   OH274832   4.639   5.576   4.972  0.3589  0.0864 -0.7228
17806TIP3    H174833   4.668   5.624   5.050  1.8463 -1.0128 -0.5437
17806TIP3    H274834   4.569   5.519   5.004 -1.5128  2.0913 -0.9583
17807TIP3   OH274835   4.658   0.352   4.606 -0.0059 -0.4030 -0.6059
17807TIP3    H174836   4.622   0.337   4.519 -1.1619 -1.8149  0.0703
17807TIP3    H274837   4.753   0.345   4.594 -0.0122  1.2673 -2.0410
17808TIP3   OH274838   0.970   3.002  12.629 -1.1548  0.5049  0.9159
17808TIP3    H174839   0.935   2.914  12.641 -1.2967  0.7274  2.3890
17808TIP3    H274840   0.932   3.052  12.702 -0.8338  1.7029  0.2800
17809TIP3   OH274841   3.105   0.950   2.942 -0.0023 -0.1104  0.3841
17809TIP3    H174842   3.169   0.944   2.871  1.8090  0.9650  1.8249
17809TIP3    H274843   3.048   0.874   2.930 -1.0968  1.1250 -3.3856
17810TIP3   OH274844   3.286   5.628   2.792  0.5681  0.3291 -0.5411
17810TIP3    H174845   3.333   5.578   2.858  0.2059 -0.9279 -1.2061
17810TIP3    H274846   3.319   5.596   2.708  1.1715  2.0414 -1.0089
17811TIP3   OH274847   5.772   4.459  14.333 -0.0217  0.2147 -0.0341
17811TIP3    H174848   5.772   4.421  14.245  0.5757  0.6426 -0.2321
17811TIP3    H274849   5.852   4.512  14.335  0.6336 -0.7776  1.1988
17812TIP3   OH274850   0.306   6.027   3.842 -0.5083  0.4434 -0.4379
17812TIP3    H174851   0.220   6.049   3.807  0.1358  2.9616 -0.6269
17812TIP3    H274852   0.308   6.068   3.928 -0.4710 -2.0064  0.8258
17813TIP3   OH274853   0.389   0.396   2.155 -0.7091 -0.6447 -0.5053
17813TIP3    H174854   0.371   0.482   2.194  0.4186 -0.6711  0.1378
17813TIP3    H274855   0.442   0.351   2.222 -1.4681 -1.9268 -0.7365
17814TIP3   OH274856   1.523   6.436   0.965 -0.2220 -0.3377  0.3852
17814TIP3    H174857   1.428   6.435   0.969 -0.1860 -1.0271  1.3960
17814TIP3    H274858   1.544   6.521   0.925 -1.2546 -0.2583 -0.0170
17815TIP3   OH274859   3.334   0.580   0.665  0.2706  0.3558 -0.3125
17815TIP3    H174860   3.423   0.549   0.651 -0.2734 -1.1224 -0.7153
17815TIP3    H274861   3.312   0.629   0.585  0.0268 -1.0553 -1.1443
17816TIP3   OH274862   4.979   0.792   2.283 -0.5366 -0.5810  0.0167
17816TIP3    H174863   4.942   0.811   2.369  0.3849 -2.2244  0.8171
17816TIP3    H274864   4.974   0.697   2.275  1.4220 -0.6678 -0.7606
17817TIP3   OH274865   0.059   2.638   4.899  0.1519  0.7218 -0.5889
17817TIP3    H174866   0.025   2.607   4.815  0.2768  1.8301 -1.0611
17817TIP3    H274867  -0.016   2.678   4.942 -0.5018 -1.8181  0.8687
17818TIP3   OH274868   0.482   1.732   4.385  0.1871  0.0672 -0.7030
17818TIP3    H174869   0.558   1.762   4.335 -0.3924 -0.6806 -2.0770
17818TIP3    H274870   0.498   1.639   4.401  1.5964  0.7632  2.8467
17819TIP3   OH274871   3.446   3.948   1.174  0.2675 -0.3110 -0.3087
17819TIP3    H174872   3.374   3.901   1.132 -0.7528  0.7902  0.1356
17819TIP3    H274873   3.421   3.953   1.266  0.8351  0.2048 -0.1748
17820TIP3   OH274874   5.173   4.907   6.245  0.1166 -0.3059 -0.0059
17820TIP3    H174875   5.090   4.860   6.251 -0.8333  1.3332  0.0328
17820TIP3    H274876   5.224   4.874   6.320 -1.3540  0.2845  1.3131
17821TIP3   OH274877   4.048   1.195  13.809 -0.2079 -0.1800 -0.2503
17821TIP3    H174878   3.978   1.179  13.745 -1.2834  0.1362  0.7946
17821TIP3    H274879   4.015   1.155  13.890 -0.2381  1.9543  0.8536
17822TIP3   OH274880   4.112   5.211  16.348  0.6700  0.1376  0.5085
17822TIP3    H174881   4.070   5.274  16.289 -1.6846 -0.8884  0.9696
17822TIP3    H274882   4.117   5.256  16.432 -1.1191 -0.2746  0.8696
17823TIP3   OH274883   2.698   6.670  13.039  0.3503 -0.2373 -0.4065
17823TIP3    H174884   2.657   6.630  13.115 -0.7463  0.0744 -0.8075
17823TIP3    H274885   2.701   6.763  13.060  0.7032 -0.2405 -0.4473
17824TIP3   OH274886   3.077   0.068   0.527 -0.3333  0.4123 -0.2582
17824TIP3    H174887   3.069  -0.007   0.585  1.0985 -0.4244 -1.0955
17824TIP3    H274888   3.170   0.073   0.506 -0.6737  1.3035 -1.6871
17825TIP3   OH274889   6.110   1.491   1.664  0.2796 -0.9306 -0.4510
17825TIP3    H174890   6.034   1.504   1.720  0.9523 -1.9701  0.7574
17825TIP3    H274891   6.122   1.575   1.620 -0.2394 -0.0407  1.0304
17826TIP3   OH274892   4.248   0.236   1.732 -0.0281 -0.1512  0.6006
17826TIP3    H174893   4.287   0.234   1.645  0.9574 -1.8926  1.0159
17826TIP3    H274894   4.163   0.192   1.722  0.1389 -0.4625  0.5259
17827TIP3   OH274895   2.865   4.245  13.061  0.3070 -0.2522  0.3985
17827TIP3    H174896   2.787   4.229  13.113  1.5553 -0.0245  2.4620
17827TIP3    H274897   2.916   4.165  13.068 -0.2324 -0.8783 -1.9741
17828TIP3   OH274898   5.093   3.674   3.892  0.2521  0.2964 -0.0656
17828TIP3    H174899   5.151   3.709   3.824  1.3630  2.4533  1.8479
17828TIP3    H274900   5.008   3.714   3.875 -0.0324 -0.7838 -1.3240
17829TIP3   OH274901   6.610   2.855  16.266 -0.1271  0.2328  0.0210
17829TIP3    H174902   6.574   2.892  16.185  0.2862  0.8843  0.1300
17829TIP3    H274903   6.657   2.927  16.307 -0.9491  0.1253  1.2131
17830TIP3   OH274904   3.093   1.485  16.532  0.4763 -0.0593 -0.4493
17830TIP3    H174905   3.060   1.492  16.621  2.0005  1.2036  0.0692
17830TIP3    H274906   3.093   1.575  16.499  3.0700  0.0037 -0.4774
17831TIP3   OH274907   1.456   5.359   4.274  0.3446 -0.0210  0.0337
17831TIP3    H174908   1.394   5.370   4.346  1.4772 -0.5408  1.1440
17831TIP3    H274909   1.462   5.264   4.262 -1.5867  0.0541 -2.4059
17832TIP3   OH274910   5.230   3.292  11.893  0.0058  0.0077  0.5010
17832TIP3    H174911   5.311   3.312  11.847 -1.0393  0.7693 -1.1406
17832TIP3    H274912   5.225   3.196  11.893  0.1302 -0.0284 -0.9098
17833TIP3   OH274913   6.027   5.097  16.041  0.9140 -0.2511 -0.1979
17833TIP3    H174914   6.081   5.018  16.035  0.5750 -0.4600 -0.5103
17833TIP3    H274915   5.937   5.065  16.039  0.7571  0.2104 -1.4964
17834TIP3   OH274916   0.571   4.334   5.372 -0.0961  0.5214  0.5327
17834TIP3    H174917   0.542   4.243   5.372  1.6342 -0.1250 -1.5791
17834TIP3    H274918   0.503   4.381   5.323  0.4150 -0.2345 -0.9706
17835TIP3   OH274919   0.269   1.753   0.210 -0.0608 -0.4273  0.0777
17835TIP3    H174920   0.292   1.661   0.200 -0.2265 -0.6349  1.3941
17835TIP3    H274921   0.221   1.757   0.293 -2.3096  0.4243 -1.1483
17836TIP3   OH274922   4.354   1.937  12.844  0.6419 -0.5432  0.7276
17836TIP3    H174923   4.332   1.938  12.751  1.4837 -0.4749  0.5259
17836TIP3    H274924   4.348   1.845  12.869  1.4634 -0.7094  0.3442
17837TIP3   OH274925   1.066   5.609   0.403 -0.8443 -0.1540  0.7959
17837TIP3    H174926   1.136   5.589   0.466 -1.5757 -0.1811  1.6300
17837TIP3    H274927   1.105   5.671   0.342  0.4059 -1.3925  0.2626
17838TIP3   OH274928   1.400   3.684   5.415  0.0549  0.2813  0.4097
17838TIP3    H174929   1.399   3.592   5.443  0.8937  0.4276  0.9336
17838TIP3    H274930   1.375   3.681   5.322 -1.0920 -0.3585  0.7151
17839TIP3   OH274931   2.025   6.561   2.431 -0.4243  0.6395 -0.0358
17839TIP3    H174932   2.100   6.603   2.474 -0.1093 -0.5975  0.6629
17839TIP3    H274933   2.019   6.605   2.346  1.2478  0.5978 -0.2127
17840TIP3   OH274934   5.463   1.280   3.000  0.2058 -0.1850 -0.2864
17840TIP3    H174935   5.514   1.357   2.972 -0.2924 -0.6285 -2.6113
17840TIP3    H274936   5.372   1.303   2.979 -0.4210 -0.1333  2.1362
17841TIP3   OH274937   6.233   2.062  17.132  0.7109 -0.2589  0.4986
17841TIP3    H174938   6.285   2.011  17.070  0.6571 -0.6006  0.7285
17841TIP3    H274939   6.275   2.045  17.217  0.5428 -0.1190  0.6109
17842TIP3   OH274940   2.365   2.846   4.726 -0.0616  0.1504 -0.2755
17842TIP3    H174941   2.399   2.842   4.816  1.7784  2.4191 -0.7922
17842TIP3    H274942   2.440   2.824   4.671 -1.1828 -1.2750 -1.3274
17843TIP3   OH274943   5.628   2.943  11.031 -0.2707  0.1834 -0.3116
17843TIP3    H174944   5.660   3.000  10.961 -0.1681 -1.0570 -1.3180
17843TIP3    H274945   5.537   2.968  11.043 -0.2345  0.5384 -0.7550
17844TIP3   OH274946   0.105   3.512   1.683  0.1262 -0.4415 -0.7251
17844TIP3    H174947   0.068   3.587   1.727 -0.3786 -0.6111 -0.8592
17844TIP3    H274948   0.035   3.447   1.682  0.5426 -0.8972 -0.6468
17845TIP3   OH274949   1.351   6.197   3.063 -0.2308 -0.0474  0.0388
17845TIP3    H174950   1.326   6.230   2.977 -1.5433 -0.4378  0.2455
17845TIP3    H274951   1.383   6.274   3.110  0.2336  0.2134 -0.7022
17846TIP3   OH274952   0.680   0.100  16.734 -1.2238 -0.1281  0.5919
17846TIP3    H174953   0.690   0.005  16.729 -2.1950 -0.1892 -1.3866
17846TIP3    H274954   0.767   0.132  16.757 -0.7792 -1.4631  0.8637
17847TIP3   OH274955   5.052   5.531  13.592  0.1608 -0.2455  0.5747
17847TIP3    H174956   4.975   5.475  13.604  0.0017 -0.0579  0.4275
17847TIP3    H274957   5.124   5.469  13.577  0.0569 -0.4238  0.7962
17848TIP3   OH274958   2.730   0.815   6.129 -0.5637 -0.3675  0.3105
17848TIP3    H174959   2.661   0.860   6.081  2.0868  2.7940 -0.9311
17848TIP3    H274960   2.775   0.762   6.063 -0.0251 -0.0607  0.4203
17849TIP3   OH274961   0.255   6.715   5.924  0.0942 -0.1680 -0.2658
17849TIP3    H174962   0.207   6.639   5.955  0.6710 -0.9053 -1.1551
17849TIP3    H274963   0.265   6.770   6.002 -0.9957 -0.6276  0.2156
17850TIP3   OH274964   1.453   2.655  14.897  0.2035  0.5002 -0.2515
17850TIP3    H174965   1.537   2.611  14.916 -0.9422 -0.8389  2.2202
17850TIP3    H274966   1.436   2.708  14.975 -1.6899 -0.0236 -0.2688
17851TIP3   OH274967   2.378   6.554   5.370  0.9138 -0.4207  0.0098
17851TIP3    H174968   2.405   6.558   5.278  0.0647 -1.0565 -0.2785
17851TIP3    H274969   2.313   6.623   5.379 -0.0920 -1.2939 -0.2658
17852TIP3   OH274970   1.799   2.301   1.865  0.3555  0.4652 -0.0125
17852TIP3    H174971   1.728   2.255   1.820  0.9343 -1.1210  0.6262
17852TIP3    H274972   1.797   2.390   1.829 -1.4026  0.2199 -0.6190
17853TIP3   OH274973   4.277   3.445   3.776  0.0152  0.4561 -0.5150
17853TIP3    H174974   4.206   3.426   3.837  1.3393  1.0897  1.2945
17853TIP3    H274975   4.283   3.367   3.721 -0.7328 -0.4380  0.6307
17854TIP3   OH274976   3.855   3.249   4.756  0.3893  0.0626  0.7605
17854TIP3    H174977   3.797   3.321   4.732  1.5643  0.4083 -1.3168
17854TIP3    H274978   3.830   3.178   4.697  2.2683  0.3613 -0.5000
17855TIP3   OH274979   4.934   1.201  12.271  0.3393 -0.9096 -0.3582
17855TIP3    H174980   4.958   1.278  12.219  1.3775 -0.4221  0.7949
17855TIP3    H274981   4.975   1.216  12.356 -0.5452 -2.1295  0.3102
17856TIP3   OH274982   2.998   4.231  14.613  0.2216  0.3344  1.1411
17856TIP3    H174983   2.938   4.302  14.592  0.5140 -0.0840 -1.4389
17856TIP3    H274984   3.085   4.271  14.611  0.3843 -0.0315 -0.2858
17857TIP3   OH274985   3.846   5.930  12.876  0.2698  0.4756 -0.4037
17857TIP3    H174986   3.930   5.892  12.851 -0.3790 -0.0121 -1.9707
17857TIP3    H274987   3.845   5.926  12.972  2.4264  1.3988 -0.2890
17858TIP3   OH274988   3.509   6.561   2.044 -0.2567 -0.2928 -0.0030
17858TIP3    H174989   3.437   6.590   2.100 -0.0812  0.2898 -0.0759
17858TIP3    H274990   3.468   6.546   1.959 -0.2978  0.0186 -0.0392
17859TIP3   OH274991   3.027   5.769   2.622 -0.5115 -0.0451  0.2044
17859TIP3    H174992   3.027   5.694   2.562  0.7318  1.4817 -1.8173
17859TIP3    H274993   3.106   5.757   2.675 -0.5891 -0.4068  0.2405
17860TIP3   OH274994   2.295   1.315  12.332 -0.2754 -0.4197  0.0280
17860TIP3    H174995   2.386   1.287  12.331  0.2469  1.1449 -1.5879
17860TIP3    H274996   2.250   1.253  12.276 -0.3789 -1.6263  1.4039
17861TIP3   OH274997   4.085   1.382   1.991  0.5427 -0.2474 -0.3215
17861TIP3    H174998   4.038   1.436   2.054  2.2640  3.2571 -1.7422
17861TIP3    H274999   4.173   1.372   2.029  0.3852 -1.7782 -0.2967
17862TIP3   OH275000   5.569   5.228  14.238  0.1178 -0.0379 -0.5401
17862TIP3    H175001   5.503   5.191  14.180  1.2836 -1.6966 -0.8810
17862TIP3    H275002   5.597   5.155  14.293  0.5947  0.9848  0.6332
17863TIP3   OH275003   6.267   4.985  14.780 -0.3218  0.5396  0.3150
17863TIP3    H175004   6.322   4.976  14.858  0.6900  2.2029 -0.1592
17863TIP3    H275005   6.180   4.956  14.809 -0.1864  1.9122  2.3138
17864TIP3   OH275006   0.127   2.870  16.171  0.3635 -0.4586  0.0595
17864TIP3    H175007   0.064   2.827  16.228 -0.1321 -1.3003 -1.0771
17864TIP3    H275008   0.161   2.943  16.222  0.2110 -1.3982  1.5500
17865TIP3   OH275009   4.899   1.867  13.464  0.3699 -0.1585  0.1700
17865TIP3    H175010   4.878   1.908  13.380 -0.3541  0.6043  0.7179
17865TIP3    H275011   4.926   1.939  13.520 -0.6474 -0.4488  1.0578
17866TIP3   OH275012   2.235   5.275  12.171  0.0576 -0.4398  0.3361
17866TIP3    H175013   2.261   5.281  12.079  0.6712  0.4990  0.5659
17866TIP3    H275014   2.285   5.202  12.206 -0.9062 -1.4382 -0.3026
17867TIP3   OH275015   2.764   0.803   0.024 -0.6116 -0.1219  0.1212
17867TIP3    H175016   2.709   0.784   0.101 -0.8638 -0.8583 -0.2332
17867TIP3    H275017   2.845   0.755   0.040  0.1332  1.3068  0.8463
17868TIP3   OH275018   1.251   5.753   4.636  0.3024 -0.2446  0.0894
17868TIP3    H175019   1.250   5.677   4.695  1.6939  0.1222  0.6372
17868TIP3    H275020   1.222   5.826   4.690 -0.1970 -0.2294 -0.1971
17869TIP3   OH275021   4.199   6.104   4.584 -0.5070  0.1168 -0.1691
17869TIP3    H175022   4.132   6.079   4.520  0.0886 -0.4648 -0.5697
17869TIP3    H275023   4.188   6.199   4.593 -2.2274 -0.1156  0.7341
17870TIP3   OH275024   5.331   2.958   5.282  0.5478  0.2166  0.9925
17870TIP3    H175025   5.346   2.907   5.203  3.5257  2.9657 -0.4230
17870TIP3    H275026   5.348   2.897   5.354  1.2709 -1.4439 -0.5286
17871TIP3   OH275027   6.093   4.302  12.469  0.1136  0.0538  0.0125
17871TIP3    H175028   6.065   4.316  12.559 -1.0963  0.2059 -0.3726
17871TIP3    H275029   6.169   4.361  12.459 -1.5108  2.2936  0.0898
17872TIP3   OH275030   1.019   5.813  16.554  0.0258  0.1181  0.0254
17872TIP3    H175031   1.072   5.853  16.623  0.9968  0.0961 -0.6769
17872TIP3    H275032   0.997   5.726  16.587  1.1574 -0.1936 -0.0026
17873TIP3   OH275033   4.401   2.452  12.723 -0.7851 -0.2865  0.1873
17873TIP3    H175034   4.436   2.481  12.807 -0.8343 -1.8137  0.7630
17873TIP3    H275035   4.350   2.374  12.744  1.4950 -2.4121 -1.5728
17874TIP3   OH275036   3.194   4.198   1.891  0.1008 -0.0407 -0.0730
17874TIP3    H175037   3.178   4.280   1.937 -0.7778  0.1522 -0.6828
17874TIP3    H275038   3.106   4.163   1.873  0.4669 -1.1219  0.1941
17875TIP3   OH275039   4.355   2.828   4.822  0.1201 -0.4275 -0.1439
17875TIP3    H175040   4.430   2.846   4.880  0.5229  0.0912 -0.8137
17875TIP3    H275041   4.372   2.740   4.788  0.0484 -0.6036  0.2586
17876TIP3   OH275042   4.134   4.411  15.369 -0.3181  0.2502  0.0126
17876TIP3    H175043   4.134   4.433  15.275  1.2929  0.2576 -0.0100
17876TIP3    H275044   4.052   4.449  15.402 -1.4814 -0.7456 -1.5964
17877TIP3   OH275045   1.547   5.752   2.397  0.3015 -0.4526  0.1222
17877TIP3    H175046   1.642   5.748   2.410  0.2385 -0.7351  0.5162
17877TIP3    H275047   1.530   5.844   2.375  0.4387  0.0473  1.9636
17878TIP3   OH275048   4.012   6.637   4.085 -0.7760 -0.2223 -0.2006
17878TIP3    H175049   4.051   6.564   4.132 -1.5362 -0.3378  0.2468
17878TIP3    H275050   3.964   6.597   4.012 -1.2096 -0.1732  0.0566
17879TIP3   OH275051   4.215   3.001   2.586  0.8703  0.0216 -0.0260
17879TIP3    H175052   4.241   3.070   2.646 -0.1909  1.4941 -1.1840
17879TIP3    H275053   4.134   2.966   2.624  0.3074  0.8177 -0.4559
17880TIP3   OH275054   6.168   4.337  13.633  0.1946  0.0592  0.2672
17880TIP3    H175055   6.090   4.376  13.673  1.2534  2.5286  0.1317
17880TIP3    H275056   6.175   4.381  13.549  2.6172  1.1356  0.9636
17881TIP3   OH275057   0.266   5.767  13.847 -0.3323 -0.1623 -0.1232
17881TIP3    H175058   0.264   5.772  13.752  3.4762 -0.3219 -0.3564
17881TIP3    H275059   0.338   5.707  13.867 -1.3605 -0.5833  2.8895
17882TIP3   OH275060   2.561   2.955   5.219 -0.6812 -0.0540  0.7478
17882TIP3    H175061   2.505   2.925   5.291  0.0461 -1.6303  0.6991
17882TIP3    H275062   2.649   2.927   5.244 -0.1135  1.1260  0.1535
17883TIP3   OH275063   5.733   3.571   4.642  0.1024  1.0528  0.1887
17883TIP3    H175064   5.825   3.593   4.623  0.4369 -1.2791 -1.4483
17883TIP3    H275065   5.738   3.490   4.693 -1.0329  1.0323  0.2846
17884TIP3   OH275066   1.987   3.426   1.522  0.1245  0.3634 -0.0068
17884TIP3    H175067   2.056   3.469   1.472 -0.6672  1.8445  0.1308
17884TIP3    H275068   2.034   3.373   1.587  1.1404 -0.4904 -1.3798
17885TIP3   OH275069   5.742   3.057  13.462 -0.1727  0.6883 -0.3744
17885TIP3    H175070   5.676   3.010  13.513 -1.4055  0.1917 -2.2863
17885TIP3    H275071   5.826   3.025  13.494 -0.9329 -0.9257  0.1182
17886TIP3   OH275072   5.893   6.728   2.740 -0.0304  0.2871 -0.1567
17886TIP3    H175073   5.875   6.755   2.650  0.7601  0.0855 -0.3912
17886TIP3    H275074   5.883   6.808   2.792  2.4920  1.1599 -0.8686
17887TIP3   OH275075   0.583   1.558  16.639 -0.5088 -0.0656 -0.2255
17887TIP3    H175076   0.577   1.574  16.545 -0.8214  0.1130 -0.1768
17887TIP3    H275077   0.492   1.548  16.667 -0.3681 -1.1616 -0.1235
17888TIP3   OH275078   2.991   1.710  12.621 -0.3169  0.7859  0.3859
17888TIP3    H175079   3.078   1.703  12.583 -0.7542 -1.3248 -0.3464
17888TIP3    H275080   2.944   1.634  12.588 -2.3148  1.6323  1.1280
17889TIP3   OH275081   5.186   0.915  13.381 -0.7652 -0.6604  0.7034
17889TIP3    H175082   5.165   0.847  13.318 -2.8279 -0.7607  1.4439
17889TIP3    H275083   5.276   0.940  13.360 -1.4132 -0.5494 -2.3826
17890TIP3   OH275084   4.052   1.380  16.115 -0.1679  0.4055  0.5054
17890TIP3    H175085   4.094   1.458  16.077  1.0382 -1.1928 -1.7139
17890TIP3    H275086   4.101   1.363  16.195  2.2194 -0.2292 -0.9909
17891TIP3   OH275087   5.774   6.379  14.464  0.7587  0.3399 -0.3938
17891TIP3    H175088   5.692   6.387  14.415  0.0653  0.8570  0.8066
17891TIP3    H275089   5.764   6.298  14.514  1.1582  0.1827 -0.5713
17892TIP3   OH275090   1.599   2.882   2.300  0.1645 -0.1526  0.1006
17892TIP3    H175091   1.517   2.843   2.271  0.6987 -1.1877 -0.0568
17892TIP3    H275092   1.573   2.948   2.364 -0.9342  1.1772 -1.6433
17893TIP3   OH275093   2.211   0.025  12.425 -0.3860  0.1804  0.1523
17893TIP3    H175094   2.201  -0.070  12.435  0.4025 -0.0080 -0.6763
17893TIP3    H275095   2.256   0.053  12.504  1.5327 -0.5368 -0.6177
17894TIP3   OH275096   0.090   5.966  15.573 -0.0141  0.0167  0.1421
17894TIP3    H175097   0.015   6.022  15.552  0.1652  1.1109  2.1474
17894TIP3    H275098   0.165   6.013  15.536 -0.0388  0.2964  0.4397
17895TIP3   OH275099   5.257   1.419  14.455 -1.0667 -0.6966  0.6949
17895TIP3    H175100   5.351   1.412  14.442 -1.4637 -2.0254 -2.2480
17895TIP3    H275101   5.229   1.488  14.395 -2.0673 -0.9632  0.8366
17896TIP3   OH275102   2.649   1.865  13.144 -0.0454 -0.4069 -0.4394
17896TIP3    H175103   2.598   1.930  13.192 -0.3983 -0.8719 -0.1746
17896TIP3    H275104   2.613   1.781  13.173  0.3471 -0.7145 -0.8425
17897TIP3   OH275105   0.888   6.730   1.952  0.4524  0.7128  0.0799
17897TIP3    H175106   0.936   6.787   1.892 -1.6561 -0.7623 -3.3105
17897TIP3    H275107   0.862   6.655   1.898 -1.4252 -0.8701  2.9448
17898TIP3   OH275108   0.297   1.625   5.018 -0.1819  0.5660 -0.1523
17898TIP3    H175109   0.391   1.633   5.000 -0.2348  1.5802  0.0085
17898TIP3    H275110   0.281   1.530   5.016  1.1435  0.2634  1.3054
17899TIP3   OH275111   5.560   3.752   4.595  0.4117  0.1809 -0.0699
17899TIP3    H175112   5.626   3.684   4.591  0.5119  0.2599  0.2248
17899TIP3    H275113   5.566   3.786   4.684 -0.3662 -0.1548  0.1186
17900TIP3   OH275114   3.867   2.734  15.971  0.7506 -0.0457  0.0921
17900TIP3    H175115   3.866   2.828  15.955 -2.6603 -0.0081 -0.2860
17900TIP3    H275116   3.930   2.722  16.042  1.5409  2.4330 -0.0830
17901TIP3   OH275117   5.488   3.984  11.662 -0.2948 -0.1469  0.4375
17901TIP3    H175118   5.506   3.890  11.662 -0.8508 -0.2743  1.9113
17901TIP3    H275119   5.560   4.021  11.611 -0.6672 -1.4551 -1.1390
17902TIP3   OH275120   3.132   2.371  14.510 -0.2899  0.1043  0.2597
17902TIP3    H175121   3.076   2.444  14.483 -1.0436 -0.8934 -0.9584
17902TIP3    H275122   3.186   2.408  14.579 -3.0943  0.8957  2.2381
17903TIP3   OH275123   5.696   1.792  13.204  0.0248 -0.0612  0.8315
17903TIP3    H175124   5.612   1.787  13.159  0.0930 -2.1000  0.8706
17903TIP3    H275125   5.745   1.715  13.174  1.3831  0.3843  1.7926
17904TIP3   OH275126   5.451   3.387  15.066 -0.0326  0.6586  0.3748
17904TIP3    H175127   5.448   3.482  15.069  0.7461  0.6753  0.6675
17904TIP3    H275128   5.532   3.363  15.110 -1.0368 -0.2200  1.8663
17905TIP3   OH275129   0.068   0.903  15.616 -0.2085  0.6170 -0.4417
17905TIP3    H175130   0.138   0.861  15.666 -0.5781  1.1663  0.5880
17905TIP3    H275131   0.076   0.868  15.528  1.5167  0.8590 -0.4065
17906TIP3   OH275132   5.915   5.981  15.939  0.0232 -0.2269 -0.0883
17906TIP3    H175133   6.000   5.945  15.914 -0.6380 -2.2529  0.3645
17906TIP3    H275134   5.852   5.913  15.915 -1.3187  0.6311  0.8360
17907TIP3   OH275135   4.107   6.483   1.098 -0.5674 -0.1898  0.4698
17907TIP3    H175136   4.015   6.500   1.074 -0.6980 -1.1882  0.2349
17907TIP3    H275137   4.107   6.488   1.194 -0.7255  0.4665  0.4450
17908TIP3   OH275138   6.196   2.368  16.913  0.1265  0.0258  0.5859
17908TIP3    H175139   6.123   2.330  16.864  0.3331 -0.0033  0.2995
17908TIP3    H275140   6.273   2.349  16.859 -0.0308  3.1884 -0.9471
17909TIP3   OH275141   1.963   3.139   0.573  0.0980  0.4035 -0.1321
17909TIP3    H175142   1.914   3.085   0.635  1.1946  0.3607  0.7334
17909TIP3    H275143   1.995   3.078   0.507  2.0359 -0.2126  1.2920
17910TIP3   OH275144   6.215   2.784   6.469 -0.1464 -0.1661  0.8116
17910TIP3    H175145   6.282   2.717   6.485  0.8750  0.6020 -0.1286
17910TIP3    H275146   6.133   2.743   6.497  0.3105 -2.1833 -0.6278
17911TIP3   OH275147   2.650   1.502  15.286 -0.2701  0.2609 -0.5770
17911TIP3    H175148   2.687   1.432  15.231 -1.1745 -0.0411 -0.8187
17911TIP3    H275149   2.584   1.458  15.340 -1.8430  1.1181 -1.6938
17912TIP3   OH275150   5.155   3.775  13.783  0.2810 -1.0429  0.1813
17912TIP3    H175151   5.179   3.836  13.712  2.5165 -0.2401  1.5308
17912TIP3    H275152   5.060   3.767  13.776 -0.0407  2.0386 -0.5576
17913TIP3   OH275153   2.314   3.795   2.237  0.4365 -0.3118  0.8069
17913TIP3    H175154   2.383   3.756   2.184 -1.0572 -1.1188 -0.6327
17913TIP3    H275155   2.282   3.869   2.185  1.0276  0.8523  2.0340
17914TIP3   OH275156   6.307   6.598   4.035 -0.4271 -0.8698  0.4300
17914TIP3    H175157   6.243   6.664   4.008 -1.2672 -0.8730  2.2743
17914TIP3    H275158   6.310   6.537   3.962 -1.7624 -0.3162 -0.1283
17915TIP3   OH275159   1.562   4.013  12.972  0.3447  0.0748 -0.0959
17915TIP3    H175160   1.520   4.004  13.057  1.4492 -0.0793  0.4438
17915TIP3    H275161   1.648   3.972  12.982  0.5933  0.2811 -1.2070
17916TIP3   OH275162   4.353   5.985  11.641  0.3848 -0.7056  0.0728
17916TIP3    H175163   4.414   5.919  11.673  0.2460 -0.7793  0.1889
17916TIP3    H275164   4.328   5.955  11.554  3.0211  0.9853 -1.4030
17917TIP3   OH275165   1.731   0.492  13.464 -0.0386 -0.6184 -0.0773
17917TIP3    H175166   1.808   0.524  13.512  0.2757 -2.2897  0.5936
17917TIP3    H275167   1.696   0.422  13.519 -1.2408 -0.8204 -1.0530
17918TIP3   OH275168   0.204   1.011  17.107 -0.6756  0.2171 -0.3813
17918TIP3    H175169   0.224   0.933  17.158  1.3035  2.3668  2.4680
17918TIP3    H275170   0.280   1.023  17.050  0.6428  1.7582  1.5936
17919TIP3   OH275171   4.675   6.587  13.571  0.5775 -0.6013  0.8163
17919TIP3    H175172   4.757   6.591  13.520  0.5880  0.0474  0.8768
17919TIP3    H275173   4.643   6.677  13.571  0.0446 -0.7896  1.0998
17920TIP3   OH275174   5.561   5.825  12.454 -0.0953  0.1425 -0.1607
17920TIP3    H175175   5.595   5.908  12.488  0.3402  0.1730 -0.6714
17920TIP3    H275176   5.516   5.786  12.529  0.1597  0.5874  0.2311
17921TIP3   OH275177   6.529   5.725   4.556  0.0619 -0.1505  0.2720
17921TIP3    H175178   6.555   5.816   4.570 -0.2330 -0.0497  0.1750
17921TIP3    H275179   6.465   5.708   4.625 -2.4779  0.7871 -1.6869
17922TIP3   OH275180   6.727   5.482  15.236 -0.7426  0.0864 -0.3277
17922TIP3    H175181   6.758   5.537  15.308  0.2601 -1.4396  0.4725
17922TIP3    H275182   6.787   5.500  15.164 -2.2000  2.1847 -1.1155
17923TIP3   OH275183   1.169   0.316  15.860 -0.4578 -0.5341 -0.6012
17923TIP3    H175184   1.182   0.277  15.773  1.3701 -1.1427 -0.1121
17923TIP3    H275185   1.210   0.253  15.920 -0.9170  0.2991  0.6245
17924TIP3   OH275186   3.213   5.901  16.743 -0.1006 -0.3845 -0.8328
17924TIP3    H175187   3.130   5.900  16.696 -0.3750 -0.1889 -0.3633
17924TIP3    H275188   3.224   5.992  16.770 -0.7767 -0.7802  0.9073
17925TIP3   OH275189   5.352   2.893  10.327 -0.1144 -0.0212  0.1078
17925TIP3    H175190   5.383   2.861  10.412  2.0853 -0.3434 -0.7493
17925TIP3    H275191   5.317   2.979  10.346 -1.7837 -0.9777  1.6909
17926TIP3   OH275192   6.543   3.135  11.782  0.0397 -1.0147 -0.0696
17926TIP3    H175193   6.560   3.168  11.694  0.7146 -1.0937  0.0255
17926TIP3    H275194   6.529   3.213  11.835 -2.9109 -0.9890 -0.7011
17927TIP3   OH275195   2.483   4.614  12.686 -0.2608 -0.2699 -0.4004
17927TIP3    H175196   2.452   4.698  12.653  1.0879 -0.3965 -2.0839
17927TIP3    H275197   2.432   4.549  12.638  0.4928 -0.4258 -1.0159
17928TIP3   OH275198   4.869   4.239  14.773 -0.2518 -0.2897  1.1744
17928TIP3    H175199   4.808   4.226  14.846  1.3338 -3.0788  2.1621
17928TIP3    H275200   4.904   4.327  14.787 -2.2327  0.4368  1.9584
17929TIP3   OH275201   2.577   3.540   4.420 -0.0429  0.6402 -0.5629
17929TIP3    H175202   2.514   3.608   4.444 -1.2777 -1.1474  1.6738
17929TIP3    H275203   2.622   3.519   4.502  0.5892 -0.9596 -1.2757
17930TIP3   OH275204   6.492   3.962   5.213 -0.1756  0.0227 -0.1418
17930TIP3    H175205   6.415   4.020   5.216 -0.4199 -0.2120 -1.3865
17930TIP3    H275206   6.475   3.904   5.139  2.2572  1.5082 -2.0417
17931TIP3   OH275207   4.885   0.999  14.843 -0.0206  0.0745 -0.3133
17931TIP3    H175208   4.864   0.993  14.750 -0.1283 -0.0667 -0.2782
17931TIP3    H275209   4.811   1.045  14.882  0.0173  0.1201 -0.2940
17932TIP3   OH275210   3.928   4.403  11.091 -0.1725 -0.3979 -0.5518
17932TIP3    H175211   3.966   4.422  11.177  1.6754 -0.3374 -1.3188
17932TIP3    H275212   3.881   4.483  11.067  1.5734  0.6354 -0.7232
17933TIP3   OH275213   4.478   1.763  16.142  0.3128 -0.0664 -0.0285
17933TIP3    H175214   4.468   1.829  16.073  2.4349  0.0091 -0.3153
17933TIP3    H275215   4.500   1.812  16.220 -0.8528 -0.2607  0.4540
17934TIP3   OH275216   3.463   0.643   2.502 -0.3815 -0.5939 -0.3152
17934TIP3    H175217   3.512   0.598   2.434 -0.0990 -2.7748  1.2288
17934TIP3    H275218   3.391   0.687   2.456  0.0743 -1.6043 -2.0433
17935TIP3   OH275219   2.966   5.014  14.255  0.3718 -0.2493  0.1556
17935TIP3    H175220   2.910   4.962  14.197 -0.3639 -0.0858  0.6984
17935TIP3    H275221   3.052   5.013  14.213  0.1028 -0.9926 -0.3991
17936TIP3   OH275222   3.092   3.673   3.745  0.4868 -0.3562 -0.3534
17936TIP3    H175223   3.045   3.602   3.701 -2.0349  0.0661  1.4447
17936TIP3    H275224   3.108   3.640   3.833 -1.0187  1.3443  0.6210
17937TIP3   OH275225   5.904   2.751   6.033 -0.3650 -0.3238 -0.1752
17937TIP3    H175226   5.838   2.813   6.001 -0.0405 -0.4040 -1.0375
17937TIP3    H275227   5.952   2.800   6.099 -1.1056 -0.1735  0.2570
17938TIP3   OH275228   1.697   1.606  15.025  0.3836 -0.1166 -0.3026
17938TIP3    H175229   1.723   1.689  15.064 -0.1865 -0.5299  1.0012
17938TIP3    H275230   1.661   1.555  15.097 -1.4006 -0.6279 -1.4741
17939TIP3   OH275231   3.660   2.534   0.071  0.3665  0.2770  0.5355
17939TIP3    H175232   3.586   2.575   0.026 -0.8014 -1.5104  0.7211
17939TIP3    H275233   3.722   2.516   0.000  0.8486  2.1189  0.4263
17940TIP3   OH275234   1.839   3.978   5.273 -0.3223  0.0338 -0.7675
17940TIP3    H175235   1.908   4.007   5.333 -1.1675  1.4129 -0.3904
17940TIP3    H275236   1.789   4.058   5.256 -1.3954 -0.7944 -1.5835
17941TIP3   OH275237   2.575   0.743  11.354  0.2486  0.1636  0.0318
17941TIP3    H175238   2.625   0.662  11.343  0.3713  0.2846 -0.3162
17941TIP3    H275239   2.592   0.793  11.274  1.6105  1.3028  0.9834
17942TIP3   OH275240   5.578   5.637   5.446 -0.2728  0.2526 -0.1650
17942TIP3    H175241   5.625   5.719   5.461 -0.4062  0.2330  0.3773
17942TIP3    H275242   5.646   5.572   5.430 -0.1904  0.6127 -1.3550
17943TIP3   OH275243   6.021   4.218  14.564  1.0539  0.4988 -0.5749
17943TIP3    H175244   5.936   4.260  14.575 -0.0601 -1.5225 -1.0206
17943TIP3    H275245   6.083   4.290  14.559 -0.5445  2.0095  0.4143
17944TIP3   OH275246   3.776   4.395  12.344 -0.0222  0.2728  0.4244
17944TIP3    H175247   3.736   4.477  12.316 -0.5389  0.0683  0.5588
17944TIP3    H275248   3.860   4.393  12.298  0.5214  1.4362  1.3266
17945TIP3   OH275249   1.820   3.478  15.108 -0.0587 -0.5580 -0.5204
17945TIP3    H175250   1.896   3.428  15.137 -1.1231 -0.6851  2.3742
17945TIP3    H275251   1.778   3.423  15.042  0.7458 -1.8516  0.0117
17946TIP3   OH275252   4.622   3.881   5.921  0.6577  0.4493 -0.1725
17946TIP3    H175253   4.690   3.948   5.928  0.5873  0.4176  1.0176
17946TIP3    H275254   4.597   3.862   6.012  0.3200 -0.8179 -0.5027
17947TIP3   OH275255   2.630   0.205  11.890 -0.4579 -0.0567 -0.4148
17947TIP3    H175256   2.542   0.168  11.884  0.0991 -1.1975 -2.4832
17947TIP3    H275257   2.642   0.252  11.808  0.1319  1.9223  0.7344
17948TIP3   OH275258   4.253   4.843   3.872  0.3614  0.5206 -0.4650
17948TIP3    H175259   4.250   4.756   3.911  1.4683 -0.2225 -1.9809
17948TIP3    H275260   4.308   4.894   3.932  0.4873 -0.0780 -0.0644
17949TIP3   OH275261   5.208   5.013  13.251  0.3911  0.1418  0.1328
17949TIP3    H175262   5.115   5.001  13.231  0.6061 -1.0098 -0.2363
17949TIP3    H275263   5.218   5.108  13.264 -1.0617  0.1497  1.3540
17950TIP3   OH275264   0.502   3.544   3.877  0.2283 -0.0567 -0.2729
17950TIP3    H175265   0.407   3.541   3.867  0.4963 -0.1721 -4.7220
17950TIP3    H275266   0.533   3.460   3.844  1.9682  0.3122  0.3074
17951TIP3   OH275267   6.357   1.791   0.299  0.5390 -0.1037 -0.2621
17951TIP3    H175268   6.323   1.799   0.210  1.1089 -0.4736 -0.5218
17951TIP3    H275269   6.327   1.870   0.344  0.2766  0.0998 -0.7912
17952TIP3   OH275270   2.935   0.087  16.754  0.1700 -0.0696 -0.5344
17952TIP3    H175271   2.995   0.026  16.712  0.4801  0.1258 -0.3783
17952TIP3    H275272   2.927   0.160  16.692 -1.7607 -1.1401 -1.6463
17953TIP3   OH275273   2.763   2.903   5.010  0.0121 -0.7319  0.1450
17953TIP3    H175274   2.674   2.869   4.994  0.5485 -1.8712 -0.5885
17953TIP3    H275275   2.787   2.868   5.096  0.1301 -1.2849 -0.1093
17954TIP3   OH275276   1.730   4.773   2.089  0.0177 -0.0708 -0.2990
17954TIP3    H175277   1.738   4.724   2.007 -1.4437  0.9453 -1.1089
17954TIP3    H275278   1.694   4.857   2.062 -2.2872 -0.3681  1.5648
17955TIP3   OH275279   0.423   4.011   2.669  0.5419  0.6063  0.1301
17955TIP3    H175280   0.447   3.919   2.675 -1.8839 -0.1568 -0.6335
17955TIP3    H275281   0.466   4.042   2.589  0.9852 -0.0109  0.1277
17956TIP3   OH275282   3.619   2.985  10.737  0.3752 -0.1848 -0.8240
17956TIP3    H175283   3.656   2.999  10.824  0.4908  1.0314 -1.0539
17956TIP3    H275284   3.695   2.988  10.678  0.6384 -3.3060 -0.8065
17957TIP3   OH275285   4.141   0.828  15.058  0.0579  0.6185  0.2958
17957TIP3    H175286   4.137   0.737  15.031 -0.1245  0.8016 -0.3350
17957TIP3    H275287   4.076   0.872  15.002  0.6154  1.2433  0.1208
17958TIP3   OH275288   4.425   2.652  14.666 -0.1097  0.4945  0.2921
17958TIP3    H175289   4.429   2.571  14.615 -2.1416  0.3442  0.3014
17958TIP3    H275290   4.516   2.667  14.694  0.3516 -1.6813  0.1478
17959TIP3   OH275291   6.398   2.399  12.100 -0.0769  0.7110  0.2939
17959TIP3    H175292   6.398   2.357  12.186  1.1735  0.2058  0.0723
17959TIP3    H275293   6.463   2.350  12.049  1.3226  2.7514 -0.0406
17960TIP3   OH275294   1.307   2.806  16.104  0.2592  0.2676 -0.0298
17960TIP3    H175295   1.243   2.823  16.174  0.5726 -0.5305  0.4645
17960TIP3    H275296   1.375   2.872  16.118  0.6402 -0.2889  0.8235
17961TIP3   OH275297   4.436   5.892  13.046  0.8005 -0.0633 -0.5062
17961TIP3    H175298   4.495   5.924  13.115 -0.2925 -0.8295  0.8539
17961TIP3    H275299   4.492   5.839  12.990  1.7051  0.4621 -0.1371
17962TIP3   OH275300   6.148   4.133   0.269 -0.2914 -0.4408 -0.0919
17962TIP3    H175301   6.104   4.198   0.323  0.6605  1.2460 -1.2735
17962TIP3    H275302   6.092   4.055   0.276 -1.4878  0.4912  1.3215
17963TIP3   OH275303   1.525   1.768   3.395  0.2668 -0.0747 -0.4078
17963TIP3    H175304   1.486   1.680   3.398 -1.6408  0.7156 -0.5936
17963TIP3    H275305   1.451   1.826   3.379  1.7196  1.4287 -2.0897
17964TIP3   OH275306   0.150   4.638   4.158  0.1579 -0.3814 -0.0546
17964TIP3    H175307   0.055   4.630   4.152 -0.1002 -0.1269  2.5197
17964TIP3    H275308   0.183   4.589   4.082 -1.9811 -1.0834 -0.6115
17965TIP3   OH275309   1.900   1.329   1.909  0.2695 -0.4525 -0.0168
17965TIP3    H175310   1.962   1.283   1.853 -0.6065 -1.1614 -0.4265
17965TIP3    H275311   1.936   1.319   1.998  0.2190 -1.7715 -0.1166
17966TIP3   OH275312   4.717   2.775  15.071  0.0071  0.1933 -0.4344
17966TIP3    H175313   4.638   2.723  15.086  0.7677  0.0836  5.3408
17966TIP3    H275314   4.783   2.711  15.042 -0.3444 -1.2714  1.7462
17967TIP3   OH275315   3.083   4.714   5.372 -0.2088 -0.1769  0.5345
17967TIP3    H175316   3.004   4.661   5.380  0.8715 -1.7637  1.5528
17967TIP3    H275317   3.153   4.650   5.356  0.8845  1.1594 -0.2385
17968TIP3   OH275318   1.963   2.212  15.198  0.3759 -0.1875  0.1381
17968TIP3    H175319   1.999   2.281  15.254 -1.5079  1.5759 -0.7069
17968TIP3    H275320   2.040   2.167  15.164  1.6359  0.6474  1.7308
17969TIP3   OH275321   1.210   4.626  13.464 -0.5035  0.0542 -0.0896
17969TIP3    H175322   1.188   4.686  13.393 -0.8860 -0.1192 -0.1212
17969TIP3    H275323   1.228   4.542  13.421 -0.7817 -0.0633  0.0141
17970TIP3   OH275324   1.231   1.098  13.180 -0.2579 -0.6018  0.5927
17970TIP3    H175325   1.322   1.087  13.151 -0.3318  0.6192 -0.1950
17970TIP3    H275326   1.211   1.189  13.160 -1.6381 -0.8321  0.8432
17971TIP3   OH275327   3.600   0.070   0.690  0.3720  0.1783 -0.0750
17971TIP3    H175328   3.567   0.000   0.746  1.8447 -0.0080  0.6013
17971TIP3    H275329   3.607   0.030   0.604 -0.9276  0.1710 -0.2038
17972TIP3   OH275330   5.001   0.497   2.285  0.0335 -0.0994  0.3354
17972TIP3    H175331   5.029   0.471   2.197 -0.7448 -1.0490  0.3440
17972TIP3    H275332   5.082   0.506   2.335  0.6381  2.2959 -0.9263
17973TIP3   OH275333   0.941   6.068   0.058 -0.3730 -0.5070 -0.2960
17973TIP3    H175334   0.974   5.979   0.042  0.7689 -0.1698  0.0812
17973TIP3    H275335   1.003   6.125   0.013 -0.4738  0.1452  0.3723
17974TIP3   OH275336   6.621   3.256  17.060  0.2991  0.0971 -0.7422
17974TIP3    H175337   6.648   3.304  16.981  1.1507 -0.5940 -0.8938
17974TIP3    H275338   6.667   3.172  17.054 -2.1708 -1.3153 -1.1524
17975TIP3   OH275339   5.797   2.812  12.750  0.0471  0.0461 -0.5926
17975TIP3    H175340   5.763   2.863  12.676 -1.5238  1.3604  0.9583
17975TIP3    H275341   5.730   2.746  12.767 -0.2943  0.6436  0.4948
17976TIP3   OH275342   4.248   1.960  16.998  0.0674  0.6422  0.2086
17976TIP3    H175343   4.205   2.029  16.947  0.0197 -0.5062 -1.3888
17976TIP3    H275344   4.328   1.941  16.949  0.2976 -0.1435  0.8745
17977TIP3   OH275345   5.074   4.437   2.646 -0.7983 -0.1329 -0.3952
17977TIP3    H175346   5.042   4.491   2.718 -0.7878  0.5585 -0.9038
17977TIP3    H275347   5.021   4.462   2.571  1.0819  1.2675 -1.3307
17978TIP3   OH275348   5.740   5.035  13.302 -0.0338 -0.3623 -0.0005
17978TIP3    H175349   5.749   5.038  13.397 -0.6794  1.7398  0.0337
17978TIP3    H275350   5.650   5.064  13.285  0.3005 -0.0199 -1.2888
17979TIP3   OH275351   2.794   6.671   0.681 -0.3035 -0.2221 -0.3373
17979TIP3    H175352   2.810   6.587   0.724 -1.1746 -0.6262 -0.7708
17979TIP3    H275353   2.721   6.710   0.730 -1.3054 -0.6881 -1.4070
17980TIP3   OH275354   0.551   6.604   2.080 -0.2950 -0.4505 -0.1899
17980TIP3    H175355   0.542   6.543   2.153 -0.0495 -0.2277  0.0291
17980TIP3    H275356   0.645   6.622   2.076 -0.0379 -1.9344 -1.7629
17981TIP3   OH275357   1.407   0.162   2.021  0.1364 -0.0324  0.2114
17981TIP3    H175358   1.340   0.115   1.970 -1.3023 -0.0602  2.0487
17981TIP3    H275359   1.379   0.253   2.019 -0.6858 -0.2150  2.0083
17982TIP3   OH275360   1.945   0.364  11.451 -0.5905 -0.1136 -0.4153
17982TIP3    H175361   1.877   0.362  11.384 -0.2001 -0.9515 -0.8079
17982TIP3    H275362   2.019   0.409  11.409 -0.8252  0.6191 -0.0586
17983TIP3   OH275363   1.648   0.960  11.004 -0.7873 -0.2766  0.8260
17983TIP3    H175364   1.678   1.039  10.959 -0.5187  1.0190  3.1452
17983TIP3    H275365   1.556   0.951  10.979 -0.9119  0.9667  0.7634
17984TIP3   OH275366   4.154   4.082   0.134  0.1170  0.0975  0.3912
17984TIP3    H175367   4.078   4.130   0.102 -1.1178 -1.7731  0.3797
17984TIP3    H275368   4.196   4.142   0.196 -1.2180  1.2641  0.2133
17985TIP3   OH275369   0.122   0.344   2.035  0.3158  0.2685  0.9218
17985TIP3    H175370   0.205   0.353   2.081  0.2805  1.2196  0.8089
17985TIP3    H275371   0.068   0.415   2.069 -1.0292 -1.2843  2.1972
17986TIP3   OH275372   2.788   5.026   3.790 -0.3101  0.0263 -0.2343
17986TIP3    H175373   2.754   5.094   3.849 -0.4535 -0.9050  0.7705
17986TIP3    H275374   2.877   5.011   3.819 -0.9565 -1.7233  0.9392
17987TIP3   OH275375   0.508   0.253   0.834 -0.6542  0.4036 -0.1619
17987TIP3    H175376   0.511   0.165   0.796  0.6387  0.1548  0.4611
17987TIP3    H275377   0.415   0.274   0.836 -0.8956 -0.2844 -1.8011
17988TIP3   OH275378   2.730   1.034  14.478  0.0747  0.1315  0.3435
17988TIP3    H175379   2.750   1.126  14.491 -1.0506  0.4596 -0.1146
17988TIP3    H275380   2.798   1.002  14.418  0.6688  0.5611  0.7793
17989TIP3   OH275381   0.300   3.026  13.435 -0.0536  0.1219 -0.0493
17989TIP3    H175382   0.211   3.062  13.438 -1.0331 -2.0640 -0.7640
17989TIP3    H275383   0.333   3.053  13.349  0.2184  1.3702  0.4170
17990TIP3   OH275384   6.597   3.564   5.387 -0.3223 -0.3946  0.1924
17990TIP3    H175385   6.584   3.658   5.378 -1.0561 -0.5133 -0.1784
17990TIP3    H275386   6.658   3.554   5.459  0.4863  0.3974 -0.3554
17991TIP3   OH275387   3.225   3.312   3.709 -0.8248 -0.4139  0.1812
17991TIP3    H175388   3.236   3.382   3.646  0.8184 -1.1064 -0.3461
17991TIP3    H275389   3.205   3.234   3.657 -1.9800 -0.5118  0.7149
17992TIP3   OH275390   4.635   5.013   1.808  0.3255  0.1694 -0.5776
17992TIP3    H175391   4.716   5.024   1.757 -0.6183  1.0646 -1.9279
17992TIP3    H275392   4.615   5.100   1.841 -0.2460  0.0056 -0.4857
17993TIP3   OH275393   0.682   3.685  12.936  0.1245 -0.3462 -0.1729
17993TIP3    H175394   0.746   3.618  12.960 -0.9550 -1.2391  0.3308
17993TIP3    H275395   0.644   3.654  12.854  1.2372  0.8531 -1.1747
17994TIP3   OH275396   6.572   4.961   5.073 -0.7269  0.0014 -0.6227
17994TIP3    H175397   6.502   4.908   5.109  0.3615 -2.6421 -2.1224
17994TIP3    H275398   6.624   4.987   5.149 -1.1323 -1.3782  0.1515
17995TIP3   OH275399   0.173   2.851   5.518 -0.2066  1.1500 -0.8032
17995TIP3    H175400   0.192   2.887   5.432  1.6813  0.9315 -0.5217
17995TIP3    H275401   0.227   2.772   5.524 -1.3747  0.3864  0.0548
17996TIP3   OH275402   3.046   0.189  14.180 -0.4581 -0.1395  0.2382
17996TIP3    H175403   3.085   0.276  14.183  0.5047 -0.5432 -0.1937
17996TIP3    H275404   3.042   0.161  14.272 -1.6036  0.6954  0.4676
17997TIP3   OH275405   2.737   1.883  15.977 -0.0226  0.2070 -0.2450
17997TIP3    H175406   2.704   1.910  16.063  1.2590 -0.9399  0.6537
17997TIP3    H275407   2.721   1.789  15.974  1.9201 -0.1601 -0.3049
17998TIP3   OH275408   0.463   3.990   0.639  0.7970 -0.8604  0.1342
17998TIP3    H175409   0.505   4.065   0.681  1.6938 -1.4725  0.3523
17998TIP3    H275410   0.453   3.926   0.709 -0.0067 -0.9334 -0.0419
17999TIP3   OH275411   3.623   5.546   3.680 -0.2974 -0.0327  0.7793
17999TIP3    H175412   3.692   5.607   3.705 -1.5133  0.9825  1.7611
17999TIP3    H275413   3.612   5.558   3.585  1.4140 -0.8213  0.4464
18000TIP3   OH275414   2.380   6.356  15.754 -0.5691 -0.2492  0.6399
18000TIP3    H175415   2.382   6.265  15.782  0.9853  0.0753  1.7102
18000TIP3    H275416   2.464   6.370  15.711 -1.1517  0.4576 -0.3063
18001TIP3   OH275417   0.006   6.613   6.058 -0.5697  0.1870 -0.3832
18001TIP3    H175418  -0.069   6.641   6.110 -1.2002 -2.6579  0.4051
18001TIP3    H275419   0.005   6.672   5.982 -1.5326  2.3876  1.2211
18002TIP3   OH275420   6.156   3.955   5.838 -0.0078  0.1947 -0.7193
18002TIP3    H175421   6.154   3.893   5.766  1.8228 -0.5841 -0.1803
18002TIP3    H275422   6.159   3.901   5.917  0.0993  0.9778 -0.1658
18003TIP3   OH275423   4.334   2.783   3.495 -0.0238 -0.3208  0.0053
18003TIP3    H175424   4.308   2.735   3.416  2.5737  0.5756 -1.5296
18003TIP3    H275425   4.265   2.847   3.508 -0.6082 -0.6062 -1.4636
18004TIP3   OH275426   3.886   5.356  15.288  0.2139  0.4725  0.0631
18004TIP3    H175427   3.798   5.331  15.316  0.4061 -0.6622 -0.2772
18004TIP3    H275428   3.941   5.344  15.365  0.3404 -0.4116 -0.1504
18005TIP3   OH275429   4.245   6.719  16.314 -0.4243 -0.2527 -0.0350
18005TIP3    H175430   4.160   6.678  16.326 -0.8417  0.4317 -0.5755
18005TIP3    H275431   4.225   6.806  16.279  0.4924 -0.0696 -0.1261
18006TIP3   OH275432   3.778   3.111  11.501  0.3938 -0.0368 -0.3747
18006TIP3    H175433   3.692   3.127  11.540  0.9610  0.4620  0.7342
18006TIP3    H275434   3.760   3.095  11.408 -1.2965 -3.7539  0.4082
18007TIP3   OH275435   0.061   2.576  12.085  0.0973 -0.2908  0.0178
18007TIP3    H175436   0.097   2.634  12.018  0.2876  0.4725  0.7661
18007TIP3    H275437   0.062   2.489  12.044  1.2610 -0.0253 -0.5663
18008TIP3   OH275438   3.941   1.421  10.531  0.0123 -0.2812 -0.2158
18008TIP3    H175439   3.909   1.416  10.441  0.4787  0.1601 -0.4071
18008TIP3    H275440   3.892   1.494  10.570  0.3242 -0.0068 -0.3283
18009TIP3   OH275441   0.691   0.500  15.899 -0.4023  0.0572  0.1430
18009TIP3    H175442   0.619   0.560  15.881  0.3717  0.7415 -0.7601
18009TIP3    H275443   0.701   0.501  15.994 -1.5915 -0.0728  0.2807
18010TIP3   OH275444   0.303   1.919   2.996  0.4952 -0.5959 -0.4596
18010TIP3    H175445   0.369   1.972   3.042 -2.0793  1.1610  1.5152
18010TIP3    H275446   0.224   1.929   3.049 -1.7157 -1.5600 -3.3462
18011TIP3   OH275447   5.205   3.584  16.561 -1.0468  0.0673  0.4538
18011TIP3    H175448   5.183   3.492  16.575  0.2817 -0.2666  0.5401
18011TIP3    H275449   5.150   3.632  16.623 -1.5582 -0.6930  0.5937
18012TIP3   OH275450   1.713   3.269  14.316  0.5460  0.6630 -0.0271
18012TIP3    H175451   1.740   3.361  14.319 -0.5532  1.0150 -0.3412
18012TIP3    H275452   1.751   3.236  14.235  0.1935  1.0969 -0.3758
18013TIP3   OH275453   4.441   5.247   2.659 -0.1179  0.1965  0.1393
18013TIP3    H175454   4.398   5.329   2.681 -1.0548  0.2669 -1.7988
18013TIP3    H275455   4.507   5.270   2.594 -0.6673 -0.6106 -0.7327
18014TIP3   OH275456   4.940   0.402   2.732 -0.1994 -0.2389  0.1999
18014TIP3    H175457   4.907   0.336   2.671 -0.4864  0.1455 -0.0658
18014TIP3    H275458   4.915   0.485   2.693  3.6442  0.2897 -1.6283
18015TIP3   OH275459   1.893   6.361   5.514  0.4649 -0.1909  0.1680
18015TIP3    H175460   1.882   6.402   5.428 -1.2167  0.2405  0.5424
18015TIP3    H275461   1.931   6.430   5.569 -1.2287  0.5394  0.4885
18016TIP3   OH275462   1.455   5.875  12.573  0.2574 -0.3457 -0.0863
18016TIP3    H175463   1.438   5.940  12.504  0.0994  1.5114  1.6150
18016TIP3    H275464   1.368   5.852  12.606  0.3837 -0.3791  0.2262
18017TIP3   OH275465   5.056   0.717   2.794 -0.0975  0.1080  0.0311
18017TIP3    H175466   4.975   0.701   2.746 -0.0007 -0.3605  0.0214
18017TIP3    H275467   5.030   0.776   2.865 -0.5140 -0.2898  0.2197
18018TIP3   OH275468   3.585   5.510   1.774 -0.4479 -0.1957 -0.1045
18018TIP3    H175469   3.495   5.523   1.805 -0.3847 -0.8495  0.3665
18018TIP3    H275470   3.578   5.438   1.711 -0.8200  1.9901 -2.7817
18019TIP3   OH275471   3.664   4.053  16.651 -0.0200  0.3093 -0.1124
18019TIP3    H175472   3.619   4.133  16.679 -1.3137  0.5170 -2.4779
18019TIP3    H275473   3.673   4.001  16.730 -2.2966  1.3308  0.9044
18020TIP3   OH275474   3.060   1.352  12.857  0.3379 -0.1927 -0.3485
18020TIP3    H175475   3.135   1.307  12.818  0.3891 -0.9826  0.6085
18020TIP3    H275476   2.986   1.292  12.842 -0.4429  1.1781 -2.4955
18021TIP3   OH275477   4.826   4.527   0.498  0.8866  0.1161  0.1071
18021TIP3    H175478   4.757   4.592   0.506  0.3976 -0.3969  0.1210
18021TIP3    H275479   4.900   4.574   0.460  0.1547  0.4089 -0.9880
18022TIP3   OH275480   5.548   6.644  12.616  0.0184 -0.4784  0.5434
18022TIP3    H175481   5.522   6.680  12.532  2.1866 -0.5941 -0.2316
18022TIP3    H275482   5.621   6.699  12.645  2.1215 -2.9383  0.2590
18023TIP3   OH275483   6.704   5.418  14.061  0.0258  0.4741  0.3887
18023TIP3    H175484   6.725   5.480  13.992 -1.8201  1.0081  0.2673
18023TIP3    H275485   6.624   5.374  14.032 -1.1416  1.1186  2.3771
18024TIP3   OH275486   4.172   1.970  15.826  0.0893 -0.1117 -0.5988
18024TIP3    H175487   4.231   2.030  15.782  0.3996 -0.9391 -1.3394
18024TIP3    H275488   4.103   2.026  15.863  1.2854  0.8511  0.2322
18025TIP3   OH275489   2.915   6.195  14.034 -0.2916  0.2022 -0.5653
18025TIP3    H175490   2.995   6.220  14.081 -0.9058  1.6597 -0.2484
18025TIP3    H275491   2.844   6.230  14.086 -1.2364 -1.8473 -0.3709
18026TIP3   OH275492   0.730   2.857   0.440 -0.3507  0.0065 -0.4045
18026TIP3    H175493   0.723   2.834   0.348 -0.5873 -0.4562 -0.2720
18026TIP3    H275494   0.655   2.815   0.482 -0.4114  0.4567 -0.0449
18027TIP3   OH275495   0.548   4.462  13.553  0.2413 -0.6976  0.2832
18027TIP3    H175496   0.560   4.407  13.475 -2.5097 -0.2859 -0.5084
18027TIP3    H275497   0.588   4.546  13.530 -1.0765 -0.3785 -0.9748
18028TIP3   OH275498   2.939   3.023   1.127 -0.4141  0.4301  0.1430
18028TIP3    H175499   2.920   3.116   1.120  1.3395  0.7929 -0.2622
18028TIP3    H275500   3.031   3.019   1.155 -0.4142 -1.1705  0.0206
18029TIP3   OH275501   3.208   6.213   1.435  0.0005  0.0293 -0.6536
18029TIP3    H175502   3.194   6.303   1.404  1.1980 -0.6128 -3.3191
18029TIP3    H275503   3.302   6.210   1.457  0.2178 -0.8130 -1.6147
18030TIP3   OH275504   5.321   0.232   0.601  0.1815  0.0226  0.1521
18030TIP3    H175505   5.346   0.287   0.676  1.9806 -1.1420  0.4890
18030TIP3    H275506   5.299   0.147   0.640  1.0444 -0.5685 -0.5917
18031TIP3   OH275507   4.375   3.239   4.214  0.1756 -0.5183  0.3981
18031TIP3    H175508   4.340   3.293   4.285  0.7622  1.5842 -0.8456
18031TIP3    H275509   4.468   3.262   4.209 -0.0731  0.2286 -1.7246
18032TIP3   OH275510   3.633   6.599   6.281  0.0017 -0.3409  0.6575
18032TIP3    H175511   3.638   6.635   6.193  0.1589 -2.0313 -0.0751
18032TIP3    H275512   3.721   6.565   6.298 -0.2348 -0.7342  1.1233
18033TIP3   OH275513   4.015   5.144  17.198  0.0850  0.2042  0.2147
18033TIP3    H175514   4.045   5.118  17.110  2.4545 -1.3203  1.3667
18033TIP3    H275515   3.935   5.093  17.212  0.2381 -0.3151 -0.6871
18034TIP3   OH275516   2.489   4.998   0.231  0.1451  0.2678 -0.2184
18034TIP3    H175517   2.469   5.066   0.167 -0.4767  0.7296  0.4516
18034TIP3    H275518   2.403   4.972   0.266  0.4497 -0.2345  0.1699
18035TIP3   OH275519   6.135   1.862   0.591 -0.2779  0.4001 -0.0240
18035TIP3    H175520   6.183   1.870   0.673 -1.5708  0.3893  0.7639
18035TIP3    H275521   6.178   1.923   0.532  0.4940  0.6198  0.7430
18036TIP3   OH275522   6.134   2.628   2.920  1.1047 -0.0483 -0.4698
18036TIP3    H175523   6.039   2.615   2.919  0.7921  1.7130  1.2756
18036TIP3    H275524   6.155   2.654   2.830 -0.2311  0.5361 -0.6374
18037TIP3   OH275525   1.752   5.351   4.977  0.0522  0.7229  0.1333
18037TIP3    H175526   1.674   5.296   4.977 -0.2426  1.1188 -1.0294
18037TIP3    H275527   1.825   5.289   4.989 -0.4038  0.3263  0.9325
18038TIP3   OH275528   1.507   3.959  13.230 -0.2022  0.3096  0.1979
18038TIP3    H175529   1.424   3.924  13.262 -0.5882 -1.4770 -2.4303
18038TIP3    H275530   1.530   4.028  13.292 -2.1551 -1.0894  2.6537
18039TIP3   OH275531   6.476   3.567   0.218  0.8554  0.1963  0.1717
18039TIP3    H175532   6.522   3.490   0.253 -0.4513 -0.5823  0.2538
18039TIP3    H275533   6.410   3.530   0.160 -0.6464  1.1597  1.1978
18040TIP3   OH275534   5.267   4.999   2.739  0.0752  0.2292 -0.5380
18040TIP3    H175535   5.239   4.981   2.649 -0.6111  0.0598 -0.2953
18040TIP3    H275536   5.211   4.944   2.793 -2.2002  3.0633  0.2642
18041TIP3   OH275537   2.486   2.054   5.460 -0.7271  0.7232  0.4071
18041TIP3    H175538   2.395   2.033   5.480 -0.8644  0.9365  0.0177
18041TIP3    H275539   2.506   2.131   5.514 -0.7471  0.6187  0.5629
18042TIP3   OH275540   3.491   0.313  12.750 -0.1545 -0.1280 -0.3258
18042TIP3    H175541   3.476   0.408  12.755 -2.1411 -0.4337  0.4161
18042TIP3    H275542   3.586   0.305  12.740  0.3537  1.8924  1.7222
18043TIP3   OH275543   3.641   2.516   0.434  0.0829 -0.1140  0.4069
18043TIP3    H175544   3.708   2.523   0.502  1.0967 -0.2756 -0.5478
18043TIP3    H275545   3.660   2.588   0.375 -1.0096  0.2379  0.4671
18044TIP3   OH275546   2.736   6.037   5.390  0.1636  0.6083  0.5120
18044TIP3    H175547   2.696   6.117   5.425 -2.2155  1.0248 -2.7465
18044TIP3    H275548   2.691   5.966   5.436 -0.7206  1.1155  0.4387
18045TIP3   OH275549   3.881   1.562   5.734 -0.2430 -0.1054 -0.0378
18045TIP3    H175550   3.948   1.496   5.712  1.0849  1.7010 -1.7900
18045TIP3    H275551   3.926   1.624   5.792 -1.0098  0.1037  0.3499
18046TIP3   OH275552   1.223   1.187  15.409 -1.0317  0.6190 -0.4638
18046TIP3    H175553   1.249   1.099  15.382 -0.7060  0.9125 -1.1130
18046TIP3    H275554   1.134   1.198  15.374 -0.9414  0.6730 -0.6798
18047TIP3   OH275555   5.771   2.691   3.973 -0.4493  0.3125  0.3383
18047TIP3    H175556   5.751   2.785   3.974  1.8201  0.8551  0.0607
18047TIP3    H275557   5.856   2.685   3.929  0.3260 -1.6892  1.9661
18048TIP3   OH275558   2.439   4.995  15.940  0.2636  0.0152 -0.0632
18048TIP3    H175559   2.424   5.019  15.849 -0.2471  1.1034  0.2904
18048TIP3    H275560   2.503   4.923  15.936  0.8187  0.5476 -1.2390
18049TIP3   OH275561   1.569   2.226  15.360 -0.6378 -0.2127  0.3788
18049TIP3    H175562   1.607   2.305  15.398 -0.3046  0.2130 -0.7960
18049TIP3    H275563   1.576   2.239  15.266  1.9964 -2.7969  0.0595
18050TIP3   OH275564   4.050   6.217  11.937  0.0516 -0.1611 -0.1446
18050TIP3    H175565   4.051   6.221  11.841  0.6493  0.8597 -0.1049
18050TIP3    H275566   4.136   6.180  11.960  0.1500  0.1705  0.0213
18051TIP3   OH275567   6.035   5.144   3.196  0.2188 -0.1572 -0.8264
18051TIP3    H175568   5.947   5.117   3.224 -0.3214  1.7132 -0.5648
18051TIP3    H275569   6.028   5.154   3.102 -0.5322  2.1395 -0.5744
18052TIP3   OH275570   3.891   5.546   1.270 -0.0126  0.1736  0.2629
18052TIP3    H175571   3.982   5.519   1.264 -0.0249  0.2731 -0.4842
18052TIP3    H275572   3.870   5.541   1.363  0.7964  0.3032  0.4570
18053TIP3   OH275573   2.196   1.673  11.607 -0.4351 -0.1258  0.1747
18053TIP3    H175574   2.174   1.760  11.574 -0.0787 -0.3738 -0.7616
18053TIP3    H275575   2.275   1.648  11.557 -0.6863 -1.0814  0.2415
18054TIP3   OH275576   6.333   6.296   3.554 -0.2683 -0.2180  0.0407
18054TIP3    H175577   6.269   6.225   3.558  1.3036 -1.7309 -0.2915
18054TIP3    H275578   6.313   6.342   3.472  0.6276 -2.3233 -1.4654
18055TIP3   OH275579   1.532   3.499  17.117  0.5819  0.2181  0.3671
18055TIP3    H175580   1.624   3.483  17.098  0.9211  0.3575  1.7789
18055TIP3    H275581   1.498   3.414  17.146  0.2592  0.1636 -0.1589
18056TIP3   OH275582   0.228   5.777  16.499 -0.4181  0.6586 -0.0128
18056TIP3    H175583   0.290   5.850  16.499 -0.4313  0.7210 -1.7413
18056TIP3    H275584   0.283   5.699  16.488 -0.5212  0.5473  0.2551
18057TIP3   OH275585   2.837   1.316  11.950  0.0423 -0.1563 -0.0794
18057TIP3    H175586   2.911   1.347  12.001  0.2239  0.5680 -0.7509
18057TIP3    H275587   2.765   1.308  12.013 -0.0715  1.8479  0.1307
18058TIP3   OH275588   1.176   2.447  14.325  0.0816 -0.3360 -0.1742
18058TIP3    H175589   1.110   2.494  14.275 -0.3670 -0.5343  0.2218
18058TIP3    H275590   1.215   2.513  14.383  0.1828 -0.2374 -0.3519
18059TIP3   OH275591   2.064   5.989   0.560  0.3399  0.2130  0.5013
18059TIP3    H175592   2.104   5.911   0.597  2.3120  1.7077  1.7150
18059TIP3    H275593   2.073   5.978   0.465  1.1649 -0.7622  0.6798
18060TIP3   OH275594   5.250   1.953  12.882 -0.1647 -1.2126 -0.4774
18060TIP3    H175595   5.240   2.047  12.868 -0.9902 -1.3167 -0.6550
18060TIP3    H275596   5.283   1.919  12.798  0.5387 -1.0278 -0.2799
18061TIP3   OH275597   0.727   5.452  11.781 -0.1304  0.3767  0.3098
18061TIP3    H175598   0.785   5.448  11.706 -1.0785  1.6301 -0.5404
18061TIP3    H275599   0.645   5.412  11.750 -0.0891 -0.3682  1.1295
18062TIP3   OH275600   6.558   6.625   4.961  0.1371  0.1925  0.2779
18062TIP3    H175601   6.518   6.649   4.877  0.7681  0.5636  0.0811
18062TIP3    H275602   6.589   6.707   4.997 -1.6285  0.3056  1.6995
18063TIP3   OH275603   6.365   0.210   1.801  0.7705  0.2141  0.2726
18063TIP3    H175604   6.428   0.168   1.860  0.4231 -0.3773  0.2369
18063TIP3    H275605   6.415   0.233   1.724  1.1659  0.7097  0.6714
18064TIP3   OH275606   2.471   1.155  12.112 -0.2358  0.1862 -0.0251
18064TIP3    H175607   2.524   1.078  12.133 -1.7673 -0.9175 -0.0847
18064TIP3    H275608   2.478   1.164  12.017 -0.3313 -0.0685 -0.0543
18065TIP3   OH275609   6.075   5.959  11.710 -0.3941  0.1972 -0.2341
18065TIP3    H175610   6.021   6.037  11.719  0.3941  0.8080 -0.6260
18065TIP3    H275611   6.077   5.941  11.616  0.6671  0.6242 -0.3086
18066TIP3   OH275612   4.466   0.162   5.911 -0.8740  0.3042  0.1094
18066TIP3    H175613   4.471   0.128   6.000 -2.4336 -1.4969 -0.4114
18066TIP3    H275614   4.555   0.190   5.890 -0.5864  1.2808  2.3924
18067TIP3   OH275615   1.742   3.296   0.455 -0.0894  0.0242  0.1899
18067TIP3    H175616   1.800   3.353   0.405  0.7837 -0.2574  0.8711
18067TIP3    H275617   1.776   3.208   0.442  1.3413  0.0967  2.7542
18068TIP3   OH275618   4.397   3.007   0.952 -0.6297 -0.5328 -0.1742
18068TIP3    H175619   4.385   2.935   0.890 -0.1265 -0.7297 -0.0501
18068TIP3    H275620   4.425   2.963   1.033  2.4154 -0.0286 -0.8367
18069TIP3   OH275621   1.407   0.795  14.684  0.3447 -0.4331  0.5650
18069TIP3    H175622   1.346   0.788  14.758 -0.3038  2.4687  0.4357
18069TIP3    H275623   1.379   0.726  14.623 -0.9882 -0.9937  1.7583
18070TIP3   OH275624   4.349   5.557   6.458 -0.3247 -0.2246  0.0040
18070TIP3    H175625   4.308   5.643   6.469  0.7407  0.6095 -2.0888
18070TIP3    H275626   4.281   5.494   6.483 -1.8086  1.1807 -0.3834
18071TIP3   OH275627   3.285   5.234  15.752  0.4612  0.1677  0.5300
18071TIP3    H175628   3.205   5.284  15.767  0.6677  0.2029  1.5895
18071TIP3    H275629   3.265   5.147  15.787  0.2744 -0.3778 -0.8558
18072TIP3   OH275630   4.054   6.220  15.100 -0.6903  0.0086  0.5068
18072TIP3    H175631   4.124   6.282  15.081  0.4191 -1.1292  0.7714
18072TIP3    H275632   4.045   6.221  15.195  0.2198 -1.1384  0.6285
18073TIP3   OH275633   1.850   4.488  16.733 -0.0928  0.0940  0.7836
18073TIP3    H175634   1.877   4.568  16.780  0.1336 -0.2367  1.2191
18073TIP3    H275635   1.789   4.519  16.667  0.1709  0.6657  0.7983
18074TIP3   OH275636   0.603   6.227   5.119 -0.6021 -0.4048 -0.0073
18074TIP3    H175637   0.517   6.231   5.078 -0.5941 -1.3313 -0.1507
18074TIP3    H275638   0.588   6.251   5.210 -0.6400  1.5591 -0.4833
18075TIP3   OH275639   3.617   6.121   4.359 -0.1319  0.3102  0.0390
18075TIP3    H175640   3.526   6.101   4.337  0.1193  1.1205 -2.0233
18075TIP3    H275641   3.612   6.196   4.418 -0.8178 -0.0295  0.4181
18076TIP3   OH275642   3.579   3.109   5.304 -0.1266 -0.0485  0.0153
18076TIP3    H175643   3.647   3.055   5.263  0.3998 -0.9028  1.9280
18076TIP3    H275644   3.626   3.161   5.369 -0.9118  1.4440 -0.5553
18077TIP3   OH275645   2.787   4.902   4.432 -0.2804 -0.2627 -0.2420
18077TIP3    H175646   2.799   4.853   4.513  0.4694  0.1876 -0.0667
18077TIP3    H275647   2.862   4.877   4.377 -2.0831 -2.5322 -1.8575
18078TIP3   OH275648   2.507   3.630   6.073  0.2827 -0.0917  0.2552
18078TIP3    H175649   2.442   3.691   6.107 -0.0854 -0.6044  0.4879
18078TIP3    H275650   2.541   3.586   6.151  1.3355  0.5773  0.1953
18079TIP3   OH275651   3.903   3.757  11.325  0.0940 -0.0486 -0.0909
18079TIP3    H175652   3.948   3.753  11.410  1.5554 -0.8195 -0.8657
18079TIP3    H275653   3.810   3.753  11.347  0.3168  2.1249  1.6138
18080TIP3   OH275654   1.677   5.663   5.995 -0.2025  0.3766  0.5231
18080TIP3    H175655   1.675   5.569   5.979 -0.5844  0.2390  1.2883
18080TIP3    H275656   1.724   5.672   6.078  0.4371  0.9225  0.1146
18081TIP3   OH275657   3.335   1.098   5.173 -0.2058 -0.6491  0.1327
18081TIP3    H175658   3.281   1.027   5.206 -0.7556 -0.2990  0.0023
18081TIP3    H275659   3.335   1.087   5.078 -0.3841 -0.4199  0.1030
18082TIP3   OH275660   4.845   6.124   0.383 -0.1163  0.0886  0.1303
18082TIP3    H175661   4.798   6.204   0.408 -1.0992 -1.3058  3.0387
18082TIP3    H275662   4.777   6.061   0.363  0.6367 -0.4971 -0.6765
18083TIP3   OH275663   0.841   2.422  11.784  0.0951  0.4499 -0.6877
18083TIP3    H175664   0.843   2.484  11.711 -0.9089  0.1764 -0.9626
18083TIP3    H275665   0.798   2.470  11.855  1.0195  0.6963 -0.2699
18084TIP3   OH275666   2.083   3.614   3.489  0.2775  0.2929 -0.1895
18084TIP3    H175667   2.114   3.553   3.556 -1.3149 -0.2936  0.0389
18084TIP3    H275668   2.030   3.561   3.430  1.2425  0.9122 -1.6560
18085TIP3   OH275669   6.633   6.003  12.381 -0.0358 -0.3708  0.1826
18085TIP3    H175670   6.627   5.910  12.401  0.0393 -0.4988 -0.3757
18085TIP3    H275671   6.549   6.039  12.409 -0.9691 -1.0012 -1.5916
18086TIP3   OH275672   1.356   3.421   5.464  0.0041  0.0095  1.1530
18086TIP3    H175673   1.359   3.358   5.536  1.6426 -0.9364  0.3045
18086TIP3    H275674   1.399   3.376   5.391 -0.5694  1.3854 -0.0734
18087TIP3   OH275675   2.704   1.861  14.383 -0.2961 -0.3949 -0.4389
18087TIP3    H175676   2.740   1.802  14.449 -0.4100  1.9286  1.8382
18087TIP3    H275677   2.778   1.915  14.354 -1.0155  1.5761  1.1667
18088TIP3   OH275678   0.472   3.129  11.036 -0.0663  0.4922  0.3431
18088TIP3    H175679   0.553   3.159  11.078 -0.2574  0.3265  0.8374
18088TIP3    H275680   0.497   3.112  10.945  0.4337  0.5385  0.4699
18089TIP3   OH275681   4.218   4.098  14.397 -0.0802  0.2307  0.2569
18089TIP3    H175682   4.197   4.089  14.490  0.3764 -0.9723  0.2713
18089TIP3    H275683   4.301   4.147  14.395  0.1522 -0.1451  0.5189
18090TIP3   OH275684   2.575   6.531  11.362 -0.4292 -0.1660 -0.1297
18090TIP3    H175685   2.511   6.467  11.331 -0.1721 -0.0206 -0.9985
18090TIP3    H275686   2.623   6.556  11.283  0.3351  0.1289  0.4236
18091TIP3   OH275687   2.488   5.788  14.083 -0.2878 -0.6045  0.2543
18091TIP3    H175688   2.477   5.771  13.989 -1.0509  1.1722 -0.0170
18091TIP3    H275689   2.558   5.853  14.086 -0.3253 -0.5980  0.9195
18092TIP3   OH275690   2.696   6.552   0.458 -0.4735 -0.4795  0.1052
18092TIP3    H175691   2.750   6.614   0.507  0.1937 -0.9203 -0.0549
18092TIP3    H275692   2.715   6.571   0.366 -0.6191 -0.6150  0.0469
18093TIP3   OH275693   4.244   2.991   4.100 -0.7078 -0.5978  0.0715
18093TIP3    H175694   4.335   3.002   4.074 -1.2893 -0.3638 -2.0311
18093TIP3    H275695   4.241   3.021   4.191  0.9509  1.2091 -0.4029
18094TIP3   OH275696   0.794   5.839  14.016  0.8022  0.2945 -0.5300
18094TIP3    H175697   0.816   5.930  14.000 -2.7129  1.9650  2.5428
18094TIP3    H275698   0.876   5.798  14.041  2.2331  3.0538 -0.3408
18095TIP3   OH275699   0.072   3.151  14.706  0.2798  0.6161 -0.0324
18095TIP3    H175700   0.035   3.117  14.625  0.8030  1.6782 -0.7391
18095TIP3    H275701   0.057   3.081  14.771  0.2467 -0.4274 -1.1331
18096TIP3   OH275702   3.654   1.716   5.675 -0.0646 -0.7994  0.4590
18096TIP3    H175703   3.613   1.748   5.755 -1.6138 -2.0663  0.2386
18096TIP3    H275704   3.730   1.665   5.706  0.6665  0.5416  0.9533
18097TIP3   OH275705   2.368   0.389  15.867 -0.1523 -0.3804  1.0046
18097TIP3    H175706   2.368   0.372  15.773 -0.8985  2.9300  0.2685
18097TIP3    H275707   2.333   0.309  15.906  0.0125 -1.7938 -1.5224
18098TIP3   OH275708   0.509   1.490  13.105 -0.2835  0.1977 -0.0392
18098TIP3    H175709   0.501   1.478  13.010  0.9105 -0.8921 -0.0280
18098TIP3    H275710   0.588   1.543  13.116 -0.8255  0.9495  0.3290
18099TIP3   OH275711   3.393   0.133  16.488 -0.2561 -0.0059  0.4231
18099TIP3    H175712   3.428   0.210  16.443 -0.3393  0.0079  0.3817
18099TIP3    H275713   3.358   0.078  16.418 -0.6771  0.1650  0.4964
18100TIP3   OH275714   1.026   1.508  15.597 -0.3650  0.4053 -1.0397
18100TIP3    H175715   1.050   1.436  15.538 -1.0334  0.4935 -1.4369
18100TIP3    H275716   1.108   1.555  15.613  0.3575 -1.2280  0.3278
18101TIP3   OH275717   6.624   4.792   4.448 -0.3308 -0.2616  0.2608
18101TIP3    H175718   6.582   4.724   4.501  0.3860 -0.4602  0.5792
18101TIP3    H275719   6.565   4.867   4.456 -1.0329 -0.7763  0.0574
18102TIP3   OH275720   4.346   1.692   3.767 -0.2433  0.1584  0.2232
18102TIP3    H175721   4.386   1.767   3.810 -0.2368  0.5335 -0.4294
18102TIP3    H275722   4.298   1.647   3.836 -0.0467  0.6279  0.6655
18103TIP3   OH275723   1.120   2.409  11.946 -0.0057 -0.0807 -0.1592
18103TIP3    H175724   1.088   2.321  11.925  0.3233  0.1550 -1.8114
18103TIP3    H275725   1.043   2.456  11.979 -0.7835 -0.2866 -1.6183
18104TIP3   OH275726   5.909   3.148   3.325 -0.3700  0.2993  0.3387
18104TIP3    H175727   5.848   3.204   3.278 -1.1789 -1.6239 -0.9837
18104TIP3    H275728   5.989   3.149   3.272  0.0821  1.1777  0.9988
18105TIP3   OH275729   2.933   1.246   6.110 -0.3191 -0.1615 -0.3420
18105TIP3    H175730   2.924   1.335   6.145 -1.1784  0.7984 -2.8126
18105TIP3    H275731   2.846   1.224   6.077 -0.2995 -2.2501  0.8457
18106TIP3   OH275732   3.729   0.403   4.898 -0.3678 -0.3004 -0.1991
18106TIP3    H175733   3.647   0.434   4.937 -0.6102  0.3720 -1.2141
18106TIP3    H275734   3.788   0.478   4.901 -0.6577  0.0491 -1.8117
18107TIP3   OH275735   2.469   1.454  14.097  0.2709 -0.5095  0.4491
18107TIP3    H175736   2.563   1.447  14.077  0.0666 -1.8697 -0.1537
18107TIP3    H275737   2.443   1.537  14.058  0.8574 -0.9810 -1.0339
18108TIP3   OH275738   3.186   2.441   0.955  0.1247 -0.6469  0.4128
18108TIP3    H175739   3.198   2.431   0.860  0.0898  0.0390  0.3285
18108TIP3    H275740   3.133   2.365   0.980  0.6969 -1.1897  0.0004
18109TIP3   OH275741   1.958   1.664   2.935 -0.0499 -0.2618 -0.4866
18109TIP3    H175742   2.050   1.675   2.958  0.2064 -2.2128 -0.4261
18109TIP3    H275743   1.960   1.622   2.849 -0.9425  1.3226 -1.3339
18110TIP3   OH275744   4.185   1.909  11.132  0.2568  0.2134  0.3244
18110TIP3    H175745   4.236   1.840  11.091  1.8190  0.4181  1.8253
18110TIP3    H275746   4.094   1.885  11.116  0.7406 -2.3897  1.1022
18111TIP3   OH275747   5.557   1.708   1.899 -0.2173  0.0290  0.1696
18111TIP3    H175748   5.632   1.655   1.872 -1.0106 -0.1156 -1.9165
18111TIP3    H275749   5.576   1.796   1.866 -0.8504  0.0480 -0.1626
18112TIP3   OH275750   1.741   6.148   6.453  0.4724  0.4257 -0.5702
18112TIP3    H175751   1.733   6.129   6.359  3.2635 -0.5485 -0.7025
18112TIP3    H275752   1.827   6.114   6.477  0.6202  2.2843  1.9639
18113TIP3   OH275753   4.817   2.455  16.653  0.0231 -0.0911 -0.1742
18113TIP3    H175754   4.845   2.538  16.691  0.0151 -0.5432  0.8310
18113TIP3    H275755   4.787   2.478  16.565  1.9727  0.6691 -0.6936
18114TIP3   OH275756   4.034   1.139   2.070 -0.0363  0.3089 -0.6328
18114TIP3    H175757   4.032   1.211   2.007  0.0039  0.0989 -0.8772
18114TIP3    H275758   4.120   1.144   2.110 -0.7332  1.6138  0.7853
18115TIP3   OH275759   4.813   5.124   5.951 -0.2584  0.2339 -0.2348
18115TIP3    H175760   4.776   5.106   5.865 -0.2205 -0.4416 -0.1129
18115TIP3    H275761   4.764   5.068   6.011 -2.1725  2.6325  0.6198
18116TIP3   OH275762   0.438   0.844  15.183  0.4816 -0.8602  0.2854
18116TIP3    H175763   0.469   0.922  15.229  0.2229  1.1226 -2.6217
18116TIP3    H275764   0.359   0.818  15.230  0.4212  0.8141  1.1809
18117TIP3   OH275765   0.125   0.908   4.496 -0.0253 -0.1395  0.1143
18117TIP3    H175766   0.097   0.973   4.432 -0.0450 -0.5911 -0.3487
18117TIP3    H275767   0.181   0.848   4.446  0.2245 -0.3108  0.5978
18118TIP3   OH275768   0.805   0.937   4.715 -0.0810 -0.3380 -0.8021
18118TIP3    H175769   0.712   0.915   4.706 -0.6352  1.8653 -1.1284
18118TIP3    H275770   0.818   1.011   4.657  1.9232 -0.6139 -0.7797
18119TIP3   OH275771   5.958   6.611  16.748 -0.3553 -0.2781  0.3588
18119TIP3    H175772   5.947   6.649  16.661 -2.7833  0.0897  0.7508
18119TIP3    H275773   5.972   6.685  16.806 -0.6058 -0.3484  0.5150
18120TIP3   OH275774   4.629   4.961  16.169 -0.5178 -0.4294 -0.4688
18120TIP3    H175775   4.601   5.043  16.128  3.0635  0.5302 -1.3202
18120TIP3    H275776   4.627   4.980  16.263 -0.3033  0.4755 -0.6321
18121TIP3   OH275777   5.316   5.621  12.060  0.1527  0.1876  0.5846
18121TIP3    H175778   5.310   5.592  12.151 -2.2828 -0.0867  0.3983
18121TIP3    H275779   5.381   5.562  12.021 -0.0837 -0.8870  1.7290
18122TIP3   OH275780   4.185   1.902  10.672 -0.5224 -0.0636  0.2354
18122TIP3    H175781   4.249   1.886  10.741 -2.2783  1.7339  2.4701
18122TIP3    H275782   4.232   1.952  10.605  1.1666 -1.6236  0.2178
18123TIP3   OH275783   6.285   6.602   6.603  0.1790  0.3980  0.1498
18123TIP3    H175784   6.293   6.524   6.547  1.5244  0.5460  0.1195
18123TIP3    H275785   6.369   6.647   6.594  0.1423  0.8283  1.7123
18124TIP3   OH275786   0.345   5.335   6.092 -0.4098 -0.6596 -0.4225
18124TIP3    H175787   0.399   5.315   6.169  1.9098  2.5647 -0.9786
18124TIP3    H275788   0.292   5.410   6.119 -0.8140 -0.5663 -1.4549
18125TIP3   OH275789   3.100   6.138   0.197 -0.5737  0.0573 -0.3924
18125TIP3    H175790   3.180   6.171   0.238  0.6813  0.5241 -3.0336
18125TIP3    H275791   3.067   6.211   0.145 -2.9100 -0.0610  0.7899
18126TIP3   OH275792   2.333   2.122   0.383  0.4268  0.0769  0.2417
18126TIP3    H175793   2.379   2.072   0.450  3.1697  1.0381 -0.7876
18126TIP3    H275794   2.397   2.186   0.353 -1.8488  1.9869 -0.8659
18127TIP3   OH275795   1.121   3.319   4.999 -0.1234 -0.0544  0.0074
18127TIP3    H175796   1.110   3.393   5.059  0.5460  0.5006 -0.5413
18127TIP3    H275797   1.033   3.283   4.989 -0.8573  1.9366 -1.3196
18128TIP3   OH275798   1.972   4.187   3.982 -0.5257 -0.8398 -0.5615
18128TIP3    H175799   2.046   4.136   4.014 -0.9051 -0.3058  1.2851
18128TIP3    H275800   1.903   4.175   4.048 -0.4025  2.5064  0.3984
18129TIP3   OH275801   2.476   5.932   5.160 -0.0799 -0.3646 -0.2949
18129TIP3    H175802   2.550   5.993   5.164  0.2922 -0.7401 -1.1486
18129TIP3    H275803   2.399   5.987   5.149  0.0348  0.0458  0.8441
18130TIP3   OH275804   4.254   2.621  13.580 -0.4859  0.1240 -0.0232
18130TIP3    H175805   4.223   2.676  13.652 -0.1535  0.8832 -0.4569
18130TIP3    H275806   4.200   2.645  13.505  0.5523  0.8379 -0.5599
18131TIP3   OH275807   0.458   2.503   2.955  0.2862 -0.2532 -0.0845
18131TIP3    H175808   0.536   2.451   2.938  1.1478  1.4526 -1.7453
18131TIP3    H275809   0.491   2.592   2.971 -1.2168  0.1383  1.1546
18132TIP3   OH275810   5.167   1.672  16.963 -0.4391 -0.1415  0.1282
18132TIP3    H175811   5.188   1.665  17.056 -0.2778  0.8600  0.1824
18132TIP3    H275812   5.082   1.630  16.954  0.2022 -1.5721  0.4487
18133TIP3   OH275813   0.114   5.420  17.008 -0.3270  0.7074 -0.0509
18133TIP3    H175814   0.162   5.350  17.053 -0.0822  1.5779  1.0825
18133TIP3    H275815   0.157   5.501  17.037 -0.7573  1.3474 -1.1530
18134TIP3   OH275816   2.499   4.993  13.137  0.4122 -0.0898  0.0007
18134TIP3    H175817   2.473   4.994  13.045  0.0120 -0.5662  0.1030
18134TIP3    H275818   2.418   4.975  13.184  0.7137 -0.3808  0.4145
18135TIP3   OH275819   6.677   5.326  11.360  0.6470  0.4291  0.6342
18135TIP3    H175820   6.655   5.248  11.310 -1.2758  0.6872  1.0063
18135TIP3    H275821   6.745   5.369  11.308  1.3355 -1.1777  0.1412
18136TIP3   OH275822   5.509   0.809   2.722 -0.3538 -0.0541 -0.0155
18136TIP3    H175823   5.459   0.873   2.773  1.2597  0.3165  1.2025
18136TIP3    H275824   5.591   0.799   2.771  0.9524 -0.3225 -2.1160
18137TIP3   OH275825   4.045   5.855   1.584 -0.0574  0.1729 -0.0610
18137TIP3    H175826   4.074   5.913   1.514  1.3220  2.3372  2.1457
18137TIP3    H275827   3.967   5.899   1.620  0.0268 -0.2074  0.5994
18138TIP3   OH275828   1.163   3.121  13.653  0.4221 -0.7698  0.3454
18138TIP3    H175829   1.090   3.153  13.600  2.2047 -0.1167 -1.9078
18138TIP3    H275830   1.171   3.029  13.630  0.4752 -0.7689  0.3593
18139TIP3   OH275831   4.090   1.229  14.652 -0.1173 -0.5465 -0.3349
18139TIP3    H175832   4.123   1.215  14.564 -0.5976 -0.4474 -0.5365
18139TIP3    H275833   4.066   1.321  14.655 -0.4417 -0.6311 -0.2233
18140TIP3   OH275834   6.575   3.255   4.647  0.6658  0.1629  0.0053
18140TIP3    H175835   6.537   3.296   4.725 -0.1683  1.4475 -1.0373
18140TIP3    H275836   6.606   3.328   4.594  0.5348 -0.6337 -1.2080
18141TIP3   OH275837   6.377   5.442   4.552  0.6505 -0.4137  0.3449
18141TIP3    H175838   6.344   5.532   4.554 -1.0423 -1.0093  0.8109
18141TIP3    H275839   6.435   5.436   4.627  1.6649  0.5871 -0.3250
18142TIP3   OH275840   4.701   4.600  12.447 -0.3599  0.0354 -0.3208
18142TIP3    H175841   4.704   4.646  12.531 -0.7676  0.4461 -0.5238
18142TIP3    H275842   4.762   4.527  12.457 -1.6996 -0.9723  0.9476
18143TIP3   OH275843   4.676   6.206  13.836  0.3197  0.3793 -0.1557
18143TIP3    H175844   4.661   6.121  13.880 -0.6562  1.1962  1.1810
18143TIP3    H275845   4.699   6.265  13.907 -0.6057  1.6081 -0.8578
18144TIP3   OH275846   3.892   4.349   1.046  0.2421 -0.2636 -0.0163
18144TIP3    H175847   3.930   4.385   0.966  0.5763 -0.7393 -0.0787
18144TIP3    H275848   3.968   4.317   1.095 -0.0408 -0.8551  0.0419
18145TIP3   OH275849   4.436   5.674  12.630  0.2032  0.2630  0.1205
18145TIP3    H175850   4.436   5.769  12.619  0.4148  0.0445 -2.4981
18145TIP3    H275851   4.366   5.643  12.573  0.9353 -1.2165 -0.0230
18146TIP3   OH275852   0.207   6.581  12.209 -0.3296 -0.4087 -0.5610
18146TIP3    H175853   0.256   6.500  12.226 -0.7693 -0.7704 -1.0045
18146TIP3    H275854   0.116   6.553  12.200 -0.7910  0.3960  1.2981
18147TIP3   OH275855   0.381   4.940   3.172 -1.1011 -0.4102  0.0132
18147TIP3    H175856   0.390   4.868   3.234  0.2073  1.0457  1.6093
18147TIP3    H275857   0.415   4.905   3.089  0.6552 -1.2851  1.0552
18148TIP3   OH275858   4.649   4.107  14.185  0.8292  0.0095 -0.0485
18148TIP3    H175859   4.724   4.110  14.126  1.4947 -0.9470  0.7047
18148TIP3    H275860   4.669   4.034  14.244 -0.8519 -0.4833 -0.0419
18149TIP3   OH275861   4.081   3.588   4.874  0.1909 -0.1690 -0.4616
18149TIP3    H175862   4.105   3.495   4.880 -0.1984 -0.1757  1.7037
18149TIP3    H275863   4.073   3.604   4.780  2.1591 -1.8199 -0.9840
18150TIP3   OH275864   5.218   6.423   5.837 -0.2032 -0.2410  0.5018
18150TIP3    H175865   5.190   6.458   5.921 -0.9277 -0.1033  0.2121
18150TIP3    H275866   5.197   6.330   5.841 -2.2884  0.1286 -0.3103
18151TIP3   OH275867   3.527   4.190   3.761  0.3730 -0.1754  0.4573
18151TIP3    H175868   3.470   4.141   3.702  0.0399 -0.0288  0.6526
18151TIP3    H275869   3.560   4.263   3.708  1.0504 -0.7380  0.1022
18152TIP3   OH275870   6.211   5.728   5.433 -0.2951 -0.1340 -0.3380
18152TIP3    H175871   6.287   5.741   5.490 -1.4520 -0.0023  1.2107
18152TIP3    H275872   6.227   5.642   5.393  0.3895 -0.3651  0.4027
18153TIP3   OH275873   5.029   2.978   4.738  0.3497  0.2721 -0.3921
18153TIP3    H175874   5.083   3.043   4.784  1.6061 -1.0925  0.1558
18153TIP3    H275875   4.939   3.006   4.753  0.8533  1.9399 -0.2739
18154TIP3   OH275876   5.614   4.101   0.209  0.6760 -0.8775 -0.0478
18154TIP3    H175877   5.535   4.108   0.262  0.3472 -0.0457 -0.6194
18154TIP3    H275878   5.652   4.017   0.233  1.3299  0.0926  2.5741
18155TIP3   OH275879   0.296   2.358  12.026 -0.3274 -0.3753 -0.2539
18155TIP3    H175880   0.267   2.431  11.970 -0.9504  0.3874  1.0240
18155TIP3    H275881   0.388   2.376  12.042 -0.6101  0.4641  0.5139
18156TIP3   OH275882   1.853   2.550  12.367  0.0381  0.1307  0.0025
18156TIP3    H175883   1.861   2.474  12.425 -0.2017  0.0380 -0.0828
18156TIP3    H275884   1.926   2.607  12.391  1.8518 -1.3097 -1.7404
18157TIP3   OH275885   2.997   3.321   3.898 -0.2940  0.1629 -0.3073
18157TIP3    H175886   2.963   3.241   3.859  1.3455 -1.3591  1.2286
18157TIP3    H275887   3.062   3.352   3.835  1.1547 -1.3707  0.3607
18158TIP3   OH275888   5.178   5.265   2.208  0.2304 -0.5050 -0.1083
18158TIP3    H175889   5.229   5.345   2.221  1.1254 -0.9157 -0.9279
18158TIP3    H275890   5.097   5.294   2.167 -0.2226  0.1600  1.1919
18159TIP3   OH275891   5.016   4.578  12.494 -0.0571  0.5902 -0.0355
18159TIP3    H175892   4.982   4.503  12.446 -0.6686 -0.6056  2.1100
18159TIP3    H275893   5.103   4.549  12.524 -0.7587  0.2050  1.7783
18160TIP3   OH275894   2.698   1.552   5.842 -0.4589  0.9281  0.1892
18160TIP3    H175895   2.658   1.503   5.914  1.5196 -0.5539  0.3484
18160TIP3    H275896   2.733   1.631   5.883  0.9101 -0.0406  0.9742
18161TIP3   OH275897   1.701   6.344  13.654  1.0114  0.2881 -0.6247
18161TIP3    H175898   1.625   6.360  13.599 -0.7031 -1.4023  1.1109
18161TIP3    H275899   1.769   6.315  13.593 -0.3562 -0.1262 -2.0205
18162TIP3   OH275900   1.127   6.464  11.376  0.4616 -0.3285  0.3785
18162TIP3    H175901   1.220   6.485  11.382  0.3178  1.1341 -1.6010
18162TIP3    H275902   1.123   6.392  11.312  0.2348 -0.3388  0.4020
18163TIP3   OH275903   3.599   3.836   5.380 -0.3579 -0.4193 -0.4607
18163TIP3    H175904   3.526   3.898   5.381 -0.6004 -0.7026 -0.5430
18163TIP3    H275905   3.672   3.885   5.416 -0.8189 -0.4167  0.5095
18164TIP3   OH275906   0.480   6.463  14.147 -0.4431 -0.0348 -0.1307
18164TIP3    H175907   0.510   6.401  14.081  0.3560 -0.4936  0.6495
18164TIP3    H275908   0.559   6.490  14.194 -0.8393  1.1985 -0.1273
18165TIP3   OH275909   5.490   2.927  16.678  0.0017  0.4781 -0.3493
18165TIP3    H175910   5.509   3.020  16.690 -0.6976  0.4165  1.6067
18165TIP3    H275911   5.538   2.903  16.599 -0.6269  2.7243 -1.5116
18166TIP3   OH275912   3.722   1.290   4.578  0.1941 -0.2283  0.0154
18166TIP3    H175913   3.685   1.324   4.497  0.9626 -0.4734 -0.4504
18166TIP3    H275914   3.757   1.367   4.622 -0.7046 -0.0187  0.3807
18167TIP3   OH275915   4.820   1.795   5.308 -0.6433 -0.5272  0.3030
18167TIP3    H175916   4.902   1.825   5.348 -0.0424 -0.2949 -1.0527
18167TIP3    H275917   4.785   1.732   5.371 -1.3980  2.0797  2.7248
18168TIP3   OH275918   5.472   0.783   0.803 -0.5018  0.3628  0.5995
18168TIP3    H175919   5.378   0.770   0.814 -1.0677  2.4183 -1.1638
18168TIP3    H275920   5.500   0.709   0.749 -1.0450 -0.3545  1.2684
18169TIP3   OH275921   4.402   1.868  10.841 -0.2101  0.1224 -0.3538
18169TIP3    H175922   4.457   1.811  10.788 -2.1874 -2.2842 -0.0220
18169TIP3    H275923   4.428   1.956  10.816  1.6008 -0.8972 -2.4364
18170TIP3   OH275924   6.672   5.950  13.755  0.3350 -0.1725 -0.1401
18170TIP3    H175925   6.579   5.960  13.736  0.7895 -0.0985 -2.6923
18170TIP3    H275926   6.690   5.858  13.737  0.4674 -0.6175  2.0281
18171TIP3   OH275927   3.543   5.912   5.323 -0.1701  0.0351 -0.3427
18171TIP3    H175928   3.460   5.924   5.276 -0.5881 -0.2992  0.2868
18171TIP3    H275929   3.516   5.896   5.414  0.6485  1.5219  0.1780
18172TIP3   OH275930   0.925   2.558  13.780  0.5253 -0.2557 -0.2857
18172TIP3    H175931   0.862   2.558  13.708  0.1046 -3.1883 -0.0245
18172TIP3    H275932   1.010   2.550  13.737  0.2711 -2.0519 -0.5186
18173TIP3   OH275933   4.963   3.918   5.755 -0.4048 -0.1201  0.2010
18173TIP3    H175934   4.925   3.959   5.832  1.4527 -0.8234  1.5704
18173TIP3    H275935   4.901   3.938   5.684 -1.0903  2.4517  1.3796
18174TIP3   OH275936   1.124   6.237  14.997  0.0005  0.2112 -0.3620
18174TIP3    H175937   1.117   6.155  15.048 -0.4811 -0.4570 -1.4629
18174TIP3    H275938   1.070   6.299  15.045  0.5297 -0.0474  0.6039
18175TIP3   OH275939   4.646   3.366   1.496  0.4982  0.2734  0.2649
18175TIP3    H175940   4.740   3.385   1.489  0.3303  0.4551 -2.4120
18175TIP3    H275941   4.603   3.450   1.482 -0.0675 -0.2001 -1.0192
18176TIP3   OH275942   3.625   4.768   5.850  0.5680 -0.2858 -0.1294
18176TIP3    H175943   3.704   4.767   5.797  0.7650 -0.1980  0.1581
18176TIP3    H275944   3.593   4.858   5.844 -1.3536 -1.0220 -2.9150
18177TIP3   OH275945   4.819   3.835   4.442  0.9446  0.0027  0.3675
18177TIP3    H175946   4.771   3.839   4.359  1.5727 -0.4240 -0.0349
18177TIP3    H275947   4.846   3.925   4.459 -0.9590  0.4487  1.2026
18178TIP3   OH275948   6.185   6.410   0.386 -0.3012 -0.0339  0.0090
18178TIP3    H175949   6.099   6.384   0.418 -0.1759  1.0259  1.2711
18178TIP3    H275950   6.189   6.375   0.297 -2.2462  0.3376 -0.2643
18179TIP3   OH275951   4.201   0.436  11.665  0.2215  0.5091 -0.3900
18179TIP3    H175952   4.142   0.426  11.590  2.0517 -2.1376 -1.6371
18179TIP3    H275953   4.156   0.393  11.737 -0.6324  1.1537 -0.5301
18180TIP3   OH275954   5.918   5.087   2.287  0.4425  0.2745 -0.2321
18180TIP3    H175955   5.867   5.161   2.320  1.2197 -0.1028  2.0074
18180TIP3    H275956   5.862   5.011   2.303  0.4729  0.1696 -0.6260
18181TIP3   OH275957   5.852   1.794  11.949  0.0426 -0.1477 -0.3581
18181TIP3    H175958   5.840   1.795  12.044  2.2250 -0.1916 -0.0388
18181TIP3    H275959   5.870   1.885  11.927  2.4717 -0.5462 -0.2492
18182TIP3   OH275960   2.974   3.670  14.779  0.3337  0.2839 -0.3519
18182TIP3    H175961   2.891   3.634  14.746  1.5225 -1.5810 -1.4462
18182TIP3    H275962   2.951   3.760  14.806 -2.3864 -0.6705  0.9389
18183TIP3   OH275963   4.623   2.956  16.033 -0.1047  0.2103  1.0205
18183TIP3    H175964   4.586   2.949  15.944 -1.4415 -3.4462  1.6906
18183TIP3    H275965   4.565   3.018  16.078  0.8986  2.5345 -0.6953
18184TIP3   OH275966   6.143   4.466  15.529 -0.1501 -0.1435 -0.2413
18184TIP3    H175967   6.154   4.500  15.440  0.2199 -0.6090 -0.3771
18184TIP3    H275968   6.208   4.514  15.581  0.1669 -0.4263 -0.3745
18185TIP3   OH275969   0.131   3.389   5.139 -0.3075 -0.2641  0.5087
18185TIP3    H175970   0.036   3.383   5.144 -0.1934 -1.4321  1.9000
18185TIP3    H275971   0.151   3.478   5.168 -1.0145  0.5043 -1.2174
18186TIP3   OH275972   4.567   2.393   6.300  0.4104  0.1661  0.2506
18186TIP3    H175973   4.534   2.450   6.369 -0.0807  3.0139 -2.1452
18186TIP3    H275974   4.491   2.373   6.246  0.7880 -1.9891  0.4097
18187TIP3   OH275975   6.603   5.241  16.115 -0.1958  0.3851  0.0113
18187TIP3    H175976   6.694   5.244  16.087 -0.0530  0.7832  0.5040
18187TIP3    H275977   6.606   5.256  16.209 -0.7007 -0.5279  0.1918
18188TIP3   OH275978   4.604   1.535  13.284  0.5664 -0.6486  0.6544
18188TIP3    H175979   4.698   1.535  13.264  0.1210  2.1213 -2.2131
18188TIP3    H275980   4.565   1.484  13.213 -0.2425 -0.7161  1.1368
18189TIP3   OH275981   1.089   5.340   1.161 -0.0740  0.5153 -0.2920
18189TIP3    H175982   1.142   5.340   1.080 -1.2297  0.6392 -1.0685
18189TIP3    H275983   1.133   5.404   1.217  0.4892  0.7786 -1.0055
18190TIP3   OH275984   0.424   6.406   3.516 -0.2688 -0.1777  0.1947
18190TIP3    H175985   0.496   6.344   3.507  0.4278  0.7168 -0.6786
18190TIP3    H275986   0.467   6.492   3.517 -1.2830  0.3404  0.2890
18191TIP3   OH275987   3.863   3.469   5.187 -0.1881  0.4347  0.5303
18191TIP3    H175988   3.848   3.563   5.181  0.4329  0.6859  2.2715
18191TIP3    H275989   3.778   3.433   5.211 -0.4401  0.5212 -0.1912
18192TIP3   OH275990   2.107   2.602   4.909 -0.3122 -0.7749 -0.3816
18192TIP3    H175991   2.043   2.532   4.893  0.0796 -1.5050  1.0492
18192TIP3    H275992   2.191   2.556   4.913  0.1768  0.0369 -1.1967
18193TIP3   OH275993   0.673   5.290   1.096 -0.8809  0.3749  0.3396
18193TIP3    H175994   0.672   5.386   1.093 -1.8118  0.3518 -1.8096
18193TIP3    H275995   0.680   5.269   1.189  2.0838  2.5010  0.7364
18194TIP3   OH275996   1.930   3.040  11.653  0.3914 -0.2663 -0.5058
18194TIP3    H175997   1.865   3.064  11.588  0.0256  2.0774  0.6441
18194TIP3    H275998   1.905   2.951  11.680 -0.8167 -0.3689 -1.8402
18195TIP3   OH275999   3.904   4.101   2.599 -0.3355 -0.0287 -0.5085
18195TIP3    H176000   3.824   4.151   2.588 -0.6407 -0.1863  0.8071
18195TIP3    H276001   3.874   4.014   2.627  0.2966 -0.0250  0.2005
18196TIP3   OH276002   1.061   3.840   4.551  0.4782 -0.3575 -0.3712
18196TIP3    H176003   1.122   3.798   4.610  3.0070  2.1341 -0.9862
18196TIP3    H276004   1.011   3.900   4.607  0.7554 -0.1899 -0.3007
18197TIP3   OH276005   1.955   6.093  12.336  0.6071  0.1486  0.8779
18197TIP3    H176006   1.898   6.170  12.344 -1.2652 -0.9950 -0.6830
18197TIP3    H276007   1.946   6.048  12.420 -1.8175 -0.6233  0.2704
18198TIP3   OH276008   3.126   3.856  16.828 -0.5134 -0.6914  0.5096
18198TIP3    H176009   3.128   3.761  16.821  1.7153 -0.6718 -0.1227
18198TIP3    H276010   3.218   3.881  16.833 -0.9278  1.5414 -1.2161
18199TIP3   OH276011   5.329   2.990  13.475  0.1781  0.1424  0.3990
18199TIP3    H176012   5.255   2.959  13.528  1.4539 -1.2989  1.4143
18199TIP3    H276013   5.407   2.964  13.524  1.3919  0.6391 -1.1720
18200TIP3   OH276014   1.042   6.118   4.903  0.2093  0.7593 -0.0914
18200TIP3    H176015   0.978   6.106   4.832 -0.1243  0.1502  0.3056
18200TIP3    H276016   1.001   6.181   4.962  0.2754  0.8916 -0.1855
18201TIP3   OH276017   0.301   1.201   0.084  0.0110  0.0501  0.0561
18201TIP3    H176018   0.326   1.149   0.160  2.7508 -0.6643 -1.1833
18201TIP3    H276019   0.315   1.142   0.009 -1.1892  1.1724 -1.1176
18202TIP3   OH276020   0.139   0.605  16.064  0.0510  0.3545  0.2957
18202TIP3    H176021   0.090   0.525  16.048 -2.1763  1.5611  0.7784
18202TIP3    H276022   0.132   0.619  16.159 -1.0067  1.9464  0.0192
18203TIP3   OH276023   1.384   1.336  13.424 -0.5299 -0.4603  0.6020
18203TIP3    H176024   1.424   1.417  13.391  0.3939 -1.5480 -1.1027
18203TIP3    H276025   1.323   1.310  13.355 -1.5724 -0.6891  1.5972
18204TIP3   OH276026   5.359   4.143   1.200  0.3569 -0.6519  0.4192
18204TIP3    H176027   5.293   4.169   1.265 -0.4129 -1.5499  0.0357
18204TIP3    H276028   5.313   4.080   1.144  1.0992 -0.1388 -0.8067
18205TIP3   OH276029   2.455   2.046   4.653 -0.7453  0.1425  0.2726
18205TIP3    H176030   2.464   1.958   4.691 -0.3676 -0.3215 -0.8486
18205TIP3    H276031   2.384   2.086   4.703  0.4355 -0.0318  2.1850
18206TIP3   OH276032   3.590   4.184  11.511  0.8109  0.0743 -0.5090
18206TIP3    H176033   3.543   4.128  11.449  0.7006 -0.0462 -0.3148
18206TIP3    H276034   3.545   4.173  11.594  0.5041  0.8100 -0.5671
18207TIP3   OH276035   0.875   0.046   4.748 -0.1924 -0.4428 -0.2694
18207TIP3    H176036   0.875   0.018   4.839  1.8968 -1.0091 -0.3954
18207TIP3    H276037   0.839   0.135   4.750  0.7718 -0.0579  1.2439
18208TIP3   OH276038   3.438   3.940   5.102 -0.1608 -0.0815  0.1364
18208TIP3    H176039   3.390   3.929   5.019  0.9642 -1.5331 -0.3732
18208TIP3    H276040   3.453   3.851   5.133  1.9039  0.3086  0.4317
18209TIP3   OH276041   1.192   2.980  12.239 -0.0444 -0.3418  0.5735
18209TIP3    H176042   1.118   2.928  12.269 -0.4326  0.8107  1.6868
18209TIP3    H276043   1.263   2.958  12.300 -0.2167  0.4290  1.0613
18210TIP3   OH276044   3.951   2.512   3.756  0.0109 -0.3852  0.4587
18210TIP3    H176045   4.039   2.511   3.793  0.0726 -1.0865  0.2993
18210TIP3    H276046   3.908   2.587   3.798  0.5997 -0.1868  0.7158
18211TIP3   OH276047   2.558   0.982  14.082 -0.0633 -0.1642  0.1794
18211TIP3    H176048   2.486   1.035  14.114  0.1170  0.2523 -0.0964
18211TIP3    H276049   2.590   0.935  14.159 -0.2295  0.1220  0.4229
18212TIP3   OH276050   2.033   3.113  16.848 -0.1856  0.3648  0.4234
18212TIP3    H176051   2.040   3.114  16.753 -1.5488  0.7407  0.3143
18212TIP3    H276052   2.044   3.021  16.872 -1.0002  0.1001 -0.1936
18213TIP3   OH276053   1.162   0.902   6.378  0.2491 -0.3687  0.0280
18213TIP3    H176054   1.088   0.857   6.419 -0.5088  0.3017 -0.5790
18213TIP3    H276055   1.122   0.964   6.317  1.2356  1.3323  1.0194
18214TIP3   OH276056   4.484   3.571  14.244 -0.1014 -0.3313 -0.0447
18214TIP3    H176057   4.478   3.515  14.167  0.9964 -1.0061  0.3353
18214TIP3    H276058   4.557   3.535  14.295 -1.0077 -0.1202  1.4902
18215TIP3   OH276059   6.197   1.164  14.486  0.5983 -0.4747 -0.9335
18215TIP3    H176060   6.212   1.212  14.567  0.3348 -0.8997 -0.6311
18215TIP3    H276061   6.232   1.077  14.502 -0.0294 -0.7550 -1.0486
18216TIP3   OH276062   1.796   5.941   1.882 -0.4325  0.3438  0.0414
18216TIP3    H176063   1.761   5.926   1.794 -0.7443  0.3250  0.1681
18216TIP3    H276064   1.870   5.882   1.889 -0.8328 -0.1593  0.0466
18217TIP3   OH276065   1.881   4.624  14.204  0.1851  0.2683 -0.0484
18217TIP3    H176066   1.837   4.605  14.121  0.2772  0.6773 -0.1977
18217TIP3    H276067   1.921   4.541  14.230  0.4715  0.2239 -0.6076
18218TIP3   OH276068   1.212   2.228   4.875 -0.2500  0.6116  0.5939
18218TIP3    H176069   1.305   2.226   4.851 -1.1645  1.0377 -3.8552
18218TIP3    H276070   1.192   2.321   4.886 -0.5139  0.6744 -0.3642
18219TIP3   OH276071   4.831   0.295   5.131  0.4080  0.0646 -0.3546
18219TIP3    H176072   4.809   0.253   5.048  1.3901  2.1565 -1.7738
18219TIP3    H276073   4.920   0.268   5.150  0.7234  0.7633 -0.8015
18220TIP3   OH276074   4.985   2.139  13.248  0.0998 -0.1378  0.0376
18220TIP3    H176075   5.028   2.082  13.184  0.4476 -1.0937  1.0908
18220TIP3    H276076   4.893   2.114  13.247  0.4711 -1.7336  1.4730
18221TIP3   OH276077   1.883   2.990   1.779  0.3250 -0.2452 -0.0451
18221TIP3    H176078   1.803   2.940   1.798  0.5172  0.5330  3.4879
18221TIP3    H276079   1.955   2.930   1.799  0.5431  0.8609  3.0284
18222TIP3   OH276080   6.642   5.027  15.680  0.5441 -0.0675 -0.8663
18222TIP3    H176081   6.702   5.101  15.689 -0.3896  0.6989 -0.7864
18222TIP3    H276082   6.576   5.041  15.748 -0.3742 -0.2699 -1.6976
18223TIP3   OH276083   4.182   6.205  11.690 -0.2186 -0.3637  0.1241
18223TIP3    H176084   4.236   6.128  11.669 -0.1735 -0.1883 -0.4289
18223TIP3    H276085   4.151   6.235  11.605  0.1604  0.5269  0.2949
18224TIP3   OH276086   6.486   6.133  11.328  0.5357 -0.1190 -0.5994
18224TIP3    H176087   6.392   6.151  11.329  0.3120 -1.2053  0.2207
18224TIP3    H276088   6.493   6.042  11.357  1.7543 -0.4863 -1.9601
18225TIP3   OH276089   6.164   5.741  15.025  0.0778  0.4827  0.0059
18225TIP3    H176090   6.175   5.669  14.963  0.3798 -3.0986  3.8714
18225TIP3    H276091   6.069   5.750  15.035  0.0443 -0.5637  0.7188
18226TIP3   OH276092   5.343   0.159  16.832  0.4971  0.1733  0.2558
18226TIP3    H176093   5.357   0.252  16.812  1.1414  0.0550  0.1456
18226TIP3    H276094   5.403   0.141  16.904  1.4895 -0.5317 -0.7254
18227TIP3   OH276095   4.408   6.077   2.182 -1.2278  0.0528  0.5909
18227TIP3    H176096   4.398   6.070   2.277  0.9200 -1.9540  0.7572
18227TIP3    H276097   4.406   5.987   2.150 -0.3061  0.5685 -1.0489
18228TIP3   OH276098   4.263   4.360  12.368 -0.3514  0.7042 -0.1866
18228TIP3    H176099   4.250   4.441  12.317  0.2670  0.5671 -0.5820
18228TIP3    H276100   4.204   4.369  12.442  0.3607  1.9461  0.2742
18229TIP3   OH276101   1.582   3.609  14.798 -0.0867 -1.0226  0.2656
18229TIP3    H176102   1.592   3.699  14.829 -2.0386 -0.2029 -1.1987
18229TIP3    H276103   1.516   3.571  14.856  1.1593 -1.7480  1.2500
18230TIP3   OH276104   4.638   3.878  17.115 -0.4611 -0.5067  0.8551
18230TIP3    H176105   4.701   3.819  17.155  0.1199 -0.7875 -0.4405
18230TIP3    H276106   4.672   3.966  17.133  0.2151 -0.6514  0.3176
18231TIP3   OH276107   3.302   1.844  12.203 -0.7930  0.3594  0.8577
18231TIP3    H176108   3.373   1.790  12.169 -1.7875 -0.2714 -0.2573
18231TIP3    H276109   3.222   1.802  12.173 -1.6304  1.6469  1.1904
18232TIP3   OH276110   1.682   1.794  12.245 -0.6096 -0.5708 -0.5030
18232TIP3    H176111   1.691   1.750  12.330  0.9189  1.1065  0.2563
18232TIP3    H276112   1.596   1.837  12.250 -0.2914  0.0031  0.4784
18233TIP3   OH276113   3.435   3.505  14.303  0.5097 -0.0219 -0.1896
18233TIP3    H176114   3.419   3.594  14.335  0.6953  0.1325 -0.5291
18233TIP3    H276115   3.362   3.454  14.338  1.1847 -0.0571  1.2801
18234TIP3   OH276116   1.850   0.751   4.680  0.0694  0.1152 -0.2427
18234TIP3    H176117   1.778   0.811   4.657 -1.8264 -2.1771 -0.6901
18234TIP3    H276118   1.920   0.774   4.618 -1.9938 -0.5430 -3.0677
18235TIP3   OH276119   6.584   6.132   1.235  0.3695 -0.0500 -0.0986
18235TIP3    H176120   6.539   6.057   1.275  0.2394 -0.2078 -0.5385
18235TIP3    H276121   6.559   6.129   1.143  0.8972  0.1481 -0.2511
18236TIP3   OH276122   0.745   3.909   1.748 -0.1348 -0.0473  0.0213
18236TIP3    H176123   0.809   3.842   1.770  0.1729 -0.4224 -1.8706
18236TIP3    H276124   0.664   3.880   1.790  0.0481 -1.5167 -0.5822
18237TIP3   OH276125   4.189   4.390   2.116 -0.5133  0.0233 -0.4174
18237TIP3    H176126   4.161   4.415   2.028 -2.5863  1.0269  0.4301
18237TIP3    H276127   4.139   4.311   2.136  0.4474 -0.5820 -0.3693
18238TIP3   OH276128   4.658   6.090  16.428  0.3169  0.3083  0.1836
18238TIP3    H176129   4.598   6.149  16.382  0.0920  1.8362  2.2504
18238TIP3    H276130   4.601   6.025  16.469 -0.0461  1.8140  2.2235
18239TIP3   OH276131   3.990   6.694   3.267 -0.0614 -0.0952 -0.6135
18239TIP3    H176132   3.979   6.752   3.343 -0.5416 -0.3305 -0.4978
18239TIP3    H276133   3.986   6.606   3.304  0.1125 -0.2077 -0.8626
18240TIP3   OH276134   3.873   3.397   6.447  0.0247  1.1220  0.5451
18240TIP3    H176135   3.914   3.434   6.369 -0.8551  0.3780 -0.3028
18240TIP3    H276136   3.944   3.389   6.511  0.6867  2.0799 -0.0504
18241TIP3   OH276137   2.601   6.589   1.900 -0.6050 -0.3912 -0.1209
18241TIP3    H176138   2.531   6.531   1.870 -1.4027 -0.8702  2.4039
18241TIP3    H276139   2.628   6.551   1.984  0.0068  1.9839  0.8184
18242TIP3   OH276140   1.514   1.873  14.428  0.2132 -0.3316  0.0670
18242TIP3    H176141   1.445   1.923  14.471  0.4564  2.1141 -2.0762
18242TIP3    H276142   1.477   1.786  14.415 -2.1293  0.6166 -0.1417
18243TIP3   OH276143   5.239   5.858   0.340 -0.2506  0.4787 -0.0979
18243TIP3    H176144   5.301   5.804   0.389 -0.5356 -0.4486 -0.7300
18243TIP3    H276145   5.275   5.947   0.346 -0.5985  0.5469  2.3059
18244TIP3   OH276146   3.569   5.764  15.036  0.5989  0.2780  0.0647
18244TIP3    H176147   3.481   5.760  15.076  1.2961 -3.4190  1.6509
18244TIP3    H276148   3.561   5.713  14.955  0.6645  2.5484 -1.4555
18245TIP3   OH276149   4.656   5.621  13.158 -0.0775  0.0604 -0.6120
18245TIP3    H176150   4.602   5.649  13.084 -0.0623 -1.1768 -1.1088
18245TIP3    H276151   4.648   5.526  13.160  2.4535 -0.2384 -1.0019
18246TIP3   OH276152   6.330   3.468   5.127 -0.1482 -1.0049  0.5488
18246TIP3    H176153   6.244   3.510   5.130 -0.1426 -0.9515  0.0730
18246TIP3    H276154   6.345   3.437   5.216 -1.0418 -1.7728  0.4469
18247TIP3   OH276155   5.577   1.275   2.340  0.2153 -0.7261 -0.1669
18247TIP3    H176156   5.631   1.293   2.417  0.6976 -1.3236 -0.3504
18247TIP3    H276157   5.607   1.189   2.310  1.0798  0.1028 -1.8687
18248TIP3   OH276158   0.366   4.112  15.045  0.1462 -0.1781 -0.1808
18248TIP3    H176159   0.349   4.173  15.116 -0.7128  1.7913 -1.9834
18248TIP3    H276160   0.310   4.036  15.065 -1.7668  1.2515  0.1573
18249TIP3   OH276161   1.377   4.419  15.593 -0.0698  0.4024  0.7850
18249TIP3    H176162   1.334   4.426  15.678 -2.5775  0.9996 -0.4197
18249TIP3    H276163   1.341   4.493  15.542  4.3102  2.5530  0.3393
18250TIP3   OH276164   6.082   4.797   3.094 -0.5958  0.3829  0.3018
18250TIP3    H176165   6.152   4.848   3.136 -0.0679  0.0003 -0.0943
18250TIP3    H276166   6.042   4.747   3.166 -0.4029  0.5412  0.5207
18251TIP3   OH276167   3.266   2.799  13.881 -0.0625  0.2730 -0.0357
18251TIP3    H176168   3.282   2.892  13.867  1.0623 -0.0321 -0.9509
18251TIP3    H276169   3.171   2.789  13.877 -0.2614  1.5048  1.0176
18252TIP3   OH276170   3.250   4.445   6.011 -0.4112  0.1342  0.4698
18252TIP3    H176171   3.213   4.366   5.973 -0.6491  0.1339  0.7013
18252TIP3    H276172   3.227   4.515   5.950 -1.0014  0.1739  0.7290
18253TIP3   OH276173   4.807   4.997  15.732  0.2797  0.1473  0.0115
18253TIP3    H176174   4.719   4.968  15.709  0.4910 -0.3609 -0.1683
18253TIP3    H276175   4.857   4.916  15.746  0.0791  0.3941  2.6607
18254TIP3   OH276176   5.259   4.428  16.887 -0.5807  0.5494  0.1554
18254TIP3    H176177   5.309   4.508  16.874  1.8261 -0.9119 -0.3759
18254TIP3    H276178   5.235   4.428  16.979 -0.5095  1.8187  0.1804
18255TIP3   OH276179   5.329   1.155  12.831 -0.0162 -0.3731 -0.2147
18255TIP3    H176180   5.242   1.165  12.870  0.4771 -0.4493  0.9470
18255TIP3    H276181   5.388   1.149  12.906  0.9817 -0.4430 -0.9888
18256TIP3   OH276182   0.554   4.659   3.570  0.1628  0.3387  0.0667
18256TIP3    H176183   0.610   4.707   3.631  1.0201  0.4030 -0.7419
18256TIP3    H276184   0.616   4.619   3.508 -0.6930  0.5961 -0.9847
18257TIP3   OH276185   6.204   5.891  14.717 -0.3566 -0.2950 -0.6299
18257TIP3    H176186   6.258   5.853  14.786  0.1395 -0.5961 -1.1729
18257TIP3    H276187   6.117   5.898  14.756  0.0483  0.1297  0.2330
18258TIP3   OH276188   4.369   3.398  14.541  0.3826 -0.4067 -0.2646
18258TIP3    H176189   4.412   3.325  14.496  2.2116  0.9434 -0.8380
18258TIP3    H276190   4.435   3.431  14.602 -0.5158  0.5811  0.2166
18259TIP3   OH276191   1.288   1.153   4.713  0.0495  0.4340 -0.0962
18259TIP3    H176192   1.365   1.175   4.766 -0.1344  0.6524  0.0801
18259TIP3    H276193   1.311   1.179   4.624  0.1895  0.4721 -0.0485
18260TIP3   OH276194   2.127   0.028   5.605  0.1616 -0.2994 -0.2604
18260TIP3    H176195   2.176   0.039   5.524  0.3092  2.2603  0.0932
18260TIP3    H276196   2.129   0.114   5.646 -0.7442 -1.2808  2.0045
18261TIP3   OH276197   2.979   2.660   3.106  0.0016 -0.4164  0.3960
18261TIP3    H176198   2.922   2.666   3.028  1.2765  1.8726 -0.4506
18261TIP3    H276199   2.983   2.750   3.139 -0.3349 -1.3053  3.0613
18262TIP3   OH276200   1.682   5.966  12.723 -0.0841  0.0773  0.5962
18262TIP3    H176201   1.655   6.058  12.728  0.2758  0.1924  0.4104
18262TIP3    H276202   1.603   5.919  12.697 -0.5219  0.2111  1.6093
18263TIP3   OH276203   0.272   4.266  13.315 -0.4737 -0.5085  0.7040
18263TIP3    H176204   0.282   4.209  13.392 -0.4539 -0.0545  1.0404
18263TIP3    H276205   0.200   4.227  13.266 -0.4930 -0.7961  0.9544
18264TIP3   OH276206   2.453   2.049  11.056 -0.3860  0.1496 -0.0907
18264TIP3    H176207   2.386   2.010  10.999 -0.3854  2.1328 -1.5759
18264TIP3    H276208   2.437   2.143  11.050  0.0583  0.4848  2.7401
18265TIP3   OH276209   5.335   6.462  15.092 -0.3347  0.1206 -0.5899
18265TIP3    H176210   5.318   6.371  15.065  0.3342  0.4685 -2.3052
18265TIP3    H276211   5.273   6.514  15.041 -3.1481  0.4995  2.8537
18266TIP3   OH276212   4.522   0.795   3.502  1.0099  0.3611 -0.5254
18266TIP3    H176213   4.600   0.822   3.454  0.6218  1.4379 -0.5809
18266TIP3    H276214   4.470   0.747   3.437  1.8119 -0.7552 -0.3639
18267TIP3   OH276215   1.771   1.696  15.724 -0.8324 -0.1364 -0.3705
18267TIP3    H176216   1.718   1.679  15.802 -1.7289 -2.2578 -1.3629
18267TIP3    H276217   1.842   1.631  15.729 -0.3357  0.3619 -0.8295
18268TIP3   OH276218   3.816   5.693   5.982  0.0904  0.1597  0.0513
18268TIP3    H176219   3.842   5.721   6.070  0.7332 -1.5389  0.4401
18268TIP3    H276220   3.720   5.693   5.985  0.0720  1.6526  0.2124
18269TIP3   OH276221   6.709   3.052  11.290 -0.1220 -0.0268 -0.8891
18269TIP3    H176222   6.676   3.044  11.200  0.2053 -2.5141 -0.8646
18269TIP3    H276223   6.783   3.113  11.283  0.1375 -0.4654 -2.4124
18270TIP3   OH276224   0.020   1.976  16.855  0.0414  0.1573  0.0959
18270TIP3    H176225   0.054   1.898  16.812  0.3839  0.9294 -1.0621
18270TIP3    H276226  -0.008   2.033  16.784 -1.8045  0.4090  0.9491
18271TIP3   OH276227   5.943   3.935   0.598 -0.7231  0.1176  0.0900
18271TIP3    H176228   5.919   4.027   0.611 -1.5700 -0.0524 -0.2083
18271TIP3    H276229   5.981   3.932   0.510 -2.5225 -0.1318 -0.7359
18272TIP3   OH276230   2.143   2.929  15.340 -0.2891  0.0615 -0.7309
18272TIP3    H176231   2.189   2.868  15.398 -1.6439  0.8277  1.2778
18272TIP3    H276232   2.211   2.967  15.285  1.1895 -0.2044  0.8435
18273TIP3   OH276233   4.906   3.697   3.501 -0.3975 -0.0571 -0.1738
18273TIP3    H176234   4.820   3.708   3.543 -1.3203 -0.0671 -1.9755
18273TIP3    H276235   4.888   3.641   3.425  0.5685  2.5559 -2.4748
18274TIP3   OH276236   3.237   4.329  12.305 -0.1724  0.6282  0.0808
18274TIP3    H176237   3.214   4.419  12.327 -1.4893  0.1124  0.8759
18274TIP3    H276238   3.157   4.292  12.267  0.1467 -0.3977  0.3775
18275TIP3   OH276239   2.388   0.869   6.233 -0.0459 -0.5009 -0.2410
18275TIP3    H176240   2.470   0.890   6.278 -0.2166  0.1576 -0.2201
18275TIP3    H276241   2.337   0.950   6.238 -1.6659 -1.5839  1.7798
18276TIP3   OH276242   2.529   6.542   2.251  0.4517 -1.1057  0.2955
18276TIP3    H176243   2.563   6.494   2.176  0.6105 -1.0736  0.3467
18276TIP3    H276244   2.607   6.570   2.299  0.4096  0.0358 -0.2536
18277TIP3   OH276245   3.797   1.382  14.144 -0.5507 -0.5215 -0.2988
18277TIP3    H176246   3.891   1.390  14.127 -0.6072  0.6681 -0.1218
18277TIP3    H276247   3.791   1.322  14.219  0.1396  0.3264  0.4470
18278TIP3   OH276248   5.416   4.903  17.079  0.9173 -0.0701  1.4819
18278TIP3    H176249   5.401   4.810  17.093  2.2668 -0.4840  0.4777
18278TIP3    H276250   5.345   4.930  17.020  1.8473 -1.0718 -0.1830
18279TIP3   OH276251   6.134   0.576   6.386  0.4808 -0.0976  0.4081
18279TIP3    H176252   6.152   0.582   6.480  0.2866  0.6447  0.3993
18279TIP3    H276253   6.080   0.653   6.367  2.0390  0.7726 -0.6700
18280TIP3   OH276254   0.784   0.834   0.246  0.0905 -0.6553  0.2329
18280TIP3    H176255   0.715   0.837   0.179  0.4886 -2.2194 -0.3038
18280TIP3    H276256   0.758   0.899   0.311 -1.6166 -0.8414 -0.2197
18281TIP3   OH276257   4.641   2.751   1.702  0.4166  0.7622 -0.0770
18281TIP3    H176258   4.593   2.746   1.785  0.0004  0.2903 -0.3435
18281TIP3    H276259   4.576   2.731   1.635  0.2030  3.2480 -0.7161
18282TIP3   OH276260   5.551   3.239   0.640  0.0644  0.2913 -0.6574
18282TIP3    H176261   5.623   3.188   0.606  0.2218 -0.8494  1.2569
18282TIP3    H276262   5.474   3.183   0.630  0.3597 -0.8165  2.1837
18283TIP3   OH276263   6.471   4.879   6.289  0.1011  0.3753  1.0743
18283TIP3    H176264   6.561   4.850   6.277  0.1256  0.3188  1.4038
18283TIP3    H276265   6.421   4.799   6.301  0.0651  0.4298  1.2865
18284TIP3   OH276266   3.005   1.498   5.096  0.5256  0.0801  0.0653
18284TIP3    H176267   3.072   1.485   5.163  3.2451  1.4474 -2.1646
18284TIP3    H276268   2.969   1.411   5.082  0.8145 -0.4760  2.3011
18285TIP3   OH276269   6.675   6.146  15.192 -0.4127 -0.7456 -0.2176
18285TIP3    H176270   6.635   6.223  15.152  1.4786  2.3359  3.1864
18285TIP3    H276271   6.733   6.111  15.124 -0.9012  1.1662 -1.7086
18286TIP3   OH276272   2.468   2.398  12.308 -0.1388 -0.0918  0.4290
18286TIP3    H176273   2.410   2.363  12.376  1.0375 -0.7766  1.1054
18286TIP3    H276274   2.503   2.320  12.265  0.6587  0.3081  0.3479
18287TIP3   OH276275   1.183   2.883   3.485 -0.7594  0.7300 -0.1702
18287TIP3    H176276   1.127   2.843   3.551  0.5366 -0.5648  0.2031
18287TIP3    H276277   1.235   2.947   3.533 -0.9511  0.9531 -0.2572
18288TIP3   OH276278   3.937   4.276  16.251 -0.2720 -0.1670 -0.4270
18288TIP3    H176279   3.947   4.354  16.306 -1.3480 -0.1367 -0.2380
18288TIP3    H276280   3.875   4.221  16.300 -1.9194  0.2258 -1.9815
18289TIP3   OH276281   1.886   2.067   0.691  0.6382 -0.0318  0.1312
18289TIP3    H176282   1.940   2.046   0.614  0.3057  2.3046 -0.8431
18289TIP3    H276283   1.938   2.132   0.739 -0.9117  1.7306 -0.4457
18290TIP3   OH276284   2.635   5.703   1.291 -0.0848  0.2044 -0.0977
18290TIP3    H176285   2.637   5.651   1.212 -1.2026 -0.5809  0.3590
18290TIP3    H276286   2.551   5.681   1.332  0.0168  1.3557  0.7821
18291TIP3   OH276287   6.374   5.132  12.736  0.2675  0.1834  0.2119
18291TIP3    H176288   6.334   5.192  12.674  0.1133 -0.3665 -0.2238
18291TIP3    H276289   6.422   5.070  12.682  2.6824  1.4762  0.7452
18292TIP3   OH276290   0.384   4.519   4.525 -0.3767 -0.2543 -0.0670
18292TIP3    H176291   0.302   4.563   4.548 -0.5641 -0.5240 -0.2072
18292TIP3    H276292   0.370   4.489   4.435  0.1838  0.4139 -0.3872
18293TIP3   OH276293   2.515   6.425  17.088 -0.4240 -0.5537 -0.1179
18293TIP3    H176294   2.527   6.515  17.058 -0.3044 -1.0252 -1.5816
18293TIP3    H276295   2.594   6.405  17.138 -0.5033  0.1842  0.3072
18294TIP3   OH276296   6.146   1.805  13.843 -0.1082 -0.2498 -0.3782
18294TIP3    H176297   6.191   1.861  13.779  2.9879  0.8387  2.4557
18294TIP3    H276298   6.053   1.824  13.831  0.3899  0.6911 -3.7360
18295TIP3   OH276299   2.156   3.350   0.812 -0.2815  0.4163 -0.4492
18295TIP3    H176300   2.061   3.342   0.824 -0.2906  0.6511 -0.3434
18295TIP3    H276301   2.166   3.407   0.735 -0.2333  1.0735  0.0305
18296TIP3   OH276302   3.462   4.351   2.620  0.1813 -0.3247 -0.2338
18296TIP3    H176303   3.383   4.308   2.653 -1.4044  2.3723 -0.2493
18296TIP3    H276304   3.499   4.395   2.697  1.2068 -0.8454 -0.4123
18297TIP3   OH276305   0.436   5.720  12.314 -0.1848  0.3278  0.5074
18297TIP3    H176306   0.470   5.810  12.306  1.2830 -0.1269  1.2390
18297TIP3    H276307   0.347   5.731  12.347 -0.8071  1.5804 -1.4477
18298TIP3   OH276308   1.719   2.689  13.248 -0.2067  0.0369 -0.2259
18298TIP3    H176309   1.628   2.692  13.279  0.2493 -1.5680  1.4350
18298TIP3    H276310   1.746   2.781  13.244 -1.6335  0.4934  0.0734
18299TIP3   OH276311   6.206   2.494  12.947 -0.3792 -0.2894 -0.4431
18299TIP3    H176312   6.124   2.477  12.902  0.0513 -0.6297 -1.1089
18299TIP3    H276313   6.268   2.516  12.877  0.2242 -0.5329  0.0026
18300TIP3   OH276314   0.758   1.343  12.641  0.7414 -0.2243  0.3069
18300TIP3    H176315   0.792   1.417  12.691  3.1711 -0.6269 -0.6085
18300TIP3    H276316   0.780   1.267  12.694  1.2810 -0.4968 -0.2983
18301TIP3   OH276317   3.829   3.835  12.634 -0.7813 -0.3629  1.0373
18301TIP3    H176318   3.918   3.801  12.651 -0.2928 -0.5278 -1.5024
18301TIP3    H276319   3.844   3.923  12.599 -1.7410  0.2043  2.0087
18302TIP3   OH276320   3.078   3.445  11.364 -0.0242 -0.5987  0.1676
18302TIP3    H176321   3.018   3.471  11.294  0.0410 -0.3967  0.1850
18302TIP3    H276322   3.102   3.528  11.407  2.0872 -0.3597 -1.2820
18303TIP3   OH276323   3.293   0.235  13.949 -0.0967 -0.4506 -0.0268
18303TIP3    H176324   3.283   0.311  14.007  0.6783  1.5162 -2.2649
18303TIP3    H276325   3.212   0.232  13.898  0.5184 -0.0748 -1.0589
18304TIP3   OH276326   5.527   5.512   5.186 -0.4531 -0.4071  0.0715
18304TIP3    H176327   5.493   5.586   5.236 -1.5297 -1.0701  0.3621
18304TIP3    H276328   5.578   5.552   5.115  0.7737  0.5556  1.4336
18305TIP3   OH276329   3.806   3.419   3.146 -0.1726  0.6666 -0.3105
18305TIP3    H176330   3.799   3.341   3.091 -2.7003  0.7368 -0.2008
18305TIP3    H276331   3.900   3.434   3.155  0.3901 -2.2722 -0.4273
18306TIP3   OH276332   2.135   5.686  13.388  0.4507  0.5224  0.1297
18306TIP3    H176333   2.187   5.725  13.459  0.1489 -3.6831  3.0670
18306TIP3    H276334   2.200   5.650  13.327  1.2661 -2.6943  2.5967
18307TIP3   OH276335   6.002   5.493   0.017 -0.1641  0.0734  0.1243
18307TIP3    H176336   5.962   5.572   0.054  0.4413 -0.3899  1.8427
18307TIP3    H276337   5.929   5.448  -0.027 -0.4857  1.6348 -1.0355
18308TIP3   OH276338   5.895   1.536   5.086 -0.2048  0.4575  0.7429
18308TIP3    H176339   5.832   1.605   5.066 -0.0832  0.6872  1.1485
18308TIP3    H276340   5.920   1.551   5.177 -0.2927 -0.2170  0.8835
18309TIP3   OH276341   0.459   1.727  13.567 -0.6511 -0.9543  0.4806
18309TIP3    H176342   0.431   1.800  13.512  2.0831 -0.1096  0.0337
18309TIP3    H276343   0.465   1.764  13.655  1.4714 -0.3258  0.1298
18310TIP3   OH276344   0.855   4.997   4.782 -0.6593 -0.0187 -0.1553
18310TIP3    H176345   0.777   5.038   4.818 -0.5519 -0.1842  0.2756
18310TIP3    H276346   0.873   5.045   4.701  0.6504  2.1754  1.3258
18311TIP3   OH276347   5.684   4.473   3.135 -0.3013  0.3856 -0.5082
18311TIP3    H176348   5.701   4.385   3.104 -0.2428 -1.0463  3.0753
18311TIP3    H276349   5.598   4.467   3.178  0.1663  1.7843  0.7048
18312TIP3   OH276350   1.001   5.371   2.562  0.1585  0.0418 -1.0349
18312TIP3    H176351   1.095   5.367   2.579  0.1369 -0.1075 -0.9519
18312TIP3    H276352   0.969   5.283   2.581 -0.3353  0.6083  0.9295
18313TIP3   OH276353   4.996   2.178   5.242 -0.1666 -0.5953  0.3171
18313TIP3    H176354   4.945   2.148   5.318 -0.6950  0.6646  0.4771
18313TIP3    H276355   5.085   2.186   5.275 -0.0632 -1.6635  0.3482
18314TIP3   OH276356   1.358   0.609  15.366 -0.2037 -0.1020 -0.1692
18314TIP3    H176357   1.364   0.526  15.412 -0.8171 -0.2147 -0.2790
18314TIP3    H276358   1.295   0.661  15.418  0.3190  0.3647  0.0086
18315TIP3   OH276359   1.609   3.963   1.679  0.5394  0.9312  0.4843
18315TIP3    H176360   1.601   3.946   1.773 -0.4709 -0.1648  0.2177
18315TIP3    H276361   1.643   3.881   1.643  0.5728  1.2238 -0.1597
18316TIP3   OH276362   2.594   3.714   2.158 -0.3481  0.4806 -0.4643
18316TIP3    H176363   2.611   3.802   2.193  2.3184  0.2713 -0.9953
18316TIP3    H276364   2.675   3.691   2.112 -1.2718 -1.9606 -1.0134
18317TIP3   OH276365   3.480   6.559   1.666  0.6679 -0.1360 -0.5416
18317TIP3    H176366   3.512   6.564   1.576  3.1328  0.4007  0.2762
18317TIP3    H276367   3.540   6.497   1.709  0.3090  0.5211  0.9847
18318TIP3   OH276368   2.790   4.664   0.716 -0.1675  0.1970  0.1290
18318TIP3    H176369   2.833   4.735   0.764  0.1895  0.9882 -1.3028
18318TIP3    H276370   2.788   4.695   0.625 -1.2709 -1.0357 -0.2874
18319TIP3   OH276371   3.693   5.226   4.056  0.1563 -0.4020 -0.1365
18319TIP3    H176372   3.720   5.136   4.071 -0.4507 -0.7625 -1.0783
18319TIP3    H276373   3.612   5.236   4.106  0.6555 -0.1058  0.6371
18320TIP3   OH276374   0.857   3.665   5.351  0.0193 -0.6550 -0.1889
18320TIP3    H176375   0.919   3.595   5.375  1.7823  0.7854 -0.3024
18320TIP3    H276376   0.833   3.645   5.261  1.5825 -0.4242 -0.6960
18321TIP3   OH276377   6.189   5.519  16.175  0.0954 -0.2496  0.2301
18321TIP3    H176378   6.204   5.425  16.165 -0.1565 -0.2492 -0.1938
18321TIP3    H276379   6.226   5.557  16.095  1.8369  0.2072  1.2094
18322TIP3   OH276380   1.384   0.706   5.597  0.1179 -0.1773 -0.2711
18322TIP3    H176381   1.356   0.699   5.688 -1.4422  0.7715 -0.6377
18322TIP3    H276382   1.317   0.658   5.548  0.8469 -0.5302 -0.9530
18323TIP3   OH276383   4.492   0.524   4.133  0.6018 -0.4982  0.4099
18323TIP3    H176384   4.399   0.508   4.114  0.5917  0.1269 -0.1128
18323TIP3    H276385   4.494   0.549   4.225  0.2135 -0.2108  0.3407
18324TIP3   OH276386   5.997   0.228  13.151 -0.0105  0.1531  0.3695
18324TIP3    H176387   6.022   0.188  13.068 -0.2054 -1.2646  0.9573
18324TIP3    H276388   6.019   0.321  13.142  1.5041 -0.2840 -0.6415
18325TIP3   OH276389   0.265   5.085  12.581 -0.3453  0.4356  0.7484
18325TIP3    H176390   0.186   5.126  12.617 -0.1499 -0.0471  1.7723
18325TIP3    H276391   0.246   4.992  12.583  0.4944  0.2737  1.6198
18326TIP3   OH276392   2.121   2.700   6.560 -0.0398  0.1342 -0.1986
18326TIP3    H176393   2.116   2.795   6.575 -0.1607  0.3509 -1.4777
18326TIP3    H276394   2.190   2.670   6.619 -0.7856  0.8265  1.0682
18327TIP3   OH276395   0.876   4.411  17.174  0.1319  0.8046  0.3039
18327TIP3    H176396   0.875   4.507  17.179  0.7382  0.8073  0.5008
18327TIP3    H276397   0.930   4.391  17.098 -0.3036  0.6177  0.0386
18328TIP3   OH276398   1.654   3.070  14.745  0.0961 -0.0493 -0.5729
18328TIP3    H176399   1.738   3.083  14.790  0.4685  2.0861 -1.7649
18328TIP3    H276400   1.604   3.015  14.804  1.5689  0.3630  1.1580
18329TIP3   OH276401   3.058   2.259   0.481 -0.4066 -0.6523  0.0624
18329TIP3    H176402   3.102   2.200   0.420 -3.3520 -0.7203 -2.2377
18329TIP3    H276403   3.025   2.202   0.551  0.7097 -0.9831  0.3318
18330TIP3   OH276404   2.472   1.272   4.169 -0.3691 -0.1639 -0.2552
18330TIP3    H176405   2.529   1.347   4.150  1.5211 -1.4720 -0.0414
18330TIP3    H276406   2.495   1.247   4.259  1.5257 -2.9825 -1.3889
18331TIP3   OH276407   6.743   0.330   5.651  0.2211 -0.6816  0.1958
18331TIP3    H176408   6.703   0.410   5.684  0.8308 -0.2845 -0.0034
18331TIP3    H276409   6.790   0.357   5.572 -0.6234 -1.4760 -0.6037
18332TIP3   OH276410   0.124   0.516  16.325  0.1095  0.2801  0.0457
18332TIP3    H176411   0.197   0.519  16.388 -0.3772  0.6405  0.6079
18332TIP3    H276412   0.071   0.442  16.353 -0.5110  0.8910  0.5348
18333TIP3   OH276413   4.274   4.661  12.237 -0.0085 -0.0014 -0.8708
18333TIP3    H176414   4.365   4.645  12.261  0.3182  2.2099 -0.4672
18333TIP3    H276415   4.276   4.679  12.143  0.0780  0.6822 -0.7425
18334TIP3   OH276416   2.703   0.624   3.289 -0.4102  0.2851  0.2987
18334TIP3    H176417   2.636   0.620   3.220  1.0039  0.6267 -1.1421
18334TIP3    H276418   2.685   0.707   3.334 -1.0093  0.3362 -0.0152
18335TIP3   OH276419   3.720   2.021  12.615 -0.3882  0.1904 -0.2062
18335TIP3    H176420   3.775   2.098  12.601  3.0142 -1.4016  2.8246
18335TIP3    H276421   3.680   2.035  12.700 -0.2951 -1.0423  0.0602
18336TIP3   OH276422   2.831   3.101   0.108  0.3224  0.2457  0.1469
18336TIP3    H176423   2.886   3.032   0.069 -1.4275 -0.7400 -0.7360
18336TIP3    H276424   2.884   3.138   0.178  2.1688 -0.4996 -0.7947
18337TIP3   OH276425   5.336   4.354  11.726 -0.4230 -0.0928  0.2574
18337TIP3    H176426   5.284   4.399  11.660 -0.2527 -0.6683 -0.2773
18337TIP3    H276427   5.296   4.267  11.732  1.7067 -1.3115 -1.6887
18338TIP3   OH276428   5.920   3.771  13.680 -0.0597 -0.6728  0.1724
18338TIP3    H176429   5.913   3.766  13.585 -0.7522 -0.5358  0.2115
18338TIP3    H276430   6.008   3.804  13.696  0.1937 -1.0485 -0.4093
18339TIP3   OH276431   5.369   4.051  14.776  0.2720  0.0727  0.9082
18339TIP3    H176432   5.291   4.097  14.745  0.4179 -0.1818  0.1491
18339TIP3    H276433   5.429   4.052  14.701  1.1688  0.6356  1.6138
18340TIP3   OH276434   2.606   2.152  16.811  0.4452 -0.1483 -0.2190
18340TIP3    H176435   2.626   2.246  16.810  0.0763  0.1259  3.4036
18340TIP3    H276436   2.677   2.113  16.863 -1.2413 -1.2059  1.4348
18341TIP3   OH276437   4.744   3.444  16.734  0.4403 -0.0473 -0.3240
18341TIP3    H176438   4.777   3.526  16.770  2.3698 -1.0222  0.2723
18341TIP3    H276439   4.651   3.460  16.721  0.7434  2.2255 -0.2314
18342TIP3   OH276440   5.472   5.824  17.075  0.2924  0.0254  0.3583
18342TIP3    H176441   5.401   5.865  17.025 -1.2242 -2.1650  0.5542
18342TIP3    H276442   5.451   5.845  17.167  0.6524  0.4582  0.3449
18343TIP3   OH276443   0.957   3.170   4.243  0.4634  0.2328  0.9912
18343TIP3    H176444   0.863   3.170   4.225  0.5515 -0.8921  0.4006
18343TIP3    H276445   0.976   3.080   4.271  1.6998 -0.2295 -1.0525
18344TIP3   OH276446   5.320   2.220   3.926  0.0769 -0.4351 -0.5191
18344TIP3    H176447   5.338   2.128   3.943  3.9058 -0.4404 -3.3289
18344TIP3    H276448   5.383   2.245   3.858  0.4592  4.7212  1.2728
18345TIP3   OH276449   0.083   0.264   4.962  0.1043  0.3761 -0.3796
18345TIP3    H176450   0.102   0.222   4.878  0.1933  0.2334 -0.2886
18345TIP3    H276451   0.110   0.355   4.950  0.1347  0.3518 -0.5000
18346TIP3   OH276452   3.439   4.701   6.256  0.0972  0.2947  0.1139
18346TIP3    H176453   3.456   4.767   6.323  0.6502 -0.8349  1.1058
18346TIP3    H276454   3.344   4.690   6.256  0.0971  0.3067  0.6919
18347TIP3   OH276455   0.151   5.648  12.379  0.8089  0.1154  0.1960
18347TIP3    H176456   0.164   5.649  12.284 -0.4334  0.8519  0.0192
18347TIP3    H276457   0.073   5.594  12.393 -1.3913  3.1137  0.4155
18348TIP3   OH276458   4.333   2.043   0.654 -0.0158  0.4574  0.2136
18348TIP3    H176459   4.257   2.037   0.712  0.3057 -0.9356  0.5340
18348TIP3    H276460   4.331   2.132   0.620 -1.1895  0.7632  1.0393
18349TIP3   OH276461   3.152   1.612  12.924  0.0965  0.4362  0.4949
18349TIP3    H176462   3.125   1.523  12.900 -0.5922  0.0928  2.3420
18349TIP3    H276463   3.247   1.607  12.930  0.0575 -0.2307  0.7239
18350TIP3   OH276464   0.224   5.993   5.252 -0.3396 -0.0727  0.4459
18350TIP3    H176465   0.142   5.972   5.207 -0.0727  1.1716 -0.7112
18350TIP3    H276466   0.267   5.908   5.264 -0.7965 -0.5382 -0.9614
18351TIP3   OH276467   5.585   4.095   2.487 -0.0728  0.1779 -0.2151
18351TIP3    H176468   5.649   4.045   2.437  0.3231  0.3873  0.0782
18351TIP3    H276469   5.576   4.046   2.569  0.8484  0.9537  0.3704
18352TIP3   OH276470   6.499   3.614   4.624  0.2969 -0.0952  0.2893
18352TIP3    H176471   6.427   3.581   4.570 -0.0739  0.2154  0.5940
18352TIP3    H276472   6.457   3.663   4.695  0.7761 -0.4675  0.8474
18353TIP3   OH276473   0.607   6.756   4.843 -0.2190 -0.2009  0.5173
18353TIP3    H176474   0.548   6.797   4.906 -4.7058 -0.7509 -2.8013
18353TIP3    H276475   0.616   6.821   4.773  1.8132 -0.8489  0.0910
18354TIP3   OH276476   3.509   6.611   3.169  0.1787 -0.5033 -0.2000
18354TIP3    H176477   3.547   6.546   3.229  0.4681 -0.5377 -0.4200
18354TIP3    H276478   3.464   6.673   3.227  2.3400  0.7495  0.2589
18355TIP3   OH276479   5.648   3.618   3.191 -0.7183 -1.0721 -0.5606
18355TIP3    H176480   5.658   3.695   3.247 -1.6014 -1.1703 -0.2630
18355TIP3    H276481   5.694   3.548   3.238  0.5975 -0.6091 -1.1121
18356TIP3   OH276482   4.683   5.278  16.768 -0.2565  0.4385 -0.0121
18356TIP3    H176483   4.754   5.342  16.763 -1.0174  1.3118  0.0765
18356TIP3    H276484   4.717   5.201  16.722  1.6783 -0.0786  2.0418
18357TIP3   OH276485   4.633   4.947   5.022  0.8405 -0.7780 -0.6398
18357TIP3    H176486   4.579   4.977   5.095 -0.4164  0.0663 -1.8601
18357TIP3    H276487   4.723   4.963   5.050  0.3485  0.2811  0.4216
18358TIP3   OH276488   0.528   4.871   4.698  0.5592 -0.3167 -0.0387
18358TIP3    H176489   0.540   4.965   4.684 -0.2199 -0.0488  0.9842
18358TIP3    H276490   0.559   4.831   4.617 -0.3759  0.9040 -1.0375
18359TIP3   OH276491   0.874   5.114   1.977  0.0746 -0.2514 -0.4965
18359TIP3    H176492   0.798   5.076   2.022 -0.6691  1.5731 -0.1236
18359TIP3    H276493   0.928   5.150   2.048  0.1265  0.4734 -0.8951
18360TIP3   OH276494   4.203   0.254   5.530 -0.4238 -0.2928  0.6978
18360TIP3    H176495   4.272   0.190   5.514  1.4699  2.2447 -2.8415
18360TIP3    H276496   4.229   0.298   5.611  0.6177 -1.1833  0.8656
18361TIP3   OH276497   6.566   6.006   1.715 -0.6809  0.1608 -0.1299
18361TIP3    H176498   6.639   6.014   1.654 -0.6752 -1.8905 -0.4691
18361TIP3    H276499   6.517   5.930   1.684 -2.4536  0.9289  0.6362
18362TIP3   OH276500   3.144   2.378  16.528 -0.5981  0.1300 -0.6575
18362TIP3    H176501   3.067   2.396  16.582 -1.1254 -1.3185 -0.8714
18362TIP3    H276502   3.147   2.282  16.523  1.4558  0.1341 -0.3108
18363TIP3   OH276503   4.991   2.230  12.008  0.3432 -0.1845 -0.0461
18363TIP3    H176504   4.918   2.292  12.006  0.3245 -0.2160 -0.6350
18363TIP3    H276505   5.068   2.284  11.987  0.3247 -0.3556 -0.5715
18364TIP3   OH276506   2.248   0.285  16.724  0.2236 -0.2326  0.2440
18364TIP3    H176507   2.250   0.238  16.808  0.1738 -1.6494 -0.5193
18364TIP3    H276508   2.211   0.223  16.662  0.6141  0.6521 -0.9228
18365TIP3   OH276509   4.611   6.029  14.187 -0.6510 -0.2962  0.6304
18365TIP3    H176510   4.651   6.114  14.205  0.4680 -0.2003 -1.8803
18365TIP3    H276511   4.523   6.036  14.226 -1.1460  2.5781 -0.6838
18366TIP3   OH276512   6.097   1.292  15.742 -0.0673  0.5683  0.4315
18366TIP3    H176513   6.177   1.341  15.759  0.5524 -0.5646  0.8756
18366TIP3    H276514   6.040   1.311  15.816  0.8194 -0.6632  1.4707
18367TIP3   OH276515   0.190   1.275   2.619  0.1249  0.1293  0.5128
18367TIP3    H176516   0.224   1.342   2.559 -0.9287  0.5723  0.3795
18367TIP3    H276517   0.095   1.284   2.613 -0.0145 -0.0084  2.0363
18368TIP3   OH276518   4.598   2.988   3.424  0.7467 -0.0847 -0.2689
18368TIP3    H176519   4.596   2.903   3.469 -0.9716  0.4386  0.7302
18368TIP3    H276520   4.624   3.050   3.492  1.5551  0.2706 -0.8868
18369TIP3   OH276521   3.245   5.946  13.284  0.0189  0.7788  0.3141
18369TIP3    H176522   3.201   6.018  13.330 -1.0253  1.4851 -1.6838
18369TIP3    H276523   3.291   5.989  13.212 -1.2681 -0.5764 -1.3858
18370TIP3   OH276524   0.795   2.521   0.564 -0.3995  0.3602  0.6161
18370TIP3    H176525   0.727   2.574   0.523 -2.1409 -2.5111 -0.4821
18370TIP3    H276526   0.751   2.477   0.637  1.0848  0.6696  1.7416
18371TIP3   OH276527   5.811   3.178   4.526  0.7678  0.5501  0.3648
18371TIP3    H176528   5.877   3.232   4.482  1.8100 -1.1419 -0.2814
18371TIP3    H276529   5.777   3.121   4.456  0.5612 -0.4096  1.2243
18372TIP3   OH276530   0.281   0.021  16.136  0.1066  0.3415  0.2922
18372TIP3    H176531   0.263   0.086  16.203  1.0584  0.5467  0.3616
18372TIP3    H276532   0.376   0.009  16.138  0.0384 -0.4356 -0.2875
18373TIP3   OH276533   4.437   1.040  13.164  0.3707  0.0856  0.2768
18373TIP3    H176534   4.507   1.010  13.221 -0.0054 -1.2018  0.0857
18373TIP3    H276535   4.421   0.967  13.104  0.2960  1.1498 -1.0539
18374TIP3   OH276536   5.574   4.983   5.727  1.1190 -0.2544  0.2051
18374TIP3    H176537   5.543   5.069   5.755 -0.3214 -1.1622  1.5617
18374TIP3    H276538   5.562   4.927   5.803  2.4343 -1.5806 -0.5180
18375TIP3   OH276539   4.940   2.441   2.699  0.2055 -0.2053 -0.3679
18375TIP3    H176540   4.873   2.464   2.764 -0.5344 -0.2641 -1.0949
18375TIP3    H276541   4.908   2.478   2.617  0.2963 -1.5190 -1.0347
18376TIP3   OH276542   0.664   0.880   3.829  0.2492 -0.3513  0.5027
18376TIP3    H176543   0.670   0.874   3.734  2.8829 -0.9823  0.6251
18376TIP3    H276544   0.611   0.804   3.854 -1.1558  0.2667 -0.4525
18377TIP3   OH276545   1.140   5.034   6.408 -0.2072  0.3247  0.5032
18377TIP3    H176546   1.180   5.026   6.321 -2.1361 -0.2688 -0.3744
18377TIP3    H276547   1.214   5.056   6.465  1.0762  0.9845 -1.2965
18378TIP3   OH276548   2.093   3.308  14.376 -0.3800  0.1785  0.1071
18378TIP3    H176549   2.110   3.283  14.285 -0.2875 -1.7097  0.6024
18378TIP3    H276550   2.144   3.388  14.388  1.7791 -0.9735 -0.7601
18379TIP3   OH276551   3.109   0.650  12.797 -0.1772 -0.4505 -0.1333
18379TIP3    H176552   3.123   0.636  12.891  0.5058 -0.5260 -0.2388
18379TIP3    H276553   3.043   0.719  12.793  0.4443  0.1882  0.4121
18380TIP3   OH276554   5.257   1.564   4.769 -0.4088  0.1700  0.3478
18380TIP3    H176555   5.298   1.479   4.755  0.7101  0.4296  1.7588
18380TIP3    H276556   5.231   1.563   4.861 -0.9626  1.1105  0.2167
18381TIP3   OH276557   1.597   5.522  11.847 -0.0173  0.2918 -0.7301
18381TIP3    H176558   1.616   5.460  11.918 -1.7276 -1.7542 -1.9199
18381TIP3    H276559   1.683   5.552  11.817  0.7677  0.4501  1.5154
18382TIP3   OH276560   0.364   5.533  16.456  0.4704 -0.4811  0.3754
18382TIP3    H176561   0.394   5.534  16.547  1.9762  1.0587 -0.0951
18382TIP3    H276562   0.444   5.535  16.404 -0.3489  2.5225 -0.9527
18383TIP3   OH276563   0.545   1.375   4.133 -0.1066 -0.1965 -0.0081
18383TIP3    H176564   0.459   1.337   4.113  0.0985 -1.4360  1.3170
18383TIP3    H276565   0.608   1.316   4.092  0.1642 -0.3825  0.6649
18384TIP3   OH276566   2.543   0.030  14.961  0.0342  0.0274  0.1547
18384TIP3    H176567   2.461  -0.002  14.924 -0.4599  0.0266  1.2273
18384TIP3    H276568   2.518   0.102  15.019  0.9268  0.9538 -0.5582
18385TIP3   OH276569   4.676   6.127   0.009  0.2346  0.0724 -0.0052
18385TIP3    H176570   4.603   6.157   0.063  0.6651 -0.1977  0.7341
18385TIP3    H276571   4.741   6.197   0.014  0.3766 -0.0614  0.0322
18386TIP3   OH276572   6.473   2.791   2.379  0.2575 -0.2176 -0.3321
18386TIP3    H176573   6.551   2.744   2.349 -0.5027 -0.9659 -1.2185
18386TIP3    H276574   6.507   2.858   2.438  1.6881  0.2824 -1.6409
18387TIP3   OH276575   2.435   2.915  16.018  0.1701 -0.0604  0.0575
18387TIP3    H176576   2.346   2.892  15.990  1.0361 -1.9292 -1.3297
18387TIP3    H276577   2.444   2.874  16.104 -0.1056 -0.3742 -0.0603
18388TIP3   OH276578   5.670   4.850  11.522  0.5016  0.5668  0.6758
18388TIP3    H176579   5.682   4.819  11.432 -2.0267 -1.8110  1.0290
18388TIP3    H276580   5.676   4.772  11.576 -1.5369  1.3454  2.1698
18389TIP3   OH276581   3.602   5.272   3.771 -0.3389 -0.4482  0.3424
18389TIP3    H176582   3.606   5.353   3.721 -1.7717  0.3202  1.3795
18389TIP3    H276583   3.690   5.236   3.766  0.5075  1.4894  0.3721
18390TIP3   OH276584   0.257   2.670  16.989 -0.0333 -0.1198 -0.1672
18390TIP3    H176585   0.185   2.681  16.927  1.0554 -1.0346 -1.6861
18390TIP3    H276586   0.233   2.593  17.040 -1.4981  1.3330  1.4320
18391TIP3   OH276587   1.451   5.140   1.859 -0.1792 -0.3866  0.2357
18391TIP3    H176588   1.405   5.189   1.928 -1.5587 -2.3195  0.7637
18391TIP3    H276589   1.386   5.128   1.790  1.1971  1.5495 -1.5410
18392TIP3   OH276590   0.662   5.578  16.028 -0.1410  0.1230  0.1375
18392TIP3    H176591   0.642   5.489  16.000 -0.8313  0.0620  0.7777
18392TIP3    H276592   0.711   5.616  15.955  0.7342 -0.9753  0.1118
18393TIP3   OH276593   5.846   4.809   3.294 -0.2311  0.1096 -0.1585
18393TIP3    H176594   5.790   4.742   3.332  0.1863 -0.4364 -0.4951
18393TIP3    H276595   5.888   4.851   3.369 -0.6764  0.1611  0.0658
18394TIP3   OH276596   5.170   3.242   3.287 -0.1173  0.1380 -0.2380
18394TIP3    H176597   5.181   3.294   3.367  1.3279  2.0960 -1.6080
18394TIP3    H276598   5.195   3.302   3.216 -0.0065 -1.9424 -2.0574
18395TIP3   OH276599   2.794   1.133   5.428 -0.5723 -0.5569  0.0420
18395TIP3    H176600   2.809   1.218   5.387 -0.6485 -0.6401 -0.1622
18395TIP3    H276601   2.699   1.125   5.433 -0.5586 -0.3030  0.7552
18396TIP3   OH276602   3.401   0.660  12.099 -0.0828 -0.3614  0.2624
18396TIP3    H176603   3.447   0.631  12.021 -0.6509  0.5090 -0.4150
18396TIP3    H276604   3.426   0.752  12.108  1.2724 -0.8531  2.0498
18397TIP3   OH276605   0.126   0.109  11.110  0.1516 -0.1859  0.0054
18397TIP3    H176606   0.214   0.137  11.088  0.0216  0.2902  0.0870
18397TIP3    H276607   0.095   0.173  11.174  0.3085 -1.2092  1.1536
18398TIP3   OH276608   2.414   6.223  12.880 -0.0302  0.5748  0.0354
18398TIP3    H176609   2.386   6.197  12.792  1.1229  1.5825 -0.6462
18398TIP3    H276610   2.381   6.153  12.937  0.6377 -0.9537 -1.3937
18399TIP3   OH276611   3.850   4.190  11.557  0.0850  0.1852  0.8574
18399TIP3    H176612   3.832   4.211  11.649  1.0546 -2.8463  1.8379
18399TIP3    H276613   3.765   4.172  11.519 -0.1513 -0.6519  1.7590
18400TIP3   OH276614   5.246   1.811  12.382  0.0456  0.1406  0.0779
18400TIP3    H176615   5.273   1.902  12.399  2.0496 -0.0454 -1.7402
18400TIP3    H276616   5.309   1.779  12.319  0.3956 -3.1163  1.8846
18401TIP3   OH276617   2.454   0.847  11.735  0.1378 -0.1180 -0.1297
18401TIP3    H176618   2.416   0.760  11.728  1.1942 -0.6102  0.0682
18401TIP3    H276619   2.547   0.831  11.753  0.3213  1.0459  0.0146
18402TIP3   OH276620   4.647   1.782   4.061  0.1384 -0.2619 -0.0717
18402TIP3    H176621   4.717   1.744   4.009 -1.1025 -3.0464  0.0897
18402TIP3    H276622   4.679   1.778   4.151  0.7086  0.7640 -0.2250
18403TIP3   OH276623   5.470   0.495  14.602 -0.3576  0.1745  0.1663
18403TIP3    H176624   5.437   0.438  14.533  1.3334  0.4478 -0.9304
18403TIP3    H276625   5.547   0.536  14.564  0.7165  0.2405  2.2664
18404TIP3   OH276626   6.331   3.509   2.929  0.6661  0.4103  0.0033
18404TIP3    H176627   6.369   3.422   2.943 -1.1944 -0.3304  0.7625
18404TIP3    H276628   6.302   3.537   3.016 -1.4965  0.4258 -0.6657
18405TIP3   OH276629   0.296   5.425   6.433  0.0252 -0.2453  0.1540
18405TIP3    H176630   0.369   5.366   6.451  0.3186  0.2881  0.7636
18405TIP3    H276631   0.334   5.497   6.383 -0.1455 -0.1395  0.1732
18406TIP3   OH276632   3.849   0.813  11.996  0.4254 -0.6129 -0.2783
18406TIP3    H176633   3.756   0.800  11.977  0.1146  1.0707 -0.0598
18406TIP3    H276634   3.889   0.727  11.979 -0.8295 -0.8715 -2.3120
18407TIP3   OH276635   3.587   4.755  16.698  0.0145 -0.4552  0.2445
18407TIP3    H176636   3.607   4.714  16.613  2.4108  0.3299  0.3376
18407TIP3    H276637   3.665   4.807  16.717  0.4414 -2.1624  3.8876
18408TIP3   OH276638   5.524   1.697   3.332  0.0632  0.1580  0.0350
18408TIP3    H176639   5.430   1.695   3.316 -0.0509 -0.4529  0.7217
18408TIP3    H276640   5.534   1.677   3.425  0.9468 -1.5764 -0.3880
18409TIP3   OH276641   1.020   4.985  11.226 -0.1583 -0.1289  0.4011
18409TIP3    H176642   1.106   4.946  11.239 -0.8133 -1.5558  0.5568
18409TIP3    H276643   1.018   5.007  11.132  0.5335  0.3747  0.4866
18410TIP3   OH276644   2.410   0.650  13.425  0.4550 -0.3047  0.0086
18410TIP3    H176645   2.350   0.725  13.423  0.4509 -0.2905  0.6891
18410TIP3    H276646   2.482   0.677  13.367  0.8574  0.5748  0.8794
18411TIP3   OH276647   6.075   6.527   0.930 -0.2725 -0.3955  0.6857
18411TIP3    H176648   5.999   6.582   0.909 -0.5707 -0.9428  0.2751
18411TIP3    H276649   6.105   6.495   0.844  1.4295  1.0944  0.6848
18412TIP3   OH276650   4.797   0.889   4.487 -0.2245 -0.0038 -0.0453
18412TIP3    H176651   4.793   0.803   4.530  0.1113 -0.3699 -0.7272
18412TIP3    H276652   4.851   0.874   4.409 -0.4349  0.7558 -0.3428
18413TIP3   OH276653   5.792   1.647   3.292 -0.3090 -0.4019 -0.9340
18413TIP3    H176654   5.702   1.658   3.322  0.2062  0.5549  0.3553
18413TIP3    H276655   5.801   1.709   3.219 -0.2151  0.7779  0.0534
18414TIP3   OH276656   1.568   2.863  12.226  0.3538 -0.3751  0.5513
18414TIP3    H176657   1.643   2.823  12.181  0.9507 -0.3999  1.5373
18414TIP3    H276658   1.604   2.941  12.268 -0.2982 -0.0836  0.5785
18415TIP3   OH276659   2.380   3.488   0.438 -0.3867  0.1648  0.1631
18415TIP3    H176660   2.327   3.408   0.436  1.2559 -0.9433 -1.1971
18415TIP3    H276661   2.331   3.546   0.497 -3.5312 -0.4598 -1.5864
18416TIP3   OH276662   1.740   3.586   5.991  0.4341  0.9368 -0.6803
18416TIP3    H176663   1.822   3.536   5.994 -1.0071 -1.5865 -1.3810
18416TIP3    H276664   1.719   3.592   5.898 -1.6765 -1.1044 -0.4014
18417TIP3   OH276665   4.104   4.082   2.191 -0.6230 -0.2517  0.1173
18417TIP3    H176666   4.139   4.062   2.104 -1.0072  1.0686 -0.3659
18417TIP3    H276667   4.124   4.004   2.243  1.2100 -0.3528 -0.6621
18418TIP3   OH276668   4.042   0.308   3.349  0.3740  0.2137  0.0968
18418TIP3    H176669   4.043   0.222   3.390  0.8574 -0.0800 -0.5084
18418TIP3    H276670   4.099   0.362   3.404 -1.0290  0.5469  1.2725
18419TIP3   OH276671   4.543   3.033   2.085  0.3726 -0.6530 -0.0675
18419TIP3    H176672   4.451   3.058   2.089 -0.0888 -1.6664 -2.5625
18419TIP3    H276673   4.571   3.032   2.176 -1.6711  1.0797  0.6719
18420TIP3   OH276674   4.445   4.385  16.223 -0.2853  0.3429 -0.5434
18420TIP3    H176675   4.477   4.472  16.199 -0.7144  0.2825 -1.3747
18420TIP3    H276676   4.366   4.402  16.275  1.3363  0.5139  2.0847
18421TIP3   OH276677   5.777   4.388  16.163 -0.2033  0.8803 -0.6130
18421TIP3    H176678   5.848   4.336  16.125  0.8634  1.9715 -0.1794
18421TIP3    H276679   5.726   4.418  16.087 -1.8348 -2.0336 -0.8276
18422TIP3   OH276680   5.814   3.398   5.186  0.3508 -0.7981 -0.3089
18422TIP3    H176681   5.758   3.385   5.263  0.5448 -5.0707 -0.6951
18422TIP3    H276682   5.756   3.383   5.112  1.2003 -1.6653 -0.8164
18423TIP3   OH276683   4.385   2.674  16.748  0.1543 -0.2037 -0.0782
18423TIP3    H176684   4.414   2.725  16.824  0.1334 -0.4695  0.1125
18423TIP3    H276685   4.418   2.585  16.766 -0.9754 -0.5737  0.2634
18424TIP3   OH276686   6.237   3.548   4.540  0.3246  0.3106 -0.2577
18424TIP3    H176687   6.200   3.478   4.594 -0.0182  0.6021 -0.1064
18424TIP3    H276688   6.221   3.521   4.450 -0.7217  0.6737 -0.1885
18425TIP3   OH276689   4.554   4.347  12.887 -0.0537 -0.1723  0.4867
18425TIP3    H176690   4.625   4.411  12.893 -0.0306 -0.1700  0.2024
18425TIP3    H276691   4.573   4.284  12.957 -0.5613  0.6061  1.3467
18426TIP3   OH276692   6.504   1.087   1.828 -0.1567  0.0829  0.3160
18426TIP3    H176693   6.594   1.053   1.831 -0.2795 -0.3262 -0.5278
18426TIP3    H276694   6.509   1.161   1.767 -0.5694 -0.5077 -0.4522
18427TIP3   OH276695   3.563   2.636   1.804 -0.0808  0.4073  0.0822
18427TIP3    H176696   3.474   2.617   1.772 -0.2921  1.6548 -0.1505
18427TIP3    H276697   3.583   2.564   1.864 -1.4500  0.3509  0.5201
18428TIP3   OH276698   1.775   5.342   6.428 -0.3771  0.3035 -0.2287
18428TIP3    H176699   1.743   5.335   6.518  0.4682  0.7692  0.1263
18428TIP3    H276700   1.870   5.340   6.437 -0.2783  0.8700 -1.0671
18429TIP3   OH276701   4.365   5.028   6.026  0.7472  0.9641 -0.0013
18429TIP3    H176702   4.386   5.046   6.117 -0.8661 -0.7497  0.7957
18429TIP3    H276703   4.291   4.967   6.031  1.5663 -0.3543 -2.4401
18430TIP3   OH276704   0.586   6.350   2.905  0.4837  0.4741 -0.1656
18430TIP3    H176705   0.530   6.272   2.913  3.9547 -2.1007  1.6649
18430TIP3    H276706   0.550   6.412   2.968 -1.8525  0.1059 -1.0268
18431TIP3   OH276707   2.300   3.135  12.449 -0.1771  0.3837  0.6685
18431TIP3    H176708   2.281   3.115  12.357 -1.4522 -1.8900  1.3499
18431TIP3    H276709   2.222   3.183  12.479  1.1289  3.0370  0.1067
18432TIP3   OH276710   1.942   4.726  15.087  0.3321 -0.0426  0.1357
18432TIP3    H176711   1.943   4.822  15.090  0.1204  0.0536 -1.6386
18432TIP3    H276712   1.861   4.705  15.041  1.6706 -0.9178 -1.9586
18433TIP3   OH276713   4.937   0.023  12.729  0.0280 -0.7526 -0.0507
18433TIP3    H176714   4.901   0.041  12.816  1.7195 -2.8972  1.2017
18433TIP3    H276715   4.929   0.106  12.682 -0.9972  0.4620  2.1090
18434TIP3   OH276716   3.814   2.840  13.404 -0.2100 -0.1832 -0.0123
18434TIP3    H176717   3.810   2.934  13.417  1.1326  0.1078 -1.5162
18434TIP3    H276718   3.744   2.805  13.461 -0.2990  1.6277  1.0556
18435TIP3   OH276719   1.815   1.115   5.624 -0.2819 -0.0601 -0.4290
18435TIP3    H176720   1.900   1.120   5.667  0.1220  1.2433 -1.3431
18435TIP3    H276721   1.791   1.206   5.605 -0.2928 -0.5525 -3.2395
18436TIP3   OH276722   1.299   0.519   4.231  0.3566 -0.1762 -0.2105
18436TIP3    H176723   1.239   0.593   4.228 -0.6665 -1.0228 -1.7019
18436TIP3    H276724   1.386   0.559   4.224 -0.1580  0.9231 -0.5362
18437TIP3   OH276725   5.441   4.617  13.566 -0.0600 -0.0039 -0.0897
18437TIP3    H176726   5.471   4.529  13.589  2.2883  0.8729  0.5360
18437TIP3    H276727   5.466   4.629  13.475 -2.1433 -0.6058 -0.8085
18438TIP3   OH276728   2.255   3.751  11.161  0.5310 -0.4771 -0.0710
18438TIP3    H176729   2.176   3.765  11.214  0.5651  0.4788 -0.2569
18438TIP3    H276730   2.222   3.738  11.072  0.5369 -0.9841 -0.0024
18439TIP3   OH276731   5.786   6.163  11.752  0.5281 -0.1900 -0.2947
18439TIP3    H176732   5.803   6.106  11.678 -1.1539 -2.1789  0.7671
18439TIP3    H276733   5.787   6.106  11.829 -0.7367  1.2497  0.8838
18440TIP3   OH276734   5.982   0.329  15.263  0.1066 -0.7987 -0.0959
18440TIP3    H176735   5.906   0.291  15.307  0.8870 -1.9274  0.3067
18440TIP3    H276736   6.036   0.255  15.237  0.3901 -0.0814 -1.6779
18441TIP3   OH276737   1.839   5.282   2.579  0.4856  0.6590  0.0001
18441TIP3    H176738   1.882   5.197   2.571  0.9221  0.6708  1.8121
18441TIP3    H276739   1.755   5.263   2.620  0.0675  0.9755 -0.7002
18442TIP3   OH276740   3.293   4.698   1.459 -0.1944  0.4592 -0.4761
18442TIP3    H176741   3.313   4.646   1.537  1.6600  1.3926 -0.2687
18442TIP3    H276742   3.344   4.658   1.390 -2.5481 -0.9441 -1.5217
18443TIP3   OH276743   3.038   4.259  15.714  0.0021 -0.5006  0.2708
18443TIP3    H176744   2.973   4.211  15.764 -1.1313  1.1821  0.5133
18443TIP3    H276745   2.991   4.287  15.635  0.1384  1.4276  0.8208
18444TIP3   OH276746   5.046   4.356  13.219 -0.2591  0.0470 -0.0756
18444TIP3    H176747   5.024   4.409  13.295  0.1195  1.6881 -1.0798
18444TIP3    H276748   5.127   4.394  13.185 -0.5362 -0.5189 -1.4290
18445TIP3   OH276749   5.251   6.719   3.792  0.3033  0.0718 -0.3098
18445TIP3    H176750   5.163   6.751   3.813  0.2654 -0.0649 -0.2584
18445TIP3    H276751   5.280   6.675   3.872  0.1916 -0.3814 -0.5190
18446TIP3   OH276752   2.222   2.729   1.133  0.6779 -0.0739 -0.2355
18446TIP3    H176753   2.259   2.817   1.135 -1.9984  1.2495 -2.3270
18446TIP3    H276754   2.251   2.693   1.049 -0.3335 -0.1348 -0.5760
18447TIP3   OH276755   4.520   0.218  15.013  0.2864 -1.1292  0.2091
18447TIP3    H176756   4.446   0.173  14.972 -0.2917 -0.2043  0.2164
18447TIP3    H276757   4.504   0.210  15.107 -1.8331  2.2002  0.2736
18448TIP3   OH276758   1.272   1.656  15.594 -0.0773  0.1748  0.8252
18448TIP3    H176759   1.239   1.743  15.616 -0.4794 -0.3614  2.4650
18448TIP3    H276760   1.351   1.647  15.647 -0.8610 -1.0082  1.8563
18449TIP3   OH276761   1.260   3.629   2.047 -0.0109 -0.3552  0.0129
18449TIP3    H176762   1.350   3.603   2.065 -0.1823 -1.5407 -0.7034
18449TIP3    H276763   1.215   3.546   2.027 -1.5386  0.0415  1.4853
18450TIP3   OH276764   6.492   2.062  14.732 -0.3672  0.3674  0.0589
18450TIP3    H176765   6.504   1.978  14.688  0.6798  0.8360 -0.5744
18450TIP3    H276766   6.498   2.041  14.826 -1.2566 -0.4209 -0.0445
18451TIP3   OH276767   4.171   0.654   5.381  0.3659 -0.0261  0.3516
18451TIP3    H176768   4.240   0.719   5.370  0.0388  0.1761 -0.5346
18451TIP3    H276769   4.207   0.574   5.343  0.0526  0.1197 -0.2536
18452TIP3   OH276770   0.289   2.174   6.120 -0.1023 -0.1732  0.2611
18452TIP3    H176771   0.354   2.127   6.172 -0.5345 -2.2924 -0.9527
18452TIP3    H276772   0.281   2.259   6.161  2.3677 -0.3703  1.3008
18453TIP3   OH276773   4.082   5.029   2.698  0.2014 -0.1092 -0.2634
18453TIP3    H176774   3.996   5.032   2.742 -0.3253 -1.9763 -1.0683
18453TIP3    H276775   4.061   5.033   2.605  0.9970 -0.5430 -0.4657
18454TIP3   OH276776   5.416   2.290   5.261  0.0691 -0.7309  0.1745
18454TIP3    H176777   5.378   2.217   5.309 -0.4544 -0.3203  0.3955
18454TIP3    H276778   5.481   2.250   5.203  0.6370 -1.2464  1.1497
18455TIP3   OH276779   4.556   6.079  12.241 -0.4263  0.3540  0.4871
18455TIP3    H176780   4.625   6.027  12.281  1.1965  0.9757 -1.3492
18455TIP3    H276781   4.591   6.168  12.241 -1.1392  0.6521 -0.6218
18456TIP3   OH276782   1.425   2.256  17.149  0.2053  0.2661  0.5029
18456TIP3    H176783   1.384   2.230  17.231 -0.5332  0.4716  0.2084
18456TIP3    H276784   1.359   2.310  17.105  0.5937  0.1745 -0.2142
18457TIP3   OH276785   2.142   5.847   1.250  0.6117  0.6065  0.2959
18457TIP3    H176786   2.218   5.905   1.251  0.4020  0.9445 -1.1694
18457TIP3    H276787   2.080   5.888   1.311  1.4239  0.5378  1.1993
18458TIP3   OH276788   4.418   0.382   5.005 -0.0695  0.0376 -0.1351
18458TIP3    H176789   4.497   0.419   4.966  0.0122  0.3508  0.3156
18458TIP3    H276790   4.447   0.300   5.045 -0.4804 -1.1735 -2.1611
18459TIP3   OH276791   3.679   0.797  13.577 -0.4246 -0.0928  0.2270
18459TIP3    H176792   3.761   0.826  13.617 -0.7008 -0.5623  1.1741
18459TIP3    H276793   3.638   0.742  13.644 -1.1185 -0.5507 -0.5507
18460TIP3   OH276794   3.597   5.198   4.622  0.0826  0.2797  0.0252
18460TIP3    H176795   3.561   5.286   4.609  0.3534  0.7256  1.9892
18460TIP3    H276796   3.608   5.164   4.534 -0.0908  2.1888 -0.7884
18461TIP3   OH276797   4.719   5.647   6.263 -0.3799 -0.0632 -0.0937
18461TIP3    H176798   4.807   5.617   6.242 -0.8509 -1.1653 -0.5704
18461TIP3    H276799   4.715   5.736   6.227  1.4668  1.1976  2.4873
18462TIP3   OH276800   4.907   6.771   4.603 -0.2236  0.9194  0.0450
18462TIP3    H176801   4.901   6.731   4.690 -2.1224 -0.2953 -0.5825
18462TIP3    H276802   4.952   6.706   4.549  2.4520  2.3213  0.3781
18463TIP3   OH276803   1.444   4.912   2.161 -0.3228 -0.6505  0.1014
18463TIP3    H176804   1.408   4.986   2.211 -0.2457 -0.3529 -0.2723
18463TIP3    H276805   1.366   4.865   2.130 -0.3765 -0.5624  0.1012
18464TIP3   OH276806   3.229   6.673   0.250 -0.2239  0.4861  0.1061
18464TIP3    H176807   3.248   6.740   0.316 -0.1870  0.1304  0.4561
18464TIP3    H276808   3.136   6.687   0.229 -0.3059  0.4256  0.4271
18465TIP3   OH276809   2.244   4.152  16.712 -0.3982  0.1051 -0.3866
18465TIP3    H176810   2.156   4.187  16.701 -0.6361 -0.4140 -0.1639
18465TIP3    H276811   2.235   4.059  16.695  0.1117  0.0495 -0.3684
18466TIP3   OH276812   4.519   5.532   1.589  0.3710  0.5996  0.3384
18466TIP3    H176813   4.525   5.628   1.581  1.6643  0.5682  0.7269
18466TIP3    H276814   4.599   5.500   1.549  0.5279 -0.2574  1.3010
18467TIP3   OH276815   6.545   3.702   6.569  0.3821  0.3616  0.4453
18467TIP3    H176816   6.516   3.618   6.533 -0.0378  0.1774  1.1842
18467TIP3    H276817   6.576   3.751   6.494 -0.7662  0.1128 -0.2187
18468TIP3   OH276818   4.228   4.883  16.653  0.1899 -0.1451 -0.1868
18468TIP3    H176819   4.312   4.900  16.611 -0.6863  0.6101 -1.7269
18468TIP3    H276820   4.250   4.867  16.745  1.8526  1.8784 -0.1417
18469TIP3   OH276821   0.803   0.794  11.298 -0.2805  0.2896  0.2166
18469TIP3    H176822   0.867   0.722  11.296  0.6169  1.0209  1.7024
18469TIP3    H276823   0.797   0.819  11.390 -1.1626  1.6226 -0.1782
18470TIP3   OH276824   3.584   6.766   1.153  0.0270  0.1542 -0.5248
18470TIP3    H176825   3.594   6.703   1.224 -1.6421 -0.1582 -0.5292
18470TIP3    H276826   3.629   6.726   1.078 -0.2504 -0.6216 -0.2825
18471TIP3   OH276827   1.662   6.595   5.441  0.4321  0.3005 -0.3066
18471TIP3    H176828   1.720   6.548   5.381 -0.7738 -0.8623 -0.6061
18471TIP3    H276829   1.721   6.647   5.497  1.7105 -0.5000 -0.8859
18472TIP3   OH276830   2.906   3.987  13.047 -0.2729  0.1652 -0.0851
18472TIP3    H176831   2.866   3.930  13.112 -0.1284  0.3594  0.1760
18472TIP3    H276832   2.945   3.927  12.983  0.4110 -0.0419  0.5095
18473TIP3   OH276833   3.587   3.921  12.079  0.1071  0.6542  0.7309
18473TIP3    H176834   3.572   3.923  12.173 -1.0890  1.5511  0.5460
18473TIP3    H276835   3.518   3.976  12.042 -2.4234 -3.2938 -1.1093
18474TIP3   OH276836   0.388   3.012   5.641 -0.4848  0.1405  0.3053
18474TIP3    H176837   0.332   3.048   5.710 -0.0734  3.3581 -0.9121
18474TIP3    H276838   0.327   2.982   5.573 -0.8100  1.6153 -0.0727
18475TIP3   OH276839   5.356   2.642  15.598  0.5289  0.9059 -0.6266
18475TIP3    H176840   5.336   2.617  15.688 -0.9470 -0.3774 -1.2566
18475TIP3    H276841   5.439   2.600  15.579 -0.5077 -1.2450 -0.7185
18476TIP3   OH276842   2.198   1.384   5.055  0.5535  0.2473 -0.2859
18476TIP3    H176843   2.146   1.391   4.975  1.8541  0.0618 -1.1805
18476TIP3    H276844   2.222   1.474   5.076 -1.9526  0.6137  1.4447
18477TIP3   OH276845   0.469   4.320  12.546  0.2306 -0.2664 -0.0662
18477TIP3    H176846   0.403   4.285  12.606 -0.8192 -0.2483 -1.1792
18477TIP3    H276847   0.519   4.382  12.600 -1.7066  0.9429  0.4241
18478TIP3   OH276848   4.092   4.656   2.007  0.4970  0.3821 -0.4593
18478TIP3    H176849   4.112   4.637   1.916  1.4602  0.2394 -0.2300
18478TIP3    H276850   4.076   4.750   2.009 -1.9346  0.0521 -1.1791
18479TIP3   OH276851   3.122   2.198  11.338  0.3170  1.0717 -0.1439
18479TIP3    H176852   3.200   2.231  11.295 -0.6233  3.0085 -0.4927
18479TIP3    H276853   3.082   2.140  11.274  1.7081 -0.4055  0.2575
18480TIP3   OH276854   4.814   5.255   2.968  0.3312  0.2461 -0.4392
18480TIP3    H176855   4.894   5.252   2.916 -1.3945 -0.1838 -3.2826
18480TIP3    H276856   4.808   5.346   2.998  2.8567 -0.1698  1.6786
18481TIP3   OH276857   2.379   6.491   6.363 -0.0854 -0.0291 -0.2480
18481TIP3    H176858   2.330   6.419   6.323  1.5084 -1.6424  0.5606
18481TIP3    H276859   2.365   6.480   6.457 -0.8327  1.5291 -0.1335
18482TIP3   OH276860   0.348   2.105  13.066 -0.3286 -0.1589  0.3564
18482TIP3    H176861   0.427   2.096  13.118 -0.8485  0.5717  1.3072
18482TIP3    H276862   0.285   2.146  13.125 -1.2601 -0.2591 -0.5363
18483TIP3   OH276863   2.756   4.612  13.956 -0.4193 -0.4078 -0.0652
18483TIP3    H176864   2.797   4.680  13.903 -0.3247 -1.2911 -1.1643
18483TIP3    H276865   2.664   4.636  13.959 -0.3747 -0.1829 -0.3962
18484TIP3   OH276866   5.813   4.608   1.938 -0.1829 -0.0089 -0.0743
18484TIP3    H176867   5.769   4.673   1.992 -0.2321 -0.6240  0.6353
18484TIP3    H276868   5.876   4.659   1.886 -1.7028  0.8827 -1.1132
18485TIP3   OH276869   1.359   1.608  13.963 -0.0068 -0.6557 -0.1156
18485TIP3    H176870   1.273   1.624  13.926 -0.4624 -0.2264  1.0697
18485TIP3    H276871   1.404   1.555  13.898 -0.3171  1.0767 -1.8155
18486TIP3   OH276872   0.984   2.656  14.495 -0.6679 -0.6947  0.4984
18486TIP3    H176873   1.037   2.730  14.524 -0.9212 -0.8318  1.3379
18486TIP3    H276874   0.998   2.589  14.563  1.1681 -2.2051 -1.2104
18487TIP3   OH276875   3.313   1.835   1.204  0.8075 -0.4537  0.3733
18487TIP3    H176876   3.352   1.922   1.197 -0.9822  0.3709  0.2131
18487TIP3    H276877   3.372   1.786   1.262  3.4024 -0.0730 -1.7485
18488TIP3   OH276878   6.147   5.697  13.271  0.1759  0.2484  0.0787
18488TIP3    H176879   6.059   5.658  13.274  0.5035 -0.6393 -1.0221
18488TIP3    H276880   6.167   5.704  13.177  0.0968  3.2548  0.2076
18489TIP3   OH276881   6.347   5.101   1.303 -0.2108  0.2368 -0.4366
18489TIP3    H176882   6.313   5.169   1.361 -1.1766 -0.3959 -0.2350
18489TIP3    H276883   6.270   5.070   1.255 -0.0451 -1.5973  0.4059
18490TIP3   OH276884   2.343   1.498   2.227  0.3705  0.1891  0.3771
18490TIP3    H176885   2.289   1.564   2.272  0.5610  1.6947 -1.4495
18490TIP3    H276886   2.421   1.491   2.282 -0.1742  0.5832  1.2441
18491TIP3   OH276887   6.334   3.736   3.568  0.1179 -0.2123 -0.5565
18491TIP3    H176888   6.306   3.811   3.620  0.1953 -1.8101  1.9327
18491TIP3    H276889   6.419   3.763   3.532 -0.4594  1.3495 -0.8580
18492TIP3   OH276890   4.367   4.854   2.962  0.0821  0.1927  0.3492
18492TIP3    H176891   4.284   4.867   3.007 -0.6245  1.1746 -1.1612
18492TIP3    H276892   4.376   4.931   2.905  1.5170 -0.4119 -0.2963
18493TIP3   OH276893   3.865   3.558   6.902 -0.0773 -0.9107 -0.1328
18493TIP3    H176894   3.867   3.644   6.860 -0.0638 -1.0752 -0.4733
18493TIP3    H276895   3.809   3.505   6.845 -2.5244 -0.3528  1.5807
18494TIP3   OH276896   0.245   4.824  16.594  0.1574  0.0545 -0.0357
18494TIP3    H176897   0.294   4.829  16.512  1.3526 -2.2647  0.4653
18494TIP3    H276898   0.299   4.769  16.651 -2.2519 -1.2773  1.1122
18495TIP3   OH276899   6.210   2.201  12.602  0.4549 -0.0125 -0.1973
18495TIP3    H176900   6.156   2.150  12.541 -0.0604  0.9460 -0.5753
18495TIP3    H276901   6.150   2.224  12.673 -0.0548  2.1079 -1.2145
18496TIP3   OH276902   0.865   3.503   2.461 -0.4885  0.1262  0.2077
18496TIP3    H176903   0.948   3.487   2.505 -0.1539 -1.6484 -0.9723
18496TIP3    H276904   0.801   3.450   2.508 -1.0786  1.7118  1.2989
18497TIP3   OH276905   6.769   6.694  13.817 -0.2697 -0.4647  0.3111
18497TIP3    H176906   6.724   6.757  13.760  0.1714 -0.0655  0.3923
18497TIP3    H276907   6.786   6.619  13.761  0.4174  0.0396 -0.1756
18498TIP3   OH276908   0.414   4.514   3.163  0.0066 -0.1538 -0.6366
18498TIP3    H176909   0.459   4.430   3.154  0.4811 -0.2414  1.9217
18498TIP3    H276910   0.467   4.563   3.225 -2.0795  0.7079  0.5640
18499TIP3   OH276911   1.766   5.236  16.907 -0.2070 -0.6910  0.0496
18499TIP3    H176912   1.773   5.177  16.832  2.2402 -0.8712  0.3327
18499TIP3    H276913   1.856   5.265  16.923 -1.0470  1.5030  1.2235
18500TIP3   OH276914   5.048   5.600  15.974  0.7973  0.1892 -0.8095
18500TIP3    H176915   5.091   5.542  15.911  1.6047  1.0225 -1.0456
18500TIP3    H276916   4.966   5.556  15.995  1.3287 -0.9670 -1.0860
18501TIP3   OH276917   6.513   5.278  14.481 -0.9096 -0.3672 -0.3964
18501TIP3    H176918   6.581   5.326  14.435 -0.1738 -0.6288  0.3930
18501TIP3    H276919   6.536   5.286  14.574 -2.9774  1.1182  0.0645
18502TIP3   OH276920   3.516   6.269  11.640 -0.2560 -0.2240 -1.1418
18502TIP3    H176921   3.442   6.233  11.688 -1.0046 -2.0843 -3.4474
18502TIP3    H276922   3.560   6.328  11.701 -2.2424 -0.9185  1.0640
18503TIP3   OH276923   0.795   4.364  11.333 -0.3452 -0.3965 -0.2558
18503TIP3    H176924   0.877   4.410  11.352  0.0210 -1.0803 -0.1150
18503TIP3    H276925   0.775   4.317  11.415 -1.8623  1.1844  0.3471
18504TIP3   OH276926   6.389   1.643  10.848  0.4411 -0.0284  0.0961
18504TIP3    H176927   6.355   1.687  10.770  1.9200  0.4472 -0.3139
18504TIP3    H276928   6.437   1.568  10.813 -0.8766 -1.2019  0.7135
18505TIP3   OH276929   4.069   3.332  16.131 -0.1802  0.7526 -0.0085
18505TIP3    H176930   4.115   3.406  16.172 -2.5904  1.1289  2.2670
18505TIP3    H276931   3.976   3.354  16.140 -0.9178 -1.3744 -1.6638
18506TIP3   OH276932   0.456   0.043  12.449  0.3003 -0.3460 -0.6130
18506TIP3    H176933   0.451   0.027  12.355  2.2660 -1.5412 -0.5578
18506TIP3    H276934   0.536   0.095  12.461 -0.5590  0.8427  0.3150
18507TIP3   OH276935   2.849   5.393   3.704 -0.3127  0.2226  0.5039
18507TIP3    H176936   2.900   5.335   3.760 -0.1897 -0.4246 -0.2536
18507TIP3    H276937   2.914   5.446   3.657 -0.2369 -1.1251 -1.0262
18508TIP3   OH276938   2.192   3.480   3.700  0.2310 -0.0272 -0.1285
18508TIP3    H176939   2.184   3.554   3.760  0.8759 -0.5131  0.5881
18508TIP3    H276940   2.283   3.451   3.710 -0.1844 -1.3207  0.1063
18509TIP3   OH276941   5.043   3.883  10.754 -0.7177  0.2278 -0.3176
18509TIP3    H176942   4.985   3.809  10.741  1.4522 -1.6762  0.1875
18509TIP3    H276943   4.996   3.942  10.813 -1.6494 -1.8238  1.0681
18510TIP3   OH276944   1.914   2.302   5.262 -0.3598  0.1617  1.0536
18510TIP3    H176945   1.983   2.366   5.280  0.8666 -0.4237 -1.2133
18510TIP3    H276946   1.929   2.276   5.171 -1.5727 -2.4288  1.5128
18511TIP3   OH276947   4.900   1.669   1.794 -0.2397 -0.1569  0.6577
18511TIP3    H176948   4.904   1.762   1.771  0.5643 -0.4122 -0.3330
18511TIP3    H276949   4.806   1.648   1.793 -0.3239 -0.0407 -2.1642
18512TIP3   OH276950   0.708   5.793   3.048  0.4450  0.1983  0.1059
18512TIP3    H176951   0.628   5.757   3.012  0.2039 -0.4300  1.2306
18512TIP3    H276952   0.775   5.773   2.983  0.0500 -1.0472  0.0642
18513TIP3   OH276953   1.831   4.127  14.660 -0.7052 -0.0779  0.1129
18513TIP3    H176954   1.858   4.083  14.579  1.8966  2.4621 -0.5807
18513TIP3    H276955   1.778   4.201  14.631  0.1292  0.7752  0.6789
18514TIP3   OH276956   2.669   5.627   1.007  0.0728 -0.5254 -0.5433
18514TIP3    H176957   2.590   5.587   0.972 -0.8223  1.4373 -0.8850
18514TIP3    H276958   2.697   5.689   0.940  0.5315  0.5290  0.5728
18515TIP3   OH276959   3.418   2.533   0.596  0.4191  0.1101 -0.0121
18515TIP3    H176960   3.466   2.507   0.517  0.4262  3.1893 -1.1421
18515TIP3    H276961   3.479   2.515   0.667  1.6010  0.0094 -1.0091
18516TIP3   OH276962   6.209   6.172  12.608  0.3013  0.1998 -0.1522
18516TIP3    H176963   6.158   6.122  12.672  1.7599  1.0734  1.7837
18516TIP3    H276964   6.173   6.145  12.524 -1.1984 -1.5856  0.9622
18517TIP3   OH276965   6.249   5.334   1.483  0.5589  0.0383  0.0880
18517TIP3    H176966   6.185   5.383   1.431 -0.5299 -1.4015 -0.0054
18517TIP3    H276967   6.328   5.388   1.480 -0.1141  1.0363 -1.2663
18518TIP3   OH276968   4.715   2.665  13.151  0.6241  0.3620 -0.2784
18518TIP3    H176969   4.718   2.738  13.213  3.4623 -0.5685  0.8692
18518TIP3    H276970   4.687   2.590  13.203 -1.9801  0.4715 -1.3849
18519TIP3   OH276971   4.841   6.312   5.602  0.3978 -0.1632 -0.2327
18519TIP3    H176972   4.936   6.318   5.603  0.3446  0.8231 -0.1949
18519TIP3    H276973   4.820   6.243   5.665  1.1235 -1.1103 -0.9963
18520TIP3   OH276974   1.021   1.323  15.814 -0.3894  0.0646 -0.2811
18520TIP3    H176975   1.027   1.333  15.909 -2.0525  1.1716 -0.2577
18520TIP3    H276976   1.092   1.378  15.780  1.0018 -1.2982  0.3128
18521TIP3   OH276977   1.866   1.412   1.574  0.0592  0.3069 -0.0261
18521TIP3    H176978   1.881   1.319   1.556 -0.8473  0.1380  0.0786
18521TIP3    H276979   1.786   1.415   1.625  0.5669  1.0881  0.7507
18522TIP3   OH276980   4.245   0.273   5.842  0.2167 -0.4776 -0.4305
18522TIP3    H176981   4.254   0.368   5.848 -0.4084 -0.5177  3.0066
18522TIP3    H276982   4.334   0.239   5.855  0.4311 -0.3998 -1.6066
18523TIP3   OH276983   2.341   0.764   2.515 -0.4133 -0.7423  0.2300
18523TIP3    H176984   2.351   0.762   2.610  2.3370  0.6750  0.0669
18523TIP3    H276985   2.310   0.677   2.493  1.3328 -1.9748  2.2379
18524TIP3   OH276986   0.768   4.417   5.891  0.1163 -0.5976  0.0022
18524TIP3    H176987   0.811   4.346   5.843 -0.4766 -0.9359 -0.0412
18524TIP3    H276988   0.684   4.380   5.918 -0.1281  0.0356  0.1287
18525TIP3   OH276989   3.816   2.195  12.138 -0.1942 -0.3027  0.2843
18525TIP3    H176990   3.887   2.216  12.198  0.3635 -1.9492  0.2406
18525TIP3    H276991   3.842   2.233  12.055 -0.8497  1.7718  0.9413
18526TIP3   OH276992   6.765   3.567   6.357 -0.5036 -0.3576  0.1127
18526TIP3    H176993   6.833   3.625   6.322 -0.5417  0.0710  0.7277
18526TIP3    H276994   6.711   3.546   6.281 -1.0102  1.1465  0.0139
18527TIP3   OH276995   6.677   3.994   0.207 -0.7089  0.0974 -0.0711
18527TIP3    H176996   6.585   4.000   0.233 -0.7902  1.2505 -0.5839
18527TIP3    H276997   6.720   3.949   0.280 -1.9863 -2.2018 -0.6111
18528TIP3   OH276998   4.726   3.339  16.987  0.0314  0.1188  0.0919
18528TIP3    H176999   4.736   3.252  16.949 -1.1718 -0.2659  0.6189
18528TIP3    H277000   4.755   3.398  16.918  2.0235 -0.7187  0.1489
18529TIP3   OH277001   3.752   4.504   5.446  0.1422 -0.0024  0.0209
18529TIP3    H177002   3.671   4.544   5.474 -1.3227 -1.5624 -1.6837
18529TIP3    H277003   3.793   4.569   5.388  0.3931  0.9815  1.2773
18530TIP3   OH277004   4.756   3.697   2.134 -0.9863 -0.1217  0.2312
18530TIP3    H177005   4.823   3.649   2.182  0.2030 -0.3041 -1.5132
18530TIP3    H277006   4.779   3.789   2.145 -0.0306 -0.2124 -0.9136
18531TIP3   OH277007   6.757   3.204  12.627 -0.4137 -0.2969 -0.3782
18531TIP3    H177008   6.663   3.214  12.614 -0.3032 -1.2730 -2.2954
18531TIP3    H277009   6.779   3.121  12.584  1.0496 -1.0125  1.5849
18532TIP3   OH277010   5.552   2.944   3.088 -0.2909 -0.3843  0.0064
18532TIP3    H177011   5.565   3.038   3.096 -0.0445 -0.5394  1.5959
18532TIP3    H277012   5.457   2.933   3.087 -0.4098 -0.3234  3.1924
18533TIP3   OH277013   1.183   6.098  13.182  0.0311  0.0369  0.7026
18533TIP3    H177014   1.205   6.006  13.189 -1.9744 -0.7162 -1.5374
18533TIP3    H277015   1.194   6.132  13.271  0.0919 -2.5165  1.7585
18534TIP3   OH277016   6.700   6.744   5.848 -0.0056  0.0613  0.1735
18534TIP3    H177017   6.617   6.779   5.881  0.4424  0.8224  0.5117
18534TIP3    H277018   6.719   6.796   5.770  0.4935  0.3432  0.4833
18535TIP3   OH277019   6.489   5.199  12.380  0.7236 -0.3665  0.1345
18535TIP3    H177020   6.534   5.125  12.420  0.2608 -1.3928 -1.1946
18535TIP3    H277021   6.419   5.221  12.442  1.9128  0.0903  1.3547
18536TIP3   OH277022   3.737   1.335  16.632 -0.0854 -0.0319 -0.0782
18536TIP3    H177023   3.696   1.329  16.719  0.3514  0.0464  0.1359
18536TIP3    H277024   3.663   1.335  16.571 -0.3993 -0.0367  0.2952
18537TIP3   OH277025   6.443   0.590   0.525  0.2821 -0.0385 -1.2168
18537TIP3    H177026   6.504   0.615   0.593  0.0051  1.3561 -1.4573
18537TIP3    H277027   6.404   0.508   0.556  1.4493 -0.3553 -0.5543
18538TIP3   OH277028   0.552   0.890   4.660 -0.1479  0.3434  0.0937
18538TIP3    H177029   0.467   0.932   4.647 -0.0142  0.9307  1.0746
18538TIP3    H277030   0.534   0.815   4.716 -0.2027 -0.2577 -0.7101
18539TIP3   OH277031   6.006   4.635  14.052  0.3539 -0.4523 -0.2695
18539TIP3    H177032   6.039   4.590  14.130  0.5029  0.4170  0.1719
18539TIP3    H277033   6.082   4.683  14.018 -0.1225  0.5449  0.0353
18540TIP3   OH277034   1.043   0.635   2.119 -0.2602  0.1685 -0.2835
18540TIP3    H177035   1.005   0.633   2.031  0.7100 -2.1068 -0.7418
18540TIP3    H277036   0.997   0.565   2.165  1.8869 -1.3321 -0.2622
18541TIP3   OH277037   0.515   2.897   4.988 -0.2247 -0.0143 -0.0385
18541TIP3    H177038   0.436   2.851   4.963 -0.3886 -0.2879  0.9465
18541TIP3    H277039   0.505   2.985   4.950 -1.9576  0.6319  1.7797
18542TIP3   OH277040   3.748   5.618   4.741  0.1586  0.0688 -0.6723
18542TIP3    H177041   3.806   5.683   4.779  2.3099 -2.6524  1.0426
18542TIP3    H277042   3.803   5.540   4.728 -1.7874 -0.9361 -4.3733
18543TIP3   OH277043   2.954   2.124  13.041 -0.0054  0.4985 -0.0329
18543TIP3    H177044   3.036   2.172  13.027 -0.3583  1.7064  1.7644
18543TIP3    H277045   2.912   2.169  13.114 -2.7794  0.5644 -1.5128
18544TIP3   OH277046   0.489   3.109   3.175 -0.2867  0.2458 -0.4516
18544TIP3    H177047   0.487   3.083   3.267  1.7864 -0.5340 -0.5856
18544TIP3    H277048   0.468   3.202   3.176  0.5997  0.4559  0.9296
18545TIP3   OH277049   0.442   3.730  12.141  0.2144 -0.1933 -0.1266
18545TIP3    H177050   0.441   3.716  12.046 -0.1330  1.7860 -0.4589
18545TIP3    H277051   0.374   3.673  12.175  0.0036 -0.5574 -1.1361
18546TIP3   OH277052   2.881   3.634  12.241 -0.2622 -0.3947 -0.3745
18546TIP3    H177053   2.828   3.583  12.301 -0.4671  1.6635  1.3158
18546TIP3    H277054   2.971   3.620  12.271 -0.4403  1.4664  1.1946
18547TIP3   OH277055   3.025   0.917  16.134  0.6945  0.5394 -0.0237
18547TIP3    H177056   2.961   0.877  16.192  2.0395 -1.2948  0.2730
18547TIP3    H277057   3.034   1.007  16.166  1.3507 -0.3888  2.6048
18548TIP3   OH277058   1.009   3.235  15.231  0.1854 -0.2703 -0.1888
18548TIP3    H177059   1.007   3.180  15.309 -0.9973 -1.7003 -1.1733
18548TIP3    H277060   1.090   3.285  15.239 -0.0956 -0.0701  2.1343
18549TIP3   OH277061   6.026   0.513  14.712 -0.1288  0.1031  0.0355
18549TIP3    H177062   6.040   0.509  14.807  2.8869  0.2237 -0.3107
18549TIP3    H277063   6.001   0.604  14.696  0.1339  0.2821  0.6224
18550TIP3   OH277064   2.235   1.753  11.867  0.0139  0.6063  0.2255
18550TIP3    H177065   2.145   1.784  11.875  0.0096  0.5830  0.2682
18550TIP3    H277066   2.238   1.710  11.782 -0.0011  0.6552  0.2007
18551TIP3   OH277067   1.703   4.525  13.990  0.6361  0.2944  0.1916
18551TIP3    H177068   1.613   4.535  14.021  0.7238  1.8934  0.0244
18551TIP3    H277069   1.697   4.528  13.895  0.8180 -0.1397  0.1637
18552TIP3   OH277070   1.388   5.301  12.290 -0.1190  0.4209  0.0917
18552TIP3    H177071   1.296   5.296  12.317 -0.1526  1.7212  0.2615
18552TIP3    H277072   1.422   5.379  12.334  0.8766  0.3549 -0.5285
18553TIP3   OH277073   1.124   3.616  14.545 -0.0996  0.2800 -0.3532
18553TIP3    H177074   1.062   3.649  14.610  0.9556  1.2760  0.1825
18553TIP3    H277075   1.146   3.528  14.576  1.3328  1.1784  1.3994
18554TIP3   OH277076   0.837   5.374   1.877 -0.6206 -0.0413 -0.7134
18554TIP3    H177077   0.754   5.402   1.838 -0.7378 -0.1493 -0.5465
18554TIP3    H277078   0.826   5.279   1.889 -2.2806  0.4617  3.4345
18555TIP3   OH277079   2.372   4.294   1.846 -0.1993  0.6638 -0.1036
18555TIP3    H177080   2.348   4.305   1.754 -2.0452  2.0861  0.4935
18555TIP3    H277081   2.295   4.252   1.885  0.2050  0.9253  0.9826
18556TIP3   OH277082   1.584   0.127  16.741 -0.0799 -0.2001 -0.6369
18556TIP3    H177083   1.562   0.093  16.654 -0.1502  0.4966 -0.8967
18556TIP3    H277084   1.521   0.084  16.800 -0.7843  0.1902 -1.0884
18557TIP3   OH277085   6.768   1.340  11.921 -0.4889 -0.4059  0.6915
18557TIP3    H177086   6.817   1.412  11.961  2.2873 -1.5910 -0.3070
18557TIP3    H277087   6.756   1.277  11.992  0.5425 -0.6037  0.7124
18558TIP3   OH277088   2.585   0.612   3.765 -0.0190 -0.4829 -0.2493
18558TIP3    H177089   2.518   0.663   3.719 -1.7053 -2.6131 -0.3426
18558TIP3    H277090   2.627   0.561   3.696  0.0323 -0.9261  0.1044
18559TIP3   OH277091   5.912   2.491  15.141 -0.1983  0.4038 -0.3801
18559TIP3    H177092   5.866   2.427  15.086 -0.1719 -0.6708  0.8192
18559TIP3    H277093   5.872   2.575  15.117  0.5227  0.1587 -2.7892
18560TIP3   OH277094   2.361   2.646  11.865 -0.2884 -0.4264 -0.1645
18560TIP3    H177095   2.349   2.651  11.960  0.0123  2.0115 -0.1951
18560TIP3    H277096   2.272   2.656  11.829 -0.1410  1.2645 -0.1379
18561TIP3   OH277097   1.506   5.346   2.404 -0.2231 -0.1937 -0.0816
18561TIP3    H177098   1.592   5.331   2.365  0.0126 -0.6070  0.5856
18561TIP3    H277099   1.473   5.424   2.359  0.6047  0.1274 -0.1553
18562TIP3   OH277100   5.256   4.143   0.809 -0.1624 -0.7375 -0.3747
18562TIP3    H177101   5.203   4.187   0.876  0.0773 -1.3530  0.2335
18562TIP3    H277102   5.260   4.052   0.838 -0.1631 -1.0431 -1.3061
18563TIP3   OH277103   6.436   1.127   4.159  0.0735  0.3722  0.3230
18563TIP3    H177104   6.349   1.119   4.197 -0.8132  1.3639 -1.3719
18563TIP3    H277105   6.474   1.040   4.167 -0.8046  0.0881  1.6804
18564TIP3   OH277106   2.007   5.299  11.967  0.2628 -0.6918  0.0165
18564TIP3    H177107   2.038   5.288  12.057 -0.4390 -3.3583  0.0253
18564TIP3    H277108   2.083   5.329  11.918  1.0270 -0.5703  1.2415
18565TIP3   OH277109   2.590   2.745   0.690  0.3543 -0.4577 -0.5495
18565TIP3    H177110   2.648   2.719   0.762  1.4394 -1.9888 -1.9109
18565TIP3    H277111   2.609   2.838   0.677 -0.6373  0.1452  1.7763
18566TIP3   OH277112   2.754   2.806  14.541  0.1322  0.0443  0.2301
18566TIP3    H177113   2.731   2.750  14.615 -1.6246  0.3796 -0.0082
18566TIP3    H277114   2.786   2.745  14.474  1.6374 -0.2702  1.1939
18567TIP3   OH277115   1.181   6.247  14.736  0.1190 -0.3395 -0.0026
18567TIP3    H177116   1.148   6.244  14.826  0.6092 -1.1984  0.1543
18567TIP3    H277117   1.148   6.167  14.696  1.9016 -1.1809  0.1240
18568TIP3   OH277118   2.545   0.579   5.943 -0.1328 -0.9287  0.4656
18568TIP3    H177119   2.598   0.506   5.975 -0.9961 -2.0357 -0.5554
18568TIP3    H277120   2.456   0.560   5.975 -0.6248 -1.0448 -0.8844
18569TIP3   OH277121   0.612   1.457   0.927  0.3059 -0.1728 -0.1622
18569TIP3    H177122   0.517   1.468   0.923  0.1918 -0.4569  1.3021
18569TIP3    H277123   0.629   1.377   0.879 -0.4668 -1.3301  1.4050
18570TIP3   OH277124   3.487   0.347  15.271  0.4541 -0.2212 -0.2426
18570TIP3    H177125   3.494   0.394  15.188 -0.8436  0.4411 -0.0050
18570TIP3    H277126   3.575   0.353  15.309  0.4213  1.7887 -0.3598
18571TIP3   OH277127   3.564   1.750  11.373  0.1702  0.4015 -0.0195
18571TIP3    H177128   3.520   1.665  11.366 -1.3759  1.1649  0.0611
18571TIP3    H277129   3.534   1.799  11.297  2.8256  0.1452 -1.3286
18572TIP3   OH277130   2.508   5.548  14.222  0.5697  0.0374  0.3664
18572TIP3    H177131   2.421   5.512  14.207  0.0328  1.2870  0.3525
18572TIP3    H277132   2.504   5.637  14.186  1.7754  0.1957  0.5727
18573TIP3   OH277133   1.441   5.782   5.959  0.2159  0.2447  0.4182
18573TIP3    H177134   1.533   5.758   5.954  0.4834  1.3305 -0.2889
18573TIP3    H277135   1.397   5.703   5.989  1.3222 -0.4163  0.3476
18574TIP3   OH277136   3.754   2.714   1.500  0.3617  0.4422 -0.4429
18574TIP3    H177137   3.817   2.675   1.440  0.3021  0.8161 -0.7481
18574TIP3    H277138   3.773   2.673   1.585 -0.9772 -1.7539 -1.1230
18575TIP3   OH277139   5.046   3.805   3.096 -0.2669  0.2155 -0.5237
18575TIP3    H177140   5.121   3.808   3.036 -0.0930  0.7986 -0.2890
18575TIP3    H277141   5.026   3.712   3.105  1.6855 -0.1290  0.9421
18576TIP3   OH277142   4.815   2.228   3.555 -0.0199 -0.4749 -0.1494
18576TIP3    H177143   4.838   2.281   3.631  1.8678  0.6888 -1.4577
18576TIP3    H277144   4.719   2.229   3.554 -0.0679  0.8247  1.2952
18577TIP3   OH277145   1.719   5.441  15.714  0.5680  0.3506 -0.0256
18577TIP3    H177146   1.673   5.367  15.754 -0.4162  1.7767  1.6388
18577TIP3    H277147   1.806   5.440  15.755 -0.0990  1.2161  1.4631
18578TIP3   OH277148   4.866   1.793  12.962 -0.2560 -0.2766 -0.1977
18578TIP3    H177149   4.788   1.777  13.015 -0.3784  2.7367  0.7777
18578TIP3    H277150   4.838   1.859  12.898  1.1328 -0.2122 -0.7684
18579TIP3   OH277151   3.718   3.465  13.140 -0.6044 -0.4443  0.2503
18579TIP3    H177152   3.788   3.526  13.163  0.9964 -0.5952 -3.5852
18579TIP3    H277153   3.644   3.493  13.193  0.8083  3.1884  0.5745
18580TIP3   OH277154   2.860   6.399   1.128 -0.7253 -0.4593  0.2333
18580TIP3    H177155   2.955   6.392   1.121 -0.5155 -0.2092  2.2046
18580TIP3    H277156   2.832   6.316   1.167 -0.9326  0.5537  2.3691
18581TIP3   OH277157   2.908   2.871  16.652 -0.1855  0.0735 -0.0290
18581TIP3    H177158   2.845   2.878  16.723 -0.2252  0.4383 -0.1018
18581TIP3    H277159   2.912   2.959  16.614 -2.2353 -0.6633 -2.2397
18582TIP3   OH277160   1.877   0.834   4.977  0.3765 -0.3251  0.3530
18582TIP3    H177161   1.818   0.813   5.050  2.2739  0.4710  2.2438
18582TIP3    H277162   1.922   0.752   4.959  0.2193 -0.4203  0.3895
18583TIP3   OH277163   3.883   3.437  12.778 -0.2814  0.3127  0.0925
18583TIP3    H177164   3.958   3.378  12.767 -1.0574 -0.7751  0.4479
18583TIP3    H277165   3.922   3.524  12.788  1.0284 -0.4137  1.7777
18584TIP3   OH277166   1.631   5.707   4.567  0.4280 -0.2243  0.1925
18584TIP3    H177167   1.617   5.614   4.545 -1.3463 -0.1135  0.6748
18584TIP3    H277168   1.589   5.718   4.652  0.1774  1.1389 -0.0848
18585TIP3   OH277169   6.499   2.522   0.254  0.2559  0.6499  0.0764
18585TIP3    H177170   6.516   2.428   0.259  1.2023  0.7763 -0.4758
18585TIP3    H277171   6.425   2.536   0.313  1.0663 -0.2169  1.3779
18586TIP3   OH277172   3.291   0.600  12.324  0.3927 -0.0197  0.1199
18586TIP3    H177173   3.356   0.568  12.386  0.0502  1.6132  1.4049
18586TIP3    H277174   3.338   0.606  12.241  1.4790 -0.2257  0.6954
18587TIP3   OH277175   5.745   0.229   4.443 -0.7190 -0.3058 -0.4115
18587TIP3    H177176   5.751   0.212   4.349  2.6347  0.8728 -0.5551
18587TIP3    H277177   5.742   0.325   4.450 -1.5979 -0.3955  0.6865
18588TIP3   OH277178   2.509   3.010   2.731  0.3415 -0.1381  0.5017
18588TIP3    H177179   2.545   2.923   2.713  1.1027  0.3630 -0.5427
18588TIP3    H277180   2.487   3.044   2.644 -2.8723 -0.4619  1.0599
18589TIP3   OH277181   0.471   0.792  16.832 -0.2006 -0.0476 -0.2573
18589TIP3    H177182   0.472   0.722  16.767  0.0190  0.4726 -0.8246
18589TIP3    H277183   0.526   0.760  16.903 -2.7102 -1.8393  1.0012
18590TIP3   OH277184   4.270   0.271   0.716 -0.3936 -0.6058 -0.1178
18590TIP3    H177185   4.207   0.343   0.719 -2.1081 -2.0843  0.8033
18590TIP3    H277186   4.333   0.292   0.785  1.1842  1.6865 -2.0507
18591TIP3   OH277187   2.462   2.016   1.011 -0.1577 -0.0260  0.2078
18591TIP3    H177188   2.398   1.952   1.041  0.9367 -0.4053  1.8953
18591TIP3    H277189   2.449   2.091   1.070 -1.9617  1.7439 -2.2197
18592TIP3   OH277190   4.958   3.798  15.037  0.1855 -0.4540  0.2322
18592TIP3    H177191   5.041   3.842  15.051 -0.1795  0.5111 -0.5156
18592TIP3    H277192   4.970   3.751  14.954 -0.9609  2.1988 -1.5729
18593TIP3   OH277193   0.544   6.637   3.510  0.4104  0.0205  0.1909
18593TIP3    H177194   0.486   6.642   3.586  0.5043 -1.0460  0.3578
18593TIP3    H277195   0.632   6.651   3.545  0.2482  2.1620 -0.1401
18594TIP3   OH277196   3.517   2.655   3.288 -0.0216 -1.0584  0.2293
18594TIP3    H177197   3.564   2.583   3.328 -0.9067 -0.9611  1.5127
18594TIP3    H277198   3.584   2.722   3.274  0.0375 -0.1301  3.8556
18595TIP3   OH277199   3.860   0.412  14.970  0.3066  0.2046  0.3983
18595TIP3    H177200   3.834   0.453  15.053 -0.1921  0.4090  0.1417
18595TIP3    H277201   3.835   0.320  14.981 -2.4706  0.7745 -0.6231
18596TIP3   OH277202   1.644   4.654  15.315  0.2893 -0.6610  0.2581
18596TIP3    H177203   1.667   4.738  15.275 -2.2235 -0.1227 -0.2700
18596TIP3    H277204   1.709   4.641  15.384  1.8233  0.8014 -0.8223
18597TIP3   OH277205   3.778   3.500  12.313 -0.2297 -0.2090 -0.1055
18597TIP3    H177206   3.690   3.532  12.294 -0.4567  0.1641  1.4789
18597TIP3    H277207   3.826   3.577  12.341  0.8825 -0.2484 -1.7326
18598TIP3   OH277208   4.358   0.540  14.946  0.3840 -0.2462 -0.0865
18598TIP3    H177209   4.364   0.521  14.852 -0.8832 -1.3519  0.0198
18598TIP3    H277210   4.269   0.514  14.970  1.1254 -1.3511  1.7068
18599TIP3   OH277211   1.151   1.305   3.366  0.3035 -0.4523 -0.1321
18599TIP3    H177212   1.084   1.311   3.297  0.2163 -1.5855 -0.1700
18599TIP3    H277213   1.233   1.327   3.322 -0.0177  0.8882 -0.0993
18600TIP3   OH277214   4.371   3.642  12.669  0.3142 -0.1433  0.3809
18600TIP3    H177215   4.400   3.733  12.659 -0.3287  0.0968  0.6134
18600TIP3    H277216   4.451   3.593  12.686  0.9735  0.0382 -1.7928
18601TIP3   OH277217   6.579   2.645   1.464 -0.4053 -0.7625  0.8804
18601TIP3    H177218   6.648   2.704   1.493 -0.5600 -0.8134  1.3648
18601TIP3    H277219   6.612   2.557   1.485 -1.2323 -0.7261  2.5175
18602TIP3   OH277220   0.826   6.314  16.594 -0.1604 -0.0094 -0.3913
18602TIP3    H177221   0.865   6.398  16.569 -1.1857  0.3048 -1.0083
18602TIP3    H277222   0.742   6.337  16.633  0.0052 -0.7050  0.4080
18603TIP3   OH277223   0.098   2.487  11.405 -0.6976  0.3349 -0.7354
18603TIP3    H177224   0.153   2.409  11.403  0.1022  0.8928 -1.7114
18603TIP3    H277225   0.101   2.517  11.496  0.7014  0.3902 -0.7773
18604TIP3   OH277226   1.849   6.059  14.515 -0.0479 -0.6207  0.1324
18604TIP3    H177227   1.801   6.046  14.597  0.9706 -1.1392  0.6622
18604TIP3    H277228   1.852   6.153  14.503  1.1288 -0.4552  1.5124
18605TIP3   OH277229   0.858   3.642  14.190  0.1042  0.3300  0.3292
18605TIP3    H177230   0.921   3.618  14.121  1.2394 -1.5525  1.9299
18605TIP3    H277231   0.773   3.615  14.155  0.4373  0.8232 -0.9275
18606TIP3   OH277232   4.905   0.745  10.248 -0.1568 -0.0147 -0.3277
18606TIP3    H177233   4.933   0.744  10.340  0.5891 -4.1038 -0.4007
18606TIP3    H277234   4.809   0.734  10.253 -0.1080 -0.3447  0.0053
18607TIP3   OH277235   2.389   4.910   4.132 -0.6629  0.2230  1.5184
18607TIP3    H177236   2.334   4.965   4.076 -0.2506  0.2259  1.1091
18607TIP3    H277237   2.442   4.973   4.183 -0.7015  0.2148  1.5685
18608TIP3   OH277238   2.504   1.213   6.206 -0.3122  0.3749 -0.4712
18608TIP3    H177239   2.423   1.172   6.238  0.2132 -0.5494 -0.2799
18608TIP3    H277240   2.545   1.249   6.285  0.5275 -1.0923 -0.2002
18609TIP3   OH277241   0.259   6.023   2.643  0.0590 -0.0198  0.3457
18609TIP3    H177242   0.274   6.085   2.714  0.4680  0.9690 -0.5816
18609TIP3    H277243   0.262   6.076   2.563 -0.2299 -1.1281 -0.4269
18610TIP3   OH277244   3.046   2.062   3.807 -0.5390  0.1197  0.3571
18610TIP3    H177245   3.019   2.083   3.717 -0.8781 -0.4066  0.3300
18610TIP3    H277246   3.136   2.095   3.813 -0.3321 -0.2826 -0.3394
18611TIP3   OH277247   0.235   2.397   4.939  0.3106  0.6331 -0.9287
18611TIP3    H177248   0.190   2.314   4.926  0.8913 -0.1361  1.4424
18611TIP3    H277249   0.165   2.461   4.951 -0.1549  0.0825 -0.6762
18612TIP3   OH277250   4.449   2.999  11.755  0.4874  0.2916  0.0158
18612TIP3    H177251   4.414   2.938  11.820  1.7753 -0.2447  0.2418
18612TIP3    H277252   4.442   3.085  11.797  0.9870 -0.0121  0.7485
18613TIP3   OH277253   5.787   0.165   1.509  0.1543 -0.2514  0.0470
18613TIP3    H177254   5.755   0.172   1.419  0.3749  0.4214  0.0194
18613TIP3    H277255   5.738   0.230   1.558  1.5075  0.8646 -0.0133
18614TIP3   OH277256   2.942   4.510   1.167  0.4056 -0.2666  0.1283
18614TIP3    H177257   2.980   4.474   1.086  0.3536 -1.6946  0.7038
18614TIP3    H277258   3.008   4.572   1.199 -0.9818  3.0402 -2.7369
18615TIP3   OH277259   1.803   1.684  16.417 -0.0675  0.2168 -0.2121
18615TIP3    H177260   1.806   1.766  16.466  0.4223  0.3800 -0.5067
18615TIP3    H277261   1.746   1.703  16.342 -1.1350 -0.1459  0.4727
18616TIP3   OH277262   5.184   1.470   0.698 -0.3851 -0.1756 -0.5953
18616TIP3    H177263   5.135   1.406   0.647 -1.4299 -0.0022  0.1751
18616TIP3    H277264   5.274   1.461   0.666 -1.0352  0.0993 -2.6228
18617TIP3   OH277265   0.720   3.504   1.292 -0.1956 -0.2542  0.1246
18617TIP3    H177266   0.650   3.567   1.278 -0.2019 -0.2135  0.3338
18617TIP3    H277267   0.728   3.457   1.209 -1.3034 -1.0939  0.4634
18618TIP3   OH277268   1.945   0.716  12.490  0.6965  0.8594 -0.1621
18618TIP3    H177269   1.929   0.719  12.396  2.0854 -0.4490 -0.4853
18618TIP3    H277270   2.041   0.713  12.498  0.7069  2.8405  1.3876
18619TIP3   OH277271   3.556   4.499   1.324  0.0649 -0.7331 -0.4130
18619TIP3    H177272   3.543   4.444   1.401 -1.0286  2.0230  1.5282
18619TIP3    H277273   3.649   4.489   1.302 -0.2878 -4.0559 -0.8674
18620TIP3   OH277274   2.768   2.783  16.015 -0.6610 -0.0030 -0.1283
18620TIP3    H177275   2.726   2.850  15.961 -0.4236  0.0587 -0.2404
18620TIP3    H277276   2.784   2.711  15.954 -0.7485 -0.0874 -0.0499
18621TIP3   OH277277   2.110   4.590   0.642  0.2807  0.2001  0.6803
18621TIP3    H177278   2.018   4.564   0.640  0.2218  0.4536 -0.6495
18621TIP3    H277279   2.149   4.544   0.568  1.4176 -0.5496  1.7207
18622TIP3   OH277280   2.711   2.265   0.452  0.4443 -0.4016  0.0821
18622TIP3    H177281   2.645   2.275   0.384 -0.5318  1.3560  1.2226
18622TIP3    H277282   2.795   2.266   0.405 -0.1656  1.6560 -1.0607
18623TIP3   OH277283   0.860   0.371   6.400 -0.3724 -0.3348  0.1201
18623TIP3    H177284   0.888   0.411   6.318  0.7115  0.4327  0.8437
18623TIP3    H277285   0.907   0.420   6.468 -1.0552 -1.1208  1.1831
18624TIP3   OH277286   4.753   5.106  11.535  0.3443  0.4759  0.1354
18624TIP3    H177287   4.677   5.066  11.577  2.8772 -3.9207  1.2126
18624TIP3    H277288   4.757   5.066  11.448  1.2483  0.8172  0.0053
18625TIP3   OH277289   2.387   1.607  16.854 -0.5905  0.4739 -0.3215
18625TIP3    H177290   2.405   1.697  16.880  0.5537 -0.0312  0.7102
18625TIP3    H277291   2.465   1.580  16.806 -0.4267 -0.3263  0.3741
18626TIP3   OH277292   0.039   3.167  15.116  0.2753  0.8415  0.4601
18626TIP3    H177293   0.002   3.158  15.203  0.1170  1.1631  0.4278
18626TIP3    H277294  -0.034   3.195  15.061  0.2054 -0.0800  0.0694
18627TIP3   OH277295   1.131   6.460   5.514  0.6263  0.4089 -0.3221
18627TIP3    H177296   1.090   6.537   5.553  1.3636  0.4290  0.4423
18627TIP3    H277297   1.216   6.491   5.483  1.2264 -0.2362  0.6209
18628TIP3   OH277298   4.732   3.702  11.587 -0.8798  0.0931  0.0803
18628TIP3    H177299   4.671   3.761  11.544 -0.1459  1.1246  0.4017
18628TIP3    H277300   4.698   3.615  11.570 -0.4256  0.3914 -2.9335
18629TIP3   OH277301   4.083   5.945  16.581 -0.6890  0.1287  0.3300
18629TIP3    H177302   4.005   5.964  16.634 -0.8204 -0.7088  0.4654
18629TIP3    H277303   4.094   6.022  16.525 -0.5071  1.0635  1.6193
18630TIP3   OH277304   4.684   6.531   5.030  0.0819 -0.1156 -0.1208
18630TIP3    H177305   4.698   6.446   5.072  1.0797 -0.5830 -1.3276
18630TIP3    H277306   4.617   6.574   5.084 -0.5573 -1.7206  0.4356
18631TIP3   OH277307   3.479   6.155   1.063  0.9756  0.4151  0.1697
18631TIP3    H177308   3.511   6.092   1.127 -1.7475  1.4592  2.8128
18631TIP3    H277309   3.520   6.238   1.089  1.7668  0.4407 -1.0653
18632TIP3   OH277310   4.372   0.976  14.039 -0.0551  0.3684 -0.5887
18632TIP3    H177311   4.431   0.997  14.111 -0.5076 -0.3722  0.0217
18632TIP3    H277312   4.291   1.022  14.060 -0.2427  0.0174 -0.5381
18633TIP3   OH277313   6.356   2.223   2.438 -0.6871 -0.0138  0.1468
18633TIP3    H177314   6.365   2.250   2.347 -0.5487 -0.4774  0.0177
18633TIP3    H277315   6.265   2.239   2.460 -0.6957  0.1956 -0.0394
18634TIP3   OH277316   0.495   6.323  12.831  0.3388 -0.0471  0.4179
18634TIP3    H177317   0.406   6.288  12.824  0.8064 -1.3470  0.7518
18634TIP3    H277318   0.497   6.394  12.766 -0.2785 -1.4405 -1.2159
18635TIP3   OH277319   2.136   5.776   2.563  0.3700 -0.1128 -0.2516
18635TIP3    H177320   2.090   5.858   2.549 -2.6892 -1.4625  1.0214
18635TIP3    H277321   2.163   5.779   2.656 -1.2397 -1.1564  0.2851
18636TIP3   OH277322   5.067   2.698   2.894  0.6932 -0.3509 -0.1475
18636TIP3    H177323   5.087   2.744   2.812 -1.6401  3.1446  1.0198
18636TIP3    H277324   5.116   2.746   2.961 -0.3692 -0.7091  0.9212
18637TIP3   OH277325   2.237   0.431   4.833  0.5741  0.2401  0.3478
18637TIP3    H177326   2.317   0.482   4.820 -0.5051  2.0066  0.3243
18637TIP3    H277327   2.177   0.460   4.764 -0.3923 -0.4144  0.8764
18638TIP3   OH277328   4.300   5.789   2.055  0.1233 -0.0218  0.2184
18638TIP3    H177329   4.341   5.711   2.090  0.9909  0.3053 -0.0362
18638TIP3    H277330   4.214   5.760   2.023 -0.2717 -0.5118  1.6824
18639TIP3   OH277331   6.277   0.746   2.784 -0.6611 -0.3486 -0.1177
18639TIP3    H177332   6.214   0.726   2.715  1.0807 -1.1539 -1.5406
18639TIP3    H277333   6.223   0.759   2.862 -2.7201  0.8679 -1.6465
18640TIP3   OH277334   0.731   6.773   2.246 -0.2170  0.4058  0.0304
18640TIP3    H177335   0.709   6.847   2.189  1.9422  0.7693 -0.4089
18640TIP3    H277336   0.823   6.787   2.270 -0.3274 -1.0994  1.5630
18641TIP3   OH277337   3.044   1.863   0.079 -0.2547 -0.3664 -0.1672
18641TIP3    H177338   3.012   1.826   0.160 -1.6438  1.3123  0.1210
18641TIP3    H277339   3.120   1.915   0.104 -0.5859  0.0176  0.0672
18642TIP3   OH277340   4.090   1.318  16.421  0.6151 -0.4132 -0.4699
18642TIP3    H177341   4.006   1.363  16.417  1.0944  0.4760 -0.8982
18642TIP3    H277342   4.080   1.254  16.491 -0.3590 -0.2080 -0.4104
18643TIP3   OH277343   6.002   0.519  15.499 -0.6474  0.4348  0.4342
18643TIP3    H177344   5.926   0.466  15.476 -0.5764  0.8828 -0.9514
18643TIP3    H277345   6.074   0.482  15.447  0.0546  0.1014  1.6181
18644TIP3   OH277346   1.534   4.059   2.767  0.3876  0.1206 -0.7290
18644TIP3    H177347   1.590   4.044   2.843 -0.2124 -3.5502 -0.8369
18644TIP3    H277348   1.588   4.031   2.692 -0.2090  0.4581 -1.2958
18645TIP3   OH277349   2.923   1.033  14.292  0.3123 -0.3438  0.2230
18645TIP3    H177350   2.963   1.095  14.231 -0.2935 -0.1357  0.0356
18645TIP3    H277351   2.973   0.952  14.279  1.6809  0.3171  1.0819
18646TIP3   OH277352   3.216   6.222  12.752 -0.2233  0.3950 -0.0801
18646TIP3    H177353   3.262   6.144  12.784 -0.8223  0.2650  0.4765
18646TIP3    H277354   3.124   6.203  12.768 -0.3316  1.5110  0.7222
18647TIP3   OH277355   1.862   3.181  14.122 -0.1944  0.5686  0.6722
18647TIP3    H177356   1.840   3.135  14.041  1.5488  1.7128 -0.5318
18647TIP3    H277357   1.956   3.193  14.118 -0.3618  2.8169  1.6722
18648TIP3   OH277358   4.676   0.534   3.204 -0.7465 -0.0779 -0.4362
18648TIP3    H177359   4.597   0.498   3.163 -1.2361  2.2577 -1.7470
18648TIP3    H277360   4.661   0.628   3.205  1.4127  0.3071  0.6814
18649TIP3   OH277361   1.881   6.253  16.982 -0.0975 -0.4433 -0.2171
18649TIP3    H177362   1.933   6.263  17.062 -2.0432 -1.7859  1.3278
18649TIP3    H277363   1.908   6.169  16.946 -1.0233 -1.0841  0.5203
18650TIP3   OH277364   1.095   2.193  15.161 -0.2189 -0.0549  0.3836
18650TIP3    H177365   1.128   2.179  15.072  1.3484 -0.6382  1.0311
18650TIP3    H277366   1.019   2.250  15.149  0.4785  0.5972 -1.2503
18651TIP3   OH277367   0.012   3.181   0.152 -0.2747 -0.2721 -0.3888
18651TIP3    H177368   0.018   3.258   0.209 -2.5883 -0.5460  0.3040
18651TIP3    H277369  -0.012   3.217   0.066 -2.1572 -0.2287  0.1216
18652TIP3   OH277370   0.900   6.571   1.725  0.5444  0.2360 -0.3740
18652TIP3    H177371   0.978   6.521   1.747  0.5325  0.3613 -0.0476
18652TIP3    H277372   0.919   6.608   1.639  1.1959  0.9813  0.0834
18653TIP3   OH277373   6.704   1.393   1.880 -0.3029  0.0888 -0.7315
18653TIP3    H177374   6.755   1.322   1.840  0.2280  0.5078 -0.8202
18653TIP3    H277375   6.695   1.458   1.811 -0.1838  0.4106 -0.4496
18654TIP3   OH277376   0.229   5.741  11.826  0.2379  0.8906  0.4288
18654TIP3    H177377   0.287   5.790  11.768  2.2089 -0.7110  0.9305
18654TIP3    H277378   0.251   5.649  11.810 -1.9700  0.2078  0.9076
18655TIP3   OH277379   1.786   2.236  15.913 -0.1207 -0.0467  0.0456
18655TIP3    H177380   1.794   2.266  15.822 -0.8493  2.4991  0.7404
18655TIP3    H277381   1.875   2.212  15.938  0.1142 -0.6814 -1.2798
18656TIP3   OH277382   0.957   5.551   3.225  0.0823  0.1983  0.5846
18656TIP3    H177383   0.976   5.562   3.319 -2.3038  1.0224  1.0379
18656TIP3    H277384   0.993   5.630   3.184  2.3861 -0.8089  0.5336
18657TIP3   OH277385   4.171   0.778  16.100 -0.0409  0.1804  0.0537
18657TIP3    H177386   4.088   0.736  16.123  0.6978 -2.0252 -1.0499
18657TIP3    H277387   4.237   0.731  16.150  0.6864  1.1268  0.0189
18658TIP3   OH277388   5.054   6.525  12.628  0.2863 -0.7331 -0.2726
18658TIP3    H177389   5.130   6.498  12.679  1.7039 -0.7265 -2.2896
18658TIP3    H277390   5.033   6.613  12.659  1.1931 -0.6816  0.2014
18659TIP3   OH277391   2.256   0.767   3.247 -0.1838  0.3346  0.4071
18659TIP3    H177392   2.293   0.759   3.335 -0.4169  0.8621  0.5577
18659TIP3    H277393   2.212   0.684   3.231 -0.2428  0.2844  0.8374
18660TIP3   OH277394   1.817   6.125   0.641 -0.0773 -0.4871 -0.0212
18660TIP3    H177395   1.908   6.097   0.649 -0.2907 -1.0276  0.6413
18660TIP3    H277396   1.812   6.206   0.692  0.2432  0.0776 -0.8617
18661TIP3   OH277397   6.729   2.254   5.122 -0.0968 -0.1070  0.0337
18661TIP3    H177398   6.799   2.230   5.061  0.2045 -1.8530  1.0205
18661TIP3    H277399   6.774   2.280   5.202 -0.5430  0.8511 -0.0038
18662TIP3   OH277400   5.042   0.655  12.141 -0.3910 -0.0445 -0.3852
18662TIP3    H177401   5.124   0.695  12.112 -1.0808  1.9737  0.3171
18662TIP3    H277402   5.049   0.564  12.112  2.4469 -0.1674  0.3382
18663TIP3   OH277403   6.305   3.724  17.126  0.0278 -0.1662  0.5506
18663TIP3    H177404   6.352   3.757  17.203 -0.9323 -1.9800  1.9923
18663TIP3    H277405   6.362   3.657  17.090  0.0420 -0.0033  0.2693
18664TIP3   OH277406   5.547   0.051   5.988 -0.1271 -0.1734  0.3691
18664TIP3    H177407   5.549   0.117   6.058 -1.2390  1.5910 -1.1509
18664TIP3    H277408   5.468  -0.000   6.006  0.7277 -1.1208  1.5487
18665TIP3   OH277409   1.502   3.062   4.003 -0.0406  0.0917  0.8570
18665TIP3    H177410   1.442   2.994   3.972  0.3033  0.7312 -1.4305
18665TIP3    H277411   1.589   3.021   3.997 -0.0218  0.0185  1.6134
18666TIP3   OH277412   6.669   6.382  13.051  0.0632 -0.3340  0.4283
18666TIP3    H177413   6.691   6.289  13.051 -1.7460 -0.8161  1.7545
18666TIP3    H277414   6.580   6.386  13.016 -0.2771  0.7758  1.3634
18667TIP3   OH277415   2.134   4.484  15.107  0.5783  0.0201  0.1310
18667TIP3    H177416   2.133   4.538  15.186 -0.8581  2.6518 -1.5304
18667TIP3    H277417   2.041   4.467  15.088  0.8908 -0.5992 -0.9629
18668TIP3   OH277418   6.217   2.027  11.190 -0.9130  0.1603 -0.2036
18668TIP3    H177419   6.278   2.094  11.221  0.6781 -1.5509  0.6209
18668TIP3    H277420   6.272   1.963  11.145 -2.5691  0.1056 -2.3341
18669TIP3   OH277421   3.282   3.024   2.457  0.2653  0.5787  0.0643
18669TIP3    H177422   3.257   3.111   2.423  2.2362  0.9435 -0.5544
18669TIP3    H277423   3.375   3.031   2.476  0.7073 -1.7036 -0.9328
18670TIP3   OH277424   5.926   2.784   4.790 -0.4788 -0.0420  0.1664
18670TIP3    H177425   5.992   2.760   4.855 -0.6203 -2.1841 -0.4327
18670TIP3    H277426   5.842   2.772   4.835 -0.5527 -0.7783 -0.1563
18671TIP3   OH277427   1.185   0.277  11.245  0.0745  0.7399  0.0842
18671TIP3    H177428   1.095   0.275  11.211 -0.7630  0.9468  2.1494
18671TIP3    H277429   1.179   0.329  11.325  1.7825 -0.4258  1.0119
18672TIP3   OH277430   2.655   2.546  16.319 -0.0011  0.2551  0.1359
18672TIP3    H177431   2.672   2.453  16.333  0.8830 -0.0863 -2.6173
18672TIP3    H277432   2.725   2.591  16.365  0.2814 -0.4852  0.4440
18673TIP3   OH277433   3.723   6.171   0.263 -0.3121 -0.2442 -0.3285
18673TIP3    H177434   3.766   6.207   0.341 -1.1688  0.3372 -0.1025
18673TIP3    H277435   3.711   6.078   0.282 -1.2057  0.0371  0.5831
18674TIP3   OH277436   5.929   2.006   1.285 -0.3868 -0.4518  0.0361
18674TIP3    H177437   5.996   2.073   1.297 -0.0722 -0.6132 -0.7618
18674TIP3    H277438   5.889   1.996   1.371 -1.2276  1.5892 -0.0688
18675TIP3   OH277439   1.076   1.644  13.909 -0.2177 -0.0545 -0.5359
18675TIP3    H177440   1.107   1.716  13.964  1.9538 -1.1893 -0.1688
18675TIP3    H277441   1.005   1.682  13.858  1.4641  2.6395 -1.0829
18676TIP3   OH277442   6.255   1.497   3.288 -0.0753  0.3897  0.3739
18676TIP3    H177443   6.164   1.518   3.265 -0.0198  1.2810  0.9023
18676TIP3    H277444   6.301   1.580   3.280  0.8614 -0.2029 -0.5842
18677TIP3   OH277445   6.068   2.641   3.223 -0.5881  0.2802 -0.1005
18677TIP3    H177446   6.000   2.574   3.214  0.6275 -0.9313 -0.6267
18677TIP3    H277447   6.094   2.636   3.315 -0.1376 -0.3558 -0.2570
18678TIP3   OH277448   5.840   2.403  14.285 -0.1679  0.5999 -0.0791
18678TIP3    H177449   5.745   2.412  14.276 -0.1585  0.6282 -0.1483
18678TIP3    H277450   5.876   2.457  14.215 -0.1129 -0.1729 -0.6601
18679TIP3   OH277451   0.334   2.776  11.597  0.4110  0.3129  0.3847
18679TIP3    H177452   0.340   2.844  11.665 -0.7119  0.7669  0.0550
18679TIP3    H277453   0.350   2.694  11.644  1.8379  0.7933  0.7787
18680TIP3   OH277454   2.988   5.061  15.335 -0.3806  0.0531 -0.2764
18680TIP3    H177455   2.937   5.000  15.388 -1.7358  0.6418 -0.8678
18680TIP3    H277456   3.057   5.092  15.395 -0.8488 -0.5747  0.6105
18681TIP3   OH277457   5.670   3.132  11.559  0.0720  0.9116 -0.1510
18681TIP3    H177458   5.700   3.052  11.515 -0.3528  0.6829 -0.0313
18681TIP3    H277459   5.747   3.190  11.559  0.6582  0.1679  0.5605
18682TIP3   OH277460   6.107   2.854   0.472  0.2947 -0.0617 -0.1923
18682TIP3    H177461   6.199   2.857   0.499  0.8587 -1.0879 -1.8568
18682TIP3    H277462   6.072   2.775   0.515  0.5615 -0.4006 -0.5866
18683TIP3   OH277463   4.337   5.100   6.898 -0.4667  0.2728 -0.1875
18683TIP3    H177464   4.359   5.026   6.956 -0.8107  0.4270  0.1426
18683TIP3    H277465   4.343   5.063   6.810 -1.5739 -0.4074  0.0052
18684TIP3   OH277466   4.433   2.850  16.956 -0.1873 -0.4438 -0.9152
18684TIP3    H177467   4.391   2.935  16.970  0.7920 -0.1062  0.1270
18684TIP3    H277468   4.523   2.862  16.985 -0.2185 -2.0376 -0.0199
18685TIP3   OH277469   5.425   1.518   0.378 -0.4358 -0.3788  0.2546
18685TIP3    H177470   5.517   1.518   0.352 -0.8989 -0.8006 -1.4820
18685TIP3    H277471   5.423   1.467   0.459  0.6521 -1.7307 -0.5239
18686TIP3   OH277472   0.572   3.375  13.786 -0.4812 -0.3122 -0.4350
18686TIP3    H177473   0.552   3.434  13.714  0.8508  0.4143 -0.2336
18686TIP3    H277474   0.667   3.368  13.787 -0.5625 -1.7539  0.1263
18687TIP3   OH277475   0.807   2.665  17.078 -0.1521  0.4385  0.1673
18687TIP3    H177476   0.787   2.573  17.098  1.7195  0.1239  0.8527
18687TIP3    H277477   0.769   2.679  16.991  0.2429 -1.2683 -0.3408
18688TIP3   OH277478   0.302   0.775   3.079  0.0012  0.0172  0.3268
18688TIP3    H177479   0.396   0.762   3.091  0.1520  0.7436  0.0047
18688TIP3    H277480   0.293   0.869   3.060 -0.7346 -0.1348 -0.1135
18689TIP3   OH277481   4.768   0.161   3.541  0.1916 -0.3420 -0.3444
18689TIP3    H177482   4.807   0.182   3.626  0.8604 -0.4273 -0.6234
18689TIP3    H277483   4.731   0.244   3.511 -3.4303 -1.0006  1.6727
18690TIP3   OH277484   2.003   6.671   2.152 -0.5027  0.1415 -0.0328
18690TIP3    H177485   1.980   6.748   2.101  0.1216 -0.6242 -1.5299
18690TIP3    H277486   2.098   6.666   2.147 -0.5907 -1.3714 -1.0097
18691TIP3   OH277487   6.655   6.432  12.504  0.0078 -0.3951 -0.5351
18691TIP3    H177488   6.588   6.365  12.493 -0.8866  0.5444 -0.9531
18691TIP3    H277489   6.687   6.421  12.593  0.5752 -1.9865 -0.9051
18692TIP3   OH277490   2.457   5.565   1.647 -0.3400  0.8632 -0.3863
18692TIP3    H177491   2.530   5.546   1.706 -2.0637  0.4873  1.7550
18692TIP3    H277492   2.477   5.516   1.567  2.1729  1.5371 -0.2595
18693TIP3   OH277493   4.459   4.054   3.051 -0.7007 -0.3931  0.2649
18693TIP3    H177494   4.440   4.090   3.138  0.5761  0.1865  0.3288
18693TIP3    H277495   4.455   4.130   2.993  0.6736 -0.3562  0.1868
18694TIP3   OH277496   1.263   0.620   0.566  0.1868 -0.2531 -0.0529
18694TIP3    H177497   1.280   0.543   0.619  0.8218 -0.2339 -0.2231
18694TIP3    H277498   1.263   0.693   0.628  1.8059 -0.1162 -0.1728
18695TIP3   OH277499   5.821   5.741   3.938  0.1591 -0.0990  0.0569
18695TIP3    H177500   5.811   5.831   3.969  0.4919 -0.2449  0.5868
18695TIP3    H277501   5.874   5.749   3.858 -0.6150  0.2633 -0.4251
18696TIP3   OH277502   4.053   0.613  12.646  0.1444 -0.2292 -0.5050
18696TIP3    H177503   4.141   0.645  12.667  1.4374 -0.8827 -4.0876
18696TIP3    H277504   4.063   0.518  12.640 -1.2501 -0.4775  0.5293
18697TIP3   OH277505   6.235   5.353   2.692  0.0185 -0.0595 -0.0932
18697TIP3    H177506   6.170   5.367   2.623 -0.4904 -1.0807  0.1739
18697TIP3    H277507   6.317   5.384   2.654 -0.3162 -0.3306 -1.0526
18698TIP3   OH277508   5.657   1.933   2.162 -0.5161  0.2131 -0.2826
18698TIP3    H177509   5.637   1.908   2.072  0.4887  0.5175 -0.6034
18698TIP3    H277510   5.605   1.873   2.215  0.6230 -1.5369 -1.0482
18699TIP3   OH277511   0.235   5.649   3.114 -0.0240  0.1837 -0.2298
18699TIP3    H177512   0.282   5.667   3.196  0.0996  1.5516 -0.5709
18699TIP3    H277513   0.295   5.593   3.064  0.4002  0.3024  0.1423
18700TIP3   OH277514   6.442   0.475   5.379  0.0604  0.0847 -0.3879
18700TIP3    H177515   6.513   0.470   5.315  1.9952 -1.2230  1.7154
18700TIP3    H277516   6.402   0.389   5.378  2.5416 -1.2874  2.6090
18701TIP3   OH277517   2.475   3.215  16.350  0.2808  0.2297  1.2626
18701TIP3    H177518   2.452   3.197  16.259  1.2319 -0.0237  1.0608
18701TIP3    H277519   2.398   3.186  16.400  0.0630 -0.3675  0.6040
18702TIP3   OH277520   0.599   1.260   3.356  0.4821  0.5317  0.2425
18702TIP3    H177521   0.591   1.348   3.318 -2.2943  1.6190  2.9457
18702TIP3    H277522   0.564   1.202   3.289 -1.5338  2.0288 -0.0849
18703TIP3   OH277523   4.983   5.149   4.808 -0.2177  0.6575  0.0457
18703TIP3    H177524   5.051   5.212   4.831  0.0719 -0.1995  1.6800
18703TIP3    H277525   4.901   5.193   4.830 -0.1222  1.1204 -0.5011
18704TIP3   OH277526   1.393   4.413  12.612  0.1632 -0.2405  0.1287
18704TIP3    H177527   1.392   4.396  12.706 -2.2931 -0.9704  0.0327
18704TIP3    H277528   1.484   4.437  12.593  0.4944  1.0715  2.8564
18705TIP3   OH277529   5.384   3.219  14.165  0.0836  0.1405  0.3751
18705TIP3    H177530   5.348   3.130  14.174 -0.2656  0.2537  0.1228
18705TIP3    H277531   5.307   3.276  14.167  0.3603  0.4977  1.3209
18706TIP3   OH277532   0.615   3.403   3.420 -0.4016  0.4871 -0.2067
18706TIP3    H177533   0.638   3.310   3.423 -1.6565  0.0063 -2.6825
18706TIP3    H277534   0.698   3.449   3.432  0.0518 -0.8625  2.5332
18707TIP3   OH277535   6.521   6.202  16.610  0.4882  0.5995  0.0271
18707TIP3    H177536   6.588   6.134  16.610 -0.6028 -0.6425  2.7855
18707TIP3    H277537   6.441   6.157  16.583  0.3296  1.5813 -1.2181
18708TIP3   OH277538   3.531   3.434   3.572  0.2059 -0.1113  0.2650
18708TIP3    H177539   3.460   3.416   3.634 -0.7830  1.2318 -0.4273
18708TIP3    H277540   3.573   3.513   3.605  0.0217  0.3008 -0.4657
18709TIP3   OH277541   1.938   4.355   0.407  0.1074  0.4716 -0.5484
18709TIP3    H177542   1.897   4.422   0.461  1.0599  0.1483  0.6203
18709TIP3    H277543   2.030   4.381   0.401  0.2221 -0.0441 -1.1633
18710TIP3   OH277544   2.788   3.129   6.572 -0.2834  0.3036 -0.0674
18710TIP3    H177545   2.725   3.166   6.510 -0.9701  1.7808  1.4354
18710TIP3    H277546   2.801   3.198   6.637  1.9108 -0.4680  0.3922
18711TIP3   OH277547   1.957   0.415  12.976 -0.1587  0.5156 -0.7543
18711TIP3    H177548   2.036   0.361  12.981 -0.4996  0.0759 -0.0016
18711TIP3    H277549   1.968   0.480  13.045 -0.5785  0.2748 -0.4545
18712TIP3   OH277550   0.262   4.693  16.899 -0.3443  0.4595 -0.3368
18712TIP3    H177551   0.178   4.683  16.945  0.0797  1.4844  0.7270
18712TIP3    H277552   0.302   4.770  16.941  1.2459 -0.1898 -0.6318
18713TIP3   OH277553   1.375   3.048   3.580 -0.8736 -0.3399 -1.1408
18713TIP3    H177554   1.372   3.116   3.514 -0.8328 -1.0773 -1.9222
18713TIP3    H277555   1.405   3.092   3.659  1.5677  0.0768 -2.2284
18714TIP3   OH277556   2.914   5.832  11.123 -0.4024  0.7503 -0.3616
18714TIP3    H177557   2.930   5.757  11.066 -1.4504  0.6775 -0.5764
18714TIP3    H277558   2.821   5.827  11.144 -0.0743  0.8601  1.2429
18715TIP3   OH277559   5.755   2.129  14.313 -0.3521  0.2676  0.0272
18715TIP3    H177560   5.705   2.079  14.249  1.1442 -0.1626 -0.8657
18715TIP3    H277561   5.761   2.217  14.276 -2.4425  1.0222  1.2962
18716TIP3   OH277562   4.042   4.418  15.716  0.2086  0.5645 -0.1394
18716TIP3    H177563   4.126   4.389  15.751  0.6652  0.7529 -1.0334
18716TIP3    H277564   4.002   4.338  15.680 -0.7594  0.1600  1.7437
18717TIP3   OH277565   5.371   2.263  16.384  0.8103  0.4344 -0.4058
18717TIP3    H177566   5.398   2.253  16.293  0.7322 -1.3552 -0.2676
18717TIP3    H277567   5.279   2.291  16.379  0.8390  0.4489 -0.8725
18718TIP3   OH277568   1.472   4.216  15.421  0.3574 -0.2715 -0.5792
18718TIP3    H177569   1.452   4.285  15.484 -0.3350 -0.0857 -0.9901
18718TIP3    H277570   1.559   4.239  15.388 -0.2856  1.0067 -1.4679
18719TIP3   OH277571   4.043   6.388  12.684 -0.0373  0.0029 -0.3849
18719TIP3    H177572   3.963   6.341  12.659 -0.3713  0.8135 -0.9225
18719TIP3    H277573   4.111   6.350  12.629  0.1678 -1.3470  0.7431
18720TIP3   OH277574   1.501   5.564   2.598 -0.5980 -0.6569 -0.2582
18720TIP3    H177575   1.541   5.645   2.568 -2.1394  0.0388 -0.5494
18720TIP3    H277576   1.543   5.495   2.548  2.5130 -0.3760  1.7071
18721TIP3   OH277577   5.007   4.300   0.498 -0.0297  0.0618 -0.6195
18721TIP3    H177578   4.972   4.385   0.523  1.9963  1.2531 -1.5677
18721TIP3    H277579   5.039   4.312   0.409 -1.7434 -2.3960 -1.6785
18722TIP3   OH277580   0.513   2.471  14.044  0.1211  0.6967  0.2704
18722TIP3    H177581   0.592   2.431  14.007  0.2503 -1.7702  2.8712
18722TIP3    H277582   0.546   2.534  14.107 -0.0714  1.7042 -0.6028
18723TIP3   OH277583   3.573   2.975   2.553 -0.3423  0.6202  0.0428
18723TIP3    H177584   3.601   2.912   2.487 -0.4835 -0.3857  0.9210
18723TIP3    H277585   3.610   2.943   2.635 -1.0109  1.2844  0.6229
18724TIP3   OH277586   5.012   6.555  10.380 -0.2377  0.5304 -0.3840
18724TIP3    H177587   4.940   6.545  10.442 -0.3859  2.6639 -0.1468
18724TIP3    H277588   4.973   6.595  10.303  0.5574  1.1451 -0.4886
18725TIP3   OH277589   0.045   1.532   5.355  0.2815  0.2232 -0.2828
18725TIP3    H177590  -0.019   1.512   5.287 -0.4587  0.1667  0.4169
18725TIP3    H277591   0.055   1.450   5.404 -0.6853  0.7736  0.8861
18726TIP3   OH277592   1.186   5.598   3.683 -0.2915  0.6553 -0.0494
18726TIP3    H177593   1.229   5.680   3.708 -1.9000  1.1996  1.0757
18726TIP3    H277594   1.204   5.539   3.756 -1.7915  1.0336  0.6513
18727TIP3   OH277595   5.786   4.901   3.029  0.2655  0.4709  0.0202
18727TIP3    H177596   5.823   4.884   3.115 -0.5134  1.0618  0.4807
18727TIP3    H277597   5.781   4.815   2.987 -2.1248 -0.3085  1.6952
18728TIP3   OH277598   4.696   1.972  15.284  0.3189  0.2706 -0.1055
18728TIP3    H177599   4.631   2.018  15.232 -1.5293 -0.6773  1.2449
18728TIP3    H277600   4.724   2.035  15.350 -0.0619  0.3574 -0.0253
18729TIP3   OH277601   3.552   2.582  14.577 -0.2601  0.1195  0.9887
18729TIP3    H177602   3.610   2.524  14.528  0.0155  0.6268  0.7059
18729TIP3    H277603   3.611   2.643  14.622 -0.5644  0.7557  0.5518
18730TIP3   OH277604   1.118   3.806  15.686  0.4719  0.1529  0.4322
18730TIP3    H177605   1.047   3.843  15.737  0.1034  1.5137 -0.9885
18730TIP3    H277606   1.159   3.882  15.643 -0.4731 -0.9962 -2.8089
18731TIP3   OH277607   6.318   0.513   1.865 -0.3466 -0.0451 -0.1220
18731TIP3    H177608   6.274   0.593   1.896  0.9588  0.5638  0.2401
18731TIP3    H277609   6.251   0.445   1.871 -1.7680  1.1760 -1.2661
18732TIP3   OH277610   5.304   4.497   0.487 -0.1068  0.1314  0.4456
18732TIP3    H177611   5.355   4.459   0.415 -1.6119 -1.3972  0.1265
18732TIP3    H277612   5.362   4.493   0.562  0.9619  0.3375 -0.3435
18733TIP3   OH277613   2.899   4.548   5.246  0.5484  0.1732 -0.2494
18733TIP3    H177614   2.960   4.487   5.204  0.4264  0.4739 -0.8764
18733TIP3    H277615   2.841   4.577   5.175  1.3316  1.9154 -0.2227
18734TIP3   OH277616   0.261   5.613   6.106  0.2104  0.4505  0.2391
18734TIP3    H177617   0.167   5.630   6.116  0.1718 -0.0738  0.8011
18734TIP3    H277618   0.295   5.691   6.061 -0.7929 -0.0957 -1.5749
18735TIP3   OH277619   2.096   1.026  17.009 -0.1323 -0.2949  0.0989
18735TIP3    H177620   2.043   1.001  17.085  2.3903  0.6821  2.3301
18735TIP3    H277621   2.182   0.988  17.027  0.6822  0.4152 -2.0652
18736TIP3   OH277622   1.255   2.553   1.780  0.4549 -0.4374  0.0501
18736TIP3    H177623   1.323   2.529   1.716  1.4219 -1.2804  1.3566
18736TIP3    H277624   1.200   2.475   1.786 -0.1861 -0.0300 -0.4149
18737TIP3   OH277625   5.288   3.202   5.171  0.1616 -0.2348 -0.3089
18737TIP3    H177626   5.307   3.130   5.231 -2.0317 -0.5876  0.0505
18737TIP3    H277627   5.315   3.170   5.085 -0.1501 -1.2403 -0.0486
18738TIP3   OH277628   0.011   5.361  15.533 -0.2529  0.9776  0.2065
18738TIP3    H177629  -0.045   5.297  15.488 -0.9186  1.0223  0.9373
18738TIP3    H277630   0.066   5.398  15.464  0.5475 -0.7859 -0.1525
18739TIP3   OH277631   5.077   5.775  12.013 -0.2137 -0.2614 -0.0040
18739TIP3    H177632   5.164   5.735  12.018  0.6566  1.4760 -0.3901
18739TIP3    H277633   5.073   5.811  11.924 -1.1210  0.1161  0.1815
18740TIP3   OH277634   4.689   1.230   2.241  0.1294  0.5509 -0.1831
18740TIP3    H177635   4.763   1.262   2.293 -0.4404  0.1574  0.8917
18740TIP3    H277636   4.616   1.285   2.267  0.3098  1.9079 -2.3075
18741TIP3   OH277637   3.890   3.621  17.146 -0.6703  0.3015 -0.1715
18741TIP3    H177638   3.844   3.691  17.099 -0.3696  0.5201 -0.1426
18741TIP3    H277639   3.954   3.588  17.083 -1.9925 -1.1725 -0.8272
18742TIP3   OH277640   0.495   3.483  11.634  0.3219  0.3169 -0.0277
18742TIP3    H177641   0.430   3.413  11.646  0.3747  0.3078  0.2099
18742TIP3    H277642   0.466   3.530  11.556  0.5374 -0.2547 -0.4626
18743TIP3   OH277643   6.576   5.184   4.380 -0.5087 -0.3532  0.1470
18743TIP3    H177644   6.630   5.126   4.325 -1.9283 -0.5528 -1.0971
18743TIP3    H277645   6.628   5.195   4.460  1.8979  0.3517 -1.3903
18744TIP3   OH277646   2.822   4.241   4.292 -0.4245  0.1215  0.3652
18744TIP3    H177647   2.748   4.302   4.291 -2.0548 -1.7810  0.8858
18744TIP3    H277648   2.890   4.287   4.243 -2.7908  0.9061 -2.4714
18745TIP3   OH277649   2.907   0.191   5.944 -0.4766  0.2242  0.2885
18745TIP3    H177650   2.868   0.121   5.891 -1.1862  0.6770  0.2047
18745TIP3    H277651   2.833   0.248   5.966  0.1196  1.0120  0.2611
18746TIP3   OH277652   1.616   4.731   2.589 -0.4688  0.3058 -0.4457
18746TIP3    H177653   1.668   4.808   2.563  0.9187 -0.5467 -0.3056
18746TIP3    H277654   1.542   4.768   2.638 -0.7723  1.6506 -1.8372
18747TIP3   OH277655   3.086   3.711  12.470 -0.0769 -0.2620  0.2242
18747TIP3    H177656   3.039   3.639  12.511 -0.4319 -0.5621 -0.6944
18747TIP3    H277657   3.038   3.790  12.496  0.2883 -0.3351  1.1943
18748TIP3   OH277658   4.229   1.259   5.062  0.4345  0.0806  0.2734
18748TIP3    H177659   4.135   1.274   5.055  0.3333 -0.9774 -1.1304
18748TIP3    H277660   4.266   1.345   5.082 -0.7522  0.6706 -0.0119
18749TIP3   OH277661   4.875   2.776   1.545  0.1587 -0.0970 -0.4494
18749TIP3    H177662   4.880   2.683   1.522 -0.4910  0.2031 -1.9158
18749TIP3    H277663   4.798   2.783   1.602  0.2084 -0.4612 -0.3384
18750TIP3   OH277664   0.236   4.747  12.882  0.1439 -0.1503 -0.4667
18750TIP3    H177665   0.153   4.753  12.929  1.5546  0.5004  2.1310
18750TIP3    H277666   0.287   4.683  12.930  0.8884 -1.1999 -2.5402
18751TIP3   OH277667   3.470   5.513   5.424 -0.8416  0.2839  0.1272
18751TIP3    H177668   3.523   5.483   5.350 -1.1362 -0.9885  0.4137
18751TIP3    H277669   3.512   5.475   5.501 -1.1543  0.7238  0.5225
18752TIP3   OH277670   4.205   0.774   3.587 -0.3947  0.0219  0.2360
18752TIP3    H177671   4.117   0.794   3.556 -0.1683 -2.1292 -2.1399
18752TIP3    H277672   4.245   0.859   3.602 -2.5538  1.0614  0.4985
18753TIP3   OH277673   3.774   6.282   2.293 -0.4187  0.1151 -0.0859
18753TIP3    H177674   3.791   6.286   2.387  1.4625 -0.3237 -0.3709
18753TIP3    H277675   3.700   6.223   2.284 -1.4726  1.1763  1.1837
18754TIP3   OH277676   1.342   5.384  16.709 -0.2949 -0.2778  0.0411
18754TIP3    H177677   1.432   5.412  16.726 -0.3789 -0.4137  0.7185
18754TIP3    H277678   1.352   5.313  16.645  0.0775 -0.3045  0.1247
18755TIP3   OH277679   3.254   5.472  16.328 -0.4918 -0.7813  0.0377
18755TIP3    H177680   3.225   5.405  16.265 -2.1014  0.6233 -0.8232
18755TIP3    H277681   3.201   5.549  16.305  0.4040  0.3993  1.7957
18756TIP3   OH277682   1.696   2.480  15.443 -0.6642 -0.1608 -0.7230
18756TIP3    H177683   1.644   2.528  15.379 -1.8543  0.0090  0.3302
18756TIP3    H277684   1.770   2.538  15.462  0.1767 -0.5643 -2.5115
18757TIP3   OH277685   4.962   0.317  12.092 -0.0008 -0.2437 -0.7457
18757TIP3    H177686   4.920   0.368  12.023  0.1872  1.8747  0.5994
18757TIP3    H277687   4.901   0.321  12.165  0.1681 -1.7561 -0.4850
18758TIP3   OH277688   3.541   4.737   1.762 -0.0948  0.2638  0.0465
18758TIP3    H177689   3.468   4.799   1.760  0.8144  1.3638 -0.2855
18758TIP3    H277690   3.592   4.763   1.839  1.0179  0.8348 -0.8382
18759TIP3   OH277691   6.649   6.682  14.118 -0.0141  0.1834 -0.5043
18759TIP3    H177692   6.710   6.652  14.050 -0.2711 -0.0671 -0.6269
18759TIP3    H277693   6.572   6.625  14.107 -0.8450  1.4176 -1.2736
18760TIP3   OH277694   6.028   6.189  13.504  0.5181 -0.4608  0.0391
18760TIP3    H177695   5.976   6.136  13.444  0.0921 -0.5642  0.4933
18760TIP3    H277696   5.992   6.277  13.497  0.7237 -0.3894 -0.1426
18761TIP3   OH277697   4.515   5.855  16.232  0.2176  0.0587 -0.2815
18761TIP3    H177698   4.568   5.782  16.264 -1.1984 -1.1036 -0.4787
18761TIP3    H277699   4.476   5.893  16.311  0.9171  0.6073 -0.1835
18762TIP3   OH277700   0.072   4.385  15.891  0.0639  0.4015 -0.2525
18762TIP3    H177701   0.135   4.450  15.922 -0.9224  0.9232  0.7642
18762TIP3    H277702  -0.013   4.425  15.909 -0.5796 -1.2967  0.7075
18763TIP3   OH277703   0.612   3.714  15.266 -0.6018 -0.5334 -0.3728
18763TIP3    H177704   0.591   3.773  15.195 -3.0873  2.4114  2.5102
18763TIP3    H277705   0.689   3.753  15.309 -0.1373 -1.3538 -0.4256
18764TIP3   OH277706   2.644   2.551  13.726  0.1123  0.5077 -0.1557
18764TIP3    H177707   2.597   2.544  13.809 -0.2226  0.0746 -0.3849
18764TIP3    H277708   2.652   2.646  13.712  1.0776  0.6101  0.8788
18765TIP3   OH277709   6.208   5.946  15.830  0.2228  0.5838 -0.1350
18765TIP3    H177710   6.150   5.981  15.762  1.5872  2.5612 -0.3714
18765TIP3    H277711   6.272   5.894  15.782 -0.7057 -0.7841  0.0316
18766TIP3   OH277712   3.065   1.746  16.536  0.1090  0.4156 -0.0561
18766TIP3    H177713   2.997   1.775  16.476 -0.2151  1.1834  0.6838
18766TIP3    H277714   3.049   1.793  16.617  0.8792 -0.1971  0.4718
18767TIP3   OH277715   2.256   3.966  13.604 -0.0178  0.0461 -0.3896
18767TIP3    H177716   2.178   3.980  13.657  0.8387  0.6900  0.7677
18767TIP3    H277717   2.253   3.873  13.582  0.0626 -0.4989  1.6502
18768TIP3   OH277718   2.802   5.758   2.030  0.3899 -0.1667  0.1874
18768TIP3    H177719   2.776   5.666   2.034 -1.6987  0.3795  0.0589
18768TIP3    H277720   2.859   5.764   1.953 -0.4192 -1.1350 -0.5053
18769TIP3   OH277721   4.747   5.354   2.627 -0.3292  0.5422  0.2128
18769TIP3    H177722   4.736   5.383   2.717 -2.6569  0.9663 -0.1589
18769TIP3    H277723   4.828   5.396   2.598  0.7822 -0.0768  2.2472
18770TIP3   OH277724   6.745   6.096  16.295 -0.1901  0.8904 -0.2461
18770TIP3    H177725   6.702   6.023  16.249  1.6958 -0.4590  0.0383
18770TIP3    H277726   6.742   6.071  16.387  1.1665  0.7884 -0.2224
18771TIP3   OH277727   4.060   0.554   1.766 -0.0111 -0.2414  0.0903
18771TIP3    H177728   4.008   0.572   1.845 -0.5768  0.2802 -0.3942
18771TIP3    H277729   4.137   0.507   1.799  0.4970  1.2454  1.1492
18772TIP3   OH277730   4.367   1.135   0.945  0.3805  0.3557  0.0269
18772TIP3    H177731   4.449   1.107   0.986  1.9837  3.0073 -1.0598
18772TIP3    H277732   4.320   1.182   1.014  1.9253  2.6513 -0.3585
18773TIP3   OH277733   2.847   6.569  15.767  0.3213  0.4727 -0.3624
18773TIP3    H177734   2.850   6.593  15.859  1.9626  0.6440 -0.4390
18773TIP3    H277735   2.887   6.482  15.763 -0.2210  0.2346 -0.8590
18774TIP3   OH277736   3.925   3.773  10.687  0.6366  0.1330 -0.0061
18774TIP3    H177737   3.931   3.864  10.717 -0.5725 -0.1292  1.0862
18774TIP3    H277738   3.997   3.728  10.731 -0.2546  0.0590  1.4416
18775TIP3   OH277739   2.559   6.647   3.446 -0.1453 -0.5041 -0.4084
18775TIP3    H177740   2.532   6.610   3.361 -1.6933  0.8464 -0.5645
18775TIP3    H277741   2.532   6.582   3.510 -1.1912 -0.4833 -0.8029
18776TIP3   OH277742   1.096   6.428  11.657 -0.3036 -0.1126  0.0449
18776TIP3    H177743   1.124   6.455  11.569 -0.5423 -1.3747 -0.4408
18776TIP3    H277744   1.169   6.452  11.714  0.3029 -0.2364 -0.6684
18777TIP3   OH277745   0.473   5.730   3.260  0.0943 -0.1325 -0.1434
18777TIP3    H177746   0.559   5.767   3.243  1.3747 -2.3862  0.9713
18777TIP3    H277747   0.471   5.717   3.355 -1.7843  0.5153 -0.0525
18778TIP3   OH277748   5.287   0.545  15.245 -0.0224  0.3091  0.0339
18778TIP3    H177749   5.276   0.638  15.265  1.1496  0.4720  0.0061
18778TIP3    H277750   5.207   0.503  15.277 -0.0179  1.1590  1.1849
18779TIP3   OH277751   5.805   3.602  14.126 -0.2052  0.4928 -0.4576
18779TIP3    H177752   5.807   3.507  14.142  0.8150  0.9073  2.4061
18779TIP3    H277753   5.895   3.624  14.100 -0.3762  0.7447 -0.8533
18780TIP3   OH277754   5.751   5.130   3.232 -0.1113 -0.5654 -0.5667
18780TIP3    H177755   5.677   5.089   3.275  0.8853 -1.1202  0.6944
18780TIP3    H277756   5.755   5.088   3.146  0.8655 -3.2459  0.6540
18781TIP3   OH277757   4.303   5.340   3.684 -0.1368 -0.4011 -0.1996
18781TIP3    H177758   4.259   5.257   3.701  0.1848 -1.0454 -2.2245
18781TIP3    H277759   4.396   5.321   3.695 -0.0853 -0.2014 -0.2777
18782TIP3   OH277760   2.116   0.804   6.147  0.2782  0.1567  0.7924
18782TIP3    H177761   2.116   0.828   6.054  0.3421  0.1546  0.7920
18782TIP3    H277762   2.196   0.842   6.182  0.4424 -0.1630  0.7657
18783TIP3   OH277763   6.309   6.595  15.600 -0.1329 -0.0243  0.0335
18783TIP3    H177764   6.216   6.574  15.612 -0.9723  3.0374 -0.3111
18783TIP3    H277765   6.341   6.609  15.689 -0.4373  0.5214  0.0600
18784TIP3   OH277766   4.717   2.232  16.749 -0.3235  0.2804  0.1397
18784TIP3    H177767   4.713   2.254  16.842  0.4770  1.2516 -0.0326
18784TIP3    H277768   4.751   2.312  16.707  4.0790 -1.5599 -0.3530
18785TIP3   OH277769   1.128   2.930  16.806 -0.3719  0.6371 -0.0541
18785TIP3    H177770   1.033   2.932  16.818 -0.3502  1.6687 -0.0144
18785TIP3    H277771   1.144   2.848  16.758 -1.5979  1.8100 -2.6594
18786TIP3   OH277772   5.826   1.049   3.644  0.5136  0.4141 -0.1245
18786TIP3    H177773   5.748   1.008   3.682  1.8525 -2.7244 -0.5130
18786TIP3    H277774   5.800   1.072   3.555  0.4313 -2.3256 -0.9075
18787TIP3   OH277775   3.318   4.311   0.400 -0.5396  0.0868  0.6102
18787TIP3    H177776   3.347   4.387   0.349  1.2411 -0.8509  0.1685
18787TIP3    H277777   3.357   4.324   0.486  1.6301 -1.3490 -0.0844
18788TIP3   OH277778   3.882   4.161  12.771 -0.3953  0.4205  0.2322
18788TIP3    H177779   3.835   4.182  12.690 -1.1015 -0.9658  0.2520
18788TIP3    H277780   3.825   4.098  12.816  0.6008  0.1668  1.1786
18789TIP3   OH277781   1.404   6.477  11.760  0.1959 -0.0893 -0.1411
18789TIP3    H177782   1.421   6.410  11.693  0.0842 -1.3257  1.0060
18789TIP3    H277783   1.486   6.526  11.766  0.4367 -0.4091 -0.6974
18790TIP3   OH277784   6.150   0.297   5.091  0.3545  0.2880 -0.0769
18790TIP3    H177785   6.152   0.369   5.154  1.7764 -0.5852  0.9347
18790TIP3    H277786   6.192   0.224   5.136  0.6622 -0.6256 -1.7440
18791TIP3   OH277787   5.836   4.784  16.291 -0.0218  0.0840 -0.1452
18791TIP3    H177788   5.791   4.853  16.341 -0.0239  0.3687 -0.5421
18791TIP3    H277789   5.816   4.703  16.340 -0.6099  0.2642 -0.0764
18792TIP3   OH277790   6.073   4.537  12.243 -0.2180  0.3178 -0.1234
18792TIP3    H177791   6.160   4.519  12.278  0.5695  3.2356 -0.2705
18792TIP3    H277792   6.052   4.462  12.188  0.6033 -2.1434  2.6649
18793TIP3   OH277793   0.223   4.139   0.598 -0.7138  0.1566 -0.0244
18793TIP3    H177794   0.299   4.081   0.585  0.1713  1.4222 -0.7340
18793TIP3    H277795   0.168   4.092   0.660  0.5736 -0.8920  0.3857
18794TIP3   OH277796   4.591   0.250   1.252  0.1712  0.6022  0.3564
18794TIP3    H177797   4.512   0.219   1.207  0.3959  1.9105 -1.0434
18794TIP3    H277798   4.573   0.237   1.345  0.0458 -3.1070 -0.0556
18795TIP3   OH277799   5.035   3.854  12.135 -0.0108  0.3084  0.3436
18795TIP3    H177800   5.034   3.945  12.105 -1.2351  0.0365 -0.4982
18795TIP3    H277801   5.022   3.860  12.229  0.3618  1.0125  0.3664
18796TIP3   OH277802   2.783   3.763   2.972 -0.1679  0.1778 -0.2855
18796TIP3    H177803   2.869   3.732   2.945  0.1660 -0.2560  1.1772
18796TIP3    H277804   2.733   3.770   2.891  1.1120  0.0269 -1.1080
18797TIP3   OH277805   0.951   1.624  11.546 -0.4546  0.7694 -0.2361
18797TIP3    H177806   1.025   1.574  11.581 -0.9555  0.0335 -0.2180
18797TIP3    H277807   0.941   1.697  11.608 -0.7053  0.0303  0.6153
18798TIP3   OH277808   0.471   4.007   1.359 -0.3107  0.9534 -0.4139
18798TIP3    H177809   0.452   3.916   1.381 -1.3877  1.0268 -0.9686
18798TIP3    H277810   0.559   4.006   1.322  0.4204  0.4177  1.2627
18799TIP3   OH277811   5.619   0.903   4.396  0.4594 -1.0397 -0.7545
18799TIP3    H177812   5.640   0.987   4.356 -1.2204 -0.6964 -0.9809
18799TIP3    H277813   5.692   0.886   4.456  0.0636  1.3714  0.5047
18800TIP3   OH277814   6.611   3.406   1.550  0.8807 -0.0142  0.3840
18800TIP3    H177815   6.626   3.376   1.460 -1.2500 -1.1655  0.3457
18800TIP3    H277816   6.595   3.500   1.542 -0.6552 -0.3414 -0.6531
18801TIP3   OH277817   3.484   4.296   4.264  0.1738 -0.3003  0.6232
18801TIP3    H177818   3.476   4.268   4.173  1.9274  0.1729  0.2719
18801TIP3    H277819   3.544   4.231   4.303  0.4134  0.1972  1.0964
18802TIP3   OH277820   4.597   3.530   5.161  0.2781  0.4560  0.2820
18802TIP3    H177821   4.527   3.482   5.207  1.8344 -0.8266  1.4132
18802TIP3    H277822   4.575   3.622   5.175 -1.3747  0.1058  0.2955
18803TIP3   OH277823   5.022   4.175  17.144 -0.5534 -0.6219  0.2585
18803TIP3    H177824   4.974   4.133  17.072 -0.2123  0.4761 -0.6454
18803TIP3    H277825   5.051   4.103  17.199 -0.8050 -1.4988 -0.7246
18804TIP3   OH277826   3.944   6.459   3.398 -0.3495 -0.2247 -0.1212
18804TIP3    H177827   3.915   6.373   3.368 -1.2135  0.3279 -0.9213
18804TIP3    H277828   4.026   6.442   3.444 -1.4879 -1.7446  1.4886
18805TIP3   OH277829   5.346   1.416   5.564 -0.0723  0.2435  0.0488
18805TIP3    H177830   5.346   1.320   5.568 -2.8377  0.2013  1.1350
18805TIP3    H277831   5.302   1.436   5.481 -1.2729  0.4978  0.7179
18806TIP3   OH277832   6.145   4.616  13.169 -0.3170 -0.4151  0.0945
18806TIP3    H177833   6.223   4.645  13.217 -2.2082  0.1140  3.1421
18806TIP3    H277834   6.113   4.694  13.125 -1.2889  0.4340  2.1908
18807TIP3   OH277835   5.034   2.654   4.375  0.0981 -0.2945 -0.2883
18807TIP3    H177836   5.066   2.734   4.417 -0.6560 -0.2696  0.2698
18807TIP3    H277837   5.108   2.594   4.379  0.0752 -0.2653  1.0294
18808TIP3   OH277838   3.580   3.702  12.636  0.0620  0.6792  0.3059
18808TIP3    H177839   3.645   3.753  12.590  0.4973 -1.1232 -1.1734
18808TIP3    H277840   3.500   3.710  12.583  0.7530 -1.9891 -1.3656
18809TIP3   OH277841   5.807   1.178  12.214  0.0109  0.1643 -0.0433
18809TIP3    H177842   5.859   1.198  12.136 -0.3137 -0.2220 -0.3708
18809TIP3    H277843   5.871   1.154  12.280  0.2490 -0.4823 -0.4943
18810TIP3   OH277844   1.047   6.567  14.207  0.9197 -0.1159 -0.2665
18810TIP3    H177845   1.037   6.521  14.124 -0.0226  0.3327 -0.4183
18810TIP3    H277846   1.043   6.499  14.274  1.4546 -0.4542 -0.5810
18811TIP3   OH277847   4.282   0.301   6.695 -0.1182  0.4595 -0.2032
18811TIP3    H177848   4.189   0.326   6.694 -0.6169 -0.9765  2.0669
18811TIP3    H277849   4.283   0.216   6.740  2.4406  1.2886  1.5255
18812TIP3   OH277850   5.000   0.078  16.606 -0.1544 -0.8338 -0.7003
18812TIP3    H177851   5.039   0.027  16.676 -1.9426  0.6152  1.5182
18812TIP3    H277852   4.943   0.016  16.560 -2.0204 -1.0415  1.7089
18813TIP3   OH277853   2.347   1.611   3.764 -0.5226 -0.1971 -0.6498
18813TIP3    H177854   2.386   1.524   3.776 -0.5241 -0.2953 -1.3327
18813TIP3    H277855   2.261   1.594   3.725 -1.3252  0.0119  0.9319
18814TIP3   OH277856   0.436   0.665   3.779 -0.1961 -0.1222 -0.2332
18814TIP3    H177857   0.466   0.609   3.708  0.1341 -0.9873  0.5733
18814TIP3    H277858   0.358   0.621   3.813 -0.3139  0.2505 -0.0139
18815TIP3   OH277859   3.889   2.780  14.572  0.1036 -0.7361 -0.1835
18815TIP3    H177860   3.908   2.832  14.650 -1.3824 -2.3661  1.3662
18815TIP3    H277861   3.950   2.706  14.577 -0.7418 -1.4318  0.0770
18816TIP3   OH277862   2.100   5.053  16.135 -0.2097  0.7993 -0.1980
18816TIP3    H177863   2.127   4.986  16.073  1.0875  2.6844 -1.8184
18816TIP3    H277864   2.105   5.011  16.221  2.2529 -0.6843 -0.9722
18817TIP3   OH277865   2.127   4.932   1.764  0.4149 -0.4188  0.5227
18817TIP3    H177866   2.072   4.984   1.822  0.6356  1.0630 -0.5478
18817TIP3    H277867   2.209   4.922   1.812  0.7421  1.1459  0.3292
18818TIP3   OH277868   3.640   1.727  15.816 -0.5709  0.4490 -0.3496
18818TIP3    H177869   3.721   1.765  15.850  0.6829 -0.9745 -1.5977
18818TIP3    H277870   3.603   1.680  15.891 -0.7135  1.7741  0.4561
18819TIP3   OH277871   3.895   1.803   1.562 -0.0750 -0.0734  0.1256
18819TIP3    H177872   3.903   1.894   1.533  3.7282  0.0552  1.1205
18819TIP3    H277873   3.868   1.755   1.484  0.2605  1.5627 -1.0513
18820TIP3   OH277874   1.308   6.047  17.140  0.4829 -0.4858  0.0494
18820TIP3    H177875   1.286   6.065  17.048  1.9722  0.9757 -0.0682
18820TIP3    H277876   1.320   5.952  17.143 -2.7302 -1.0229 -0.4820
18821TIP3   OH277877   2.428   6.515   5.095  0.5016 -0.1849 -0.5224
18821TIP3    H177878   2.475   6.593   5.066  0.4363  0.6181  1.3674
18821TIP3    H277879   2.337   6.531   5.069  0.2913  0.8995  0.7300
18822TIP3   OH277880   2.816   1.826  17.172  0.6222 -0.6045 -0.0812
18822TIP3    H177881   2.738   1.830  17.227  0.2368  0.2008 -0.6579
18822TIP3    H277882   2.889   1.839  17.232  0.3977 -2.2853  0.6089
18823TIP3   OH277883   1.299   6.210  12.699  0.0550  0.1974  0.0150
18823TIP3    H177884   1.252   6.177  12.622 -0.9966  1.0592  0.2675
18823TIP3    H277885   1.237   6.201  12.771  0.8564 -0.1399  0.6877
18824TIP3   OH277886   4.902   4.330   5.133  0.2411  0.6297  0.4844
18824TIP3    H177887   4.981   4.327   5.188 -2.0527 -1.0116  4.1235
18824TIP3    H277888   4.864   4.417   5.150  0.5523  0.8921 -0.1509
18825TIP3   OH277889   5.532   2.050  12.201  0.4246  0.5195  0.4241
18825TIP3    H177890   5.528   2.002  12.118  0.3508  1.1620  0.0470
18825TIP3    H277891   5.441   2.062  12.227  0.4495  0.2765  0.6221
18826TIP3   OH277892   1.817   0.889  14.146 -0.4384  0.6538  0.2265
18826TIP3    H177893   1.893   0.904  14.202  0.9692  0.7663 -1.5946
18826TIP3    H277894   1.854   0.852  14.065 -2.1308  2.0463 -1.2854
18827TIP3   OH277895   5.625   0.193  14.949  0.1786  0.1986  0.4148
18827TIP3    H177896   5.703   0.164  14.901 -1.1697 -1.3189 -0.9586
18827TIP3    H277897   5.659   0.257  15.012  2.5602 -0.5517  0.0133
18828TIP3   OH277898   1.909   5.014  13.753 -0.2607  0.3896 -0.6838
18828TIP3    H177899   1.910   4.972  13.838  0.4469  1.8705  0.0850
18828TIP3    H277900   1.903   4.942  13.690 -1.8551 -0.6803  0.6184
18829TIP3   OH277901   2.115   3.505  16.875  0.4353 -0.0388  0.2919
18829TIP3    H177902   2.057   3.473  16.806  2.8943  0.3523 -2.1394
18829TIP3    H277903   2.091   3.597  16.885  1.5051  0.5654 -1.8609
18830TIP3   OH277904   4.522   3.118  14.047  0.2326  0.7530  0.1473
18830TIP3    H177905   4.605   3.140  14.004  0.1439  1.1028  0.1497
18830TIP3    H277906   4.545   3.052  14.112  0.3952  0.3179 -0.3394
18831TIP3   OH277907   2.010   3.386  12.233  0.2376 -0.2541 -0.2123
18831TIP3    H177908   2.064   3.449  12.280  0.1283  0.4440 -0.9872
18831TIP3    H277909   1.921   3.419  12.243  0.2802  0.2908 -1.4525
18832TIP3   OH277910   5.172   5.454   6.421  0.5992  0.6681 -0.2634
18832TIP3    H177911   5.265   5.448   6.440  0.1466  0.8956  2.4642
18832TIP3    H277912   5.152   5.547   6.424  0.0901  0.5498  0.4548
18833TIP3   OH277913   2.573   3.257   3.940 -0.6124 -0.1274 -0.0958
18833TIP3    H177914   2.568   3.351   3.922 -0.7644 -0.4785 -2.1414
18833TIP3    H277915   2.581   3.251   4.035 -0.5718  1.9486  0.0756
18834TIP3   OH277916   1.000   0.252   5.423 -0.0752  0.1840  0.3716
18834TIP3    H177917   1.024   0.254   5.331 -1.8666 -1.1506 -0.1891
18834TIP3    H277918   0.918   0.302   5.428  0.1429  0.4680  1.2857
18835TIP3   OH277919   4.235   5.739   4.465 -0.0887 -0.5037 -0.9013
18835TIP3    H177920   4.280   5.823   4.470 -1.1723  0.0277  0.3490
18835TIP3    H277921   4.147   5.761   4.434 -0.3352 -1.1980 -0.7080
18836TIP3   OH277922   2.122   2.005  14.241 -0.1785  0.2125  0.3981
18836TIP3    H177923   2.143   1.995  14.334  2.8467  0.4971 -0.1571
18836TIP3    H277924   2.133   1.918  14.204 -3.1067 -0.3060  0.4921
18837TIP3   OH277925   3.429   5.241   6.439 -0.2710  0.4673  0.1094
18837TIP3    H177926   3.394   5.320   6.480 -1.2035 -0.0724  0.3798
18837TIP3    H277927   3.359   5.177   6.446  0.3972 -0.3331 -0.2899
18838TIP3   OH277928   2.907   2.060  16.533 -0.1299 -0.1760 -0.1590
18838TIP3    H177929   2.874   2.150  16.541 -0.0969 -0.1507 -0.3169
18838TIP3    H277930   2.972   2.064  16.463  0.7977 -0.0586  0.6715
18839TIP3   OH277931   6.550   1.773   3.879  0.0553  0.0584  0.3525
18839TIP3    H177932   6.645   1.775   3.864 -0.3490  0.5672 -2.8851
18839TIP3    H277933   6.514   1.739   3.797 -2.7666  3.2358  0.0715
18840TIP3   OH277934   3.504   2.605   1.472 -0.2055 -0.1133 -0.2665
18840TIP3    H177935   3.481   2.529   1.526 -2.2711  1.8310  1.8505
18840TIP3    H277936   3.594   2.626   1.498 -0.2323 -0.8152  0.4387
18841TIP3   OH277937   2.919   3.716  15.898 -0.5366  0.0414  0.2005
18841TIP3    H177938   2.831   3.752  15.903  0.3720  2.5001  0.2728
18841TIP3    H277939   2.971   3.786  15.859  1.4167 -1.2829  0.2759
18842TIP3   OH277940   2.247   1.840   5.771  0.0680  0.2169  0.2445
18842TIP3    H177941   2.240   1.831   5.866 -0.7041  0.8407  0.2498
18842TIP3    H277942   2.248   1.750   5.738 -3.1224 -0.0383  0.6063
18843TIP3   OH277943   5.005   1.334   0.965  0.3695  0.1795  0.2938
18843TIP3    H177944   5.093   1.300   0.948  0.9009  1.5415  0.2190
18843TIP3    H277945   4.975   1.365   0.879  0.0040  0.1587  0.4130
18844TIP3   OH277946   6.219   5.647  15.270  0.3565  0.4404  0.3894
18844TIP3    H177947   6.194   5.701  15.194  0.1658 -0.0449  0.0994
18844TIP3    H277948   6.176   5.689  15.344 -3.3646 -1.5878 -0.3367
18845TIP3   OH277949   3.191   1.722   3.035  0.8983  0.4951  0.0896
18845TIP3    H177950   3.117   1.715   3.096  0.0903 -0.3386 -0.9411
18845TIP3    H277951   3.225   1.632   3.029  0.1649  0.2939 -1.6205
18846TIP3   OH277952   5.551   0.656   4.873  0.2216  0.1095 -0.6629
18846TIP3    H177953   5.521   0.746   4.860  2.1839  1.3232  2.1368
18846TIP3    H277954   5.605   0.638   4.797  0.2520  1.5222 -1.0069
18847TIP3   OH277955   3.180   2.604   2.576 -0.2304 -0.4177 -0.2993
18847TIP3    H177956   3.158   2.546   2.649  1.4139  1.3889  1.7969
18847TIP3    H277957   3.275   2.616   2.584  0.1236 -0.6670 -3.2213
18848TIP3   OH277958   0.205   2.450   6.161  0.3705 -0.4113  0.1009
18848TIP3    H177959   0.222   2.482   6.250  0.2591  0.6414 -0.2427
18848TIP3    H277960   0.147   2.516   6.123  1.3125 -0.2750 -1.1227
18849TIP3   OH277961   3.662   4.033  14.572 -0.3822  0.0875 -0.8221
18849TIP3    H177962   3.598   4.078  14.628  1.3780  0.4821  1.0126
18849TIP3    H277963   3.632   4.050  14.483 -3.0981 -0.2097 -0.0645
18850TIP3   OH277964   6.153   0.837  15.820 -0.0477  0.1253 -0.1622
18850TIP3    H177965   6.086   0.769  15.821 -0.9794  1.0259  0.2166
18850TIP3    H277966   6.116   0.909  15.871 -0.0352  1.8181 -2.3944
18851TIP3   OH277967   4.490   2.418  12.463 -0.3354 -0.2518 -0.0815
18851TIP3    H177968   4.534   2.502  12.452  0.8751 -1.0464 -1.7973
18851TIP3    H277969   4.446   2.425  12.548  0.2779  1.8444  0.1277
18852TIP3   OH277970   1.314   3.327  15.506  0.3518  0.9119 -0.2864
18852TIP3    H177971   1.316   3.330  15.602 -0.6902  0.7176 -0.2453
18852TIP3    H277972   1.374   3.256  15.483  0.4694  0.8382  0.2374
18853TIP3   OH277973   5.081   3.177  13.685  0.0634 -0.0558 -0.1934
18853TIP3    H177974   5.039   3.241  13.744  3.0991  1.3298  0.6608
18853TIP3    H277975   5.036   3.189  13.601 -1.0770  1.4488  0.5761
18854TIP3   OH277976   3.400   4.024  13.157 -0.0083 -0.6067  0.6533
18854TIP3    H177977   3.480   3.971  13.155 -1.1406 -2.6601  3.5340
18854TIP3    H277978   3.330   3.961  13.142 -1.2348  1.1267 -1.6405
18855TIP3   OH277979   2.958   1.757  15.071 -0.1718 -0.3246 -0.3463
18855TIP3    H177980   2.944   1.763  15.165  0.0250  0.2424 -0.3532
18855TIP3    H277981   2.879   1.796  15.032  0.2301  0.4562 -0.4020
18856TIP3   OH277982   5.454   5.275  16.376 -0.3396  0.8059  0.3770
18856TIP3    H177983   5.484   5.366  16.374  1.5106  0.3841  2.9499
18856TIP3    H277984   5.439   5.256  16.468  0.8632 -1.9174  0.1323
18857TIP3   OH277985   2.401   4.334  11.516  0.4109  0.2843  0.2103
18857TIP3    H177986   2.360   4.352  11.601  0.1405 -0.3337  0.2156
18857TIP3    H277987   2.428   4.421  11.484 -3.1153  1.1339 -0.9162
18858TIP3   OH277988   1.923   3.381   5.582  0.1332  0.2887  0.4212
18858TIP3    H177989   1.982   3.340   5.519 -0.6035  0.9305 -0.7397
18858TIP3    H277990   1.929   3.327   5.660  0.3754 -1.0934 -0.5199
18859TIP3   OH277991   5.797   5.995  11.539 -0.4753 -0.1308 -0.3429
18859TIP3    H177992   5.772   6.050  11.465 -0.5963  0.1426 -0.1054
18859TIP3    H277993   5.751   5.912  11.524  0.5149 -0.5328 -1.2292
18860TIP3   OH277994   6.663   5.303   1.371  0.0408 -0.7549  0.0229
18860TIP3    H177995   6.626   5.336   1.289 -0.8937 -0.8869  0.3763
18860TIP3    H277996   6.623   5.216   1.381  0.2393 -0.7829  0.5555
18861TIP3   OH277997   5.090   3.681  16.768 -0.0905 -0.7536 -0.2566
18861TIP3    H177998   4.995   3.695  16.770 -0.2071 -1.0626 -2.0198
18861TIP3    H277999   5.103   3.598  16.812 -0.4413  0.0300  1.4137
18862TIP3   OH278000   0.044   1.123  11.032  0.3011  0.4979  0.3384
18862TIP3    H178001   0.024   1.117  11.126 -0.3147 -1.5363  0.1234
18862TIP3    H278002  -0.038   1.153  10.992  0.9313  2.6025  0.5483
18863TIP3   OH278003   1.897   3.219   0.885 -0.3285  0.1824 -0.1853
18863TIP3    H178004   1.836   3.206   0.958 -1.0069 -0.7126 -0.8839
18863TIP3    H278005   1.921   3.131   0.857  1.0693  0.5140 -0.1263
18864TIP3   OH278006   3.309   4.829  13.722  0.2289  0.5156  0.0729
18864TIP3    H178007   3.255   4.885  13.665 -1.4295 -2.6901 -1.7732
18864TIP3    H278008   3.249   4.801  13.792  1.0560  1.0392  1.0141
18865TIP3   OH278009   0.624   2.940  11.396  0.0233  0.0537  0.0562
18865TIP3    H178010   0.536   2.978  11.398  0.3410  0.9150 -1.0500
18865TIP3    H278011   0.624   2.883  11.319  0.2610 -0.4038  0.3913
18866TIP3   OH278012   4.117   2.943  13.684 -0.3374 -0.0716 -0.2112
18866TIP3    H178013   4.212   2.932  13.688 -0.3188 -1.6986 -2.7979
18866TIP3    H278014   4.103   3.011  13.618 -0.9840 -0.5202 -0.5458
18867TIP3   OH278015   4.783   4.988  11.295 -0.0168  0.5918  0.2650
18867TIP3    H178016   4.877   4.996  11.278 -0.3413  1.3897 -1.3118
18867TIP3    H278017   4.741   5.018  11.215 -1.7159  4.6272  2.3489
18868TIP3   OH278018   1.581   0.711  13.564 -0.6531 -0.4694 -0.4646
18868TIP3    H178019   1.607   0.662  13.486  0.0285  0.8784 -1.1252
18868TIP3    H278020   1.628   0.794  13.556 -0.4329 -0.3768  1.4890
18869TIP3   OH278021   2.974   0.414  15.767 -0.6222 -0.8267 -0.0893
18869TIP3    H178022   2.924   0.365  15.832 -1.4183  0.7586  0.5230
18869TIP3    H278023   2.955   0.506  15.785  0.2839 -0.2892 -1.6519
18870TIP3   OH278024   6.722   0.037  16.333 -0.5217  0.0744 -0.5679
18870TIP3    H178025   6.708   0.127  16.363  1.2082  0.1991 -0.0294
18870TIP3    H278026   6.729  -0.014  16.413 -0.0255 -0.2914 -0.8405
18871TIP3   OH278027   6.533   3.055   1.249 -0.4691  0.1350  0.3008
18871TIP3    H178028   6.543   3.037   1.343 -0.4310 -1.8783 -0.0533
18871TIP3    H278029   6.453   3.009   1.224 -0.3899  0.5157 -0.6996
18872TIP3   OH278030   3.502   1.958  11.000 -1.3500  0.8849  0.1753
18872TIP3    H178031   3.418   1.971  11.045 -0.1946  2.3551  2.0764
18872TIP3    H278032   3.531   1.871  11.028 -1.3718  1.1565  1.0816
18873TIP3   OH278033   4.925   2.333  10.929  0.0601  0.4472 -0.6518
18873TIP3    H178034   4.971   2.254  10.899 -0.7587 -0.4164  0.2884
18873TIP3    H278035   4.866   2.355  10.857 -1.2111 -1.0552 -0.1176
18874TIP3   OH278036   0.479   4.185   4.391 -1.0363 -0.6662 -0.1559
18874TIP3    H178037   0.414   4.250   4.365  0.3083  0.5218 -0.6795
18874TIP3    H278038   0.552   4.236   4.424 -0.0905 -1.9352 -0.2000
18875TIP3   OH278039   2.559   2.479   3.053  0.1913  0.0595  0.6239
18875TIP3    H178040   2.515   2.561   3.076  0.8688  0.6113 -0.0072
18875TIP3    H278041   2.510   2.412   3.100 -0.3899  0.8218  1.1353
18876TIP3   OH278042   3.186   2.246  12.167  0.2820  0.3252  0.1899
18876TIP3    H178043   3.097   2.231  12.135  0.3924  0.3052 -0.1156
18876TIP3    H278044   3.195   2.341  12.171  0.3293  0.3307 -0.0217
18877TIP3   OH278045   1.564   6.137  12.421 -0.0747 -0.3541 -0.2988
18877TIP3    H178046   1.574   6.141  12.516 -0.3174  0.4947 -0.3054
18877TIP3    H278047   1.642   6.180  12.387  0.3888 -1.3285 -0.5115
18878TIP3   OH278048   5.582   3.042   2.202  0.3873 -0.1189 -0.2333
18878TIP3    H178049   5.607   2.990   2.126  0.3855 -0.5165  0.0359
18878TIP3    H278050   5.494   3.011   2.225  0.7990 -0.7334  0.5630
18879TIP3   OH278051   6.610   0.373   0.901 -0.0006 -0.7387  0.3337
18879TIP3    H178052   6.650   0.457   0.924 -1.0340 -0.6562  1.9854
18879TIP3    H278053   6.532   0.397   0.851  0.3569 -0.7754 -0.2480
18880TIP3   OH278054   4.124   5.997  14.781  0.2224 -0.1562  0.3108
18880TIP3    H178055   4.080   6.008  14.696  1.0797  1.0742  0.0010
18880TIP3    H278056   4.059   6.026  14.845 -0.0412 -0.0535 -0.0002
18881TIP3   OH278057   4.987   5.265   5.718  0.1235 -0.0088  0.2121
18881TIP3    H178058   4.929   5.231   5.786 -0.2396 -0.1418 -0.1566
18881TIP3    H278059   5.062   5.301   5.765  0.3549 -1.0121  0.6405
18882TIP3   OH278060   5.432   5.529   2.265  0.3021  0.1416  0.1365
18882TIP3    H178061   5.519   5.568   2.262  0.7178 -0.8308 -1.0418
18882TIP3    H278062   5.434   5.460   2.200 -0.9822 -0.6900  0.9317
18883TIP3   OH278063   2.837   0.670  14.061 -0.0133 -0.0915  0.0758
18883TIP3    H178064   2.811   0.580  14.076  0.9960 -0.3012  0.6177
18883TIP3    H278065   2.793   0.720  14.129 -0.2462 -0.2337  0.0278
18884TIP3   OH278066   5.056   4.760   4.068 -0.7044  0.6313  0.6917
18884TIP3    H178067   5.097   4.733   4.150 -0.3211  0.1138  0.3354
18884TIP3    H278068   5.026   4.679   4.028 -2.8537  1.0607  1.3260
18885TIP3   OH278069   2.304   6.034  14.616 -0.4596  0.2991  0.2851
18885TIP3    H178070   2.286   6.055  14.524 -0.3805  0.9795  0.4150
18885TIP3    H278071   2.315   5.939  14.618  2.3234  0.5135 -0.8921
18886TIP3   OH278072   5.415   0.425  13.166 -0.0196  0.2050  0.0506
18886TIP3    H178073   5.371   0.421  13.081  0.6634  1.5542 -0.4028
18886TIP3    H278074   5.508   0.416  13.145  0.2479  1.6443  0.5058
18887TIP3   OH278075   3.963   1.024  12.755 -0.1602 -0.3125 -0.1402
18887TIP3    H178076   3.978   0.969  12.679 -1.0928  0.2116 -0.7189
18887TIP3    H278077   4.037   1.084  12.756  0.6083 -1.2330  0.2145
18888TIP3   OH278078   2.722   0.048   5.762 -0.1262  0.0761 -0.0325
18888TIP3    H178079   2.691   0.060   5.672 -1.4106  0.7547  0.4854
18888TIP3    H278080   2.657  -0.010   5.802  0.4454 -0.2333  0.4743
18889TIP3   OH278081   2.754   1.024  16.807 -0.4505  0.2980  0.0894
18889TIP3    H178082   2.742   0.952  16.869  1.0851 -0.7307 -0.7271
18889TIP3    H278083   2.675   1.024  16.754 -0.6303 -0.5517  0.3407
18890TIP3   OH278084   6.353   6.642  15.863 -0.2231  0.1838  0.0128
18890TIP3    H178085   6.302   6.629  15.943 -1.2532 -1.5127 -0.8677
18890TIP3    H278086   6.444   6.644  15.893 -0.6089 -0.1325  1.2669
18891TIP3   OH278087   5.558   1.537  11.169 -0.2097  0.0236 -0.3429
18891TIP3    H178088   5.610   1.555  11.091  0.9184  0.0736  0.3925
18891TIP3    H278089   5.580   1.446  11.192  0.2298  0.3156  0.4494
18892TIP3   OH278090   3.892   6.327   3.963 -0.9575  0.3508  0.0793
18892TIP3    H178091   3.876   6.343   3.870 -2.1113  1.9465  0.5122
18892TIP3    H278092   3.820   6.372   4.008  0.7903  1.5196  1.8370
18893TIP3   OH278093   0.705   4.311   3.393  0.2437 -0.0340 -0.1352
18893TIP3    H178094   0.740   4.393   3.358 -1.5217  0.8943  0.1199
18893TIP3    H278095   0.768   4.285   3.460  2.8551 -0.9967 -2.7639
18894TIP3   OH278096   1.700   2.361  17.019 -0.6985  0.2885 -0.0469
18894TIP3    H178097   1.717   2.297  16.950  2.1557 -0.2850  1.0287
18894TIP3    H278098   1.612   2.341  17.050 -1.1555 -0.9146 -1.9571
18895TIP3   OH278099   5.403   0.335   3.064 -0.0358 -0.4564  0.5089
18895TIP3    H178100   5.341   0.387   3.013  1.6530  1.6331  0.4064
18895TIP3    H278101   5.403   0.249   3.022  0.1916  0.7486 -2.1593
18896TIP3   OH278102   5.354   4.163   2.246 -0.0582 -0.3623 -0.3552
18896TIP3    H178103   5.392   4.134   2.329  0.5053 -1.7945 -1.0778
18896TIP3    H278104   5.264   4.189   2.269  0.2702 -0.1575  0.7844
18897TIP3   OH278105   5.190   4.509  16.150  0.4179  0.0358 -0.1919
18897TIP3    H178106   5.119   4.546  16.203  1.0108 -1.7039  1.9393
18897TIP3    H278107   5.176   4.415  16.153  1.6301 -0.2215 -1.5350
18898TIP3   OH278108   6.269   6.486  14.708  0.1670 -0.1325 -0.1135
18898TIP3    H178109   6.348   6.443  14.740  0.6544 -0.3600 -1.5642
18898TIP3    H278110   6.205   6.415  14.701  0.2956 -0.2223 -0.3836
18899TIP3   OH278111   2.564   2.728   2.690  0.5140  0.1326 -0.2647
18899TIP3    H178112   2.510   2.652   2.714 -1.4199  1.6454  0.4781
18899TIP3    H278113   2.531   2.755   2.604 -0.5750  1.5423  0.5375
18900TIP3   OH278114   5.888   6.680   5.440  0.3217  0.1277  0.1445
18900TIP3    H178115   5.940   6.615   5.393 -1.6090 -0.4529 -1.3590
18900TIP3    H278116   5.952   6.730   5.490  2.3679 -0.3164 -1.8207
18901TIP3   OH278117   6.329   3.380  15.560  0.1637 -0.3365  0.4375
18901TIP3    H178118   6.301   3.432  15.635 -1.0576  0.1078 -0.3037
18901TIP3    H278119   6.280   3.298  15.567  1.4318 -1.0733  1.1202
18902TIP3   OH278120   4.797   4.514  12.108  0.0081  0.0157  0.0817
18902TIP3    H178121   4.703   4.524  12.091  0.3012  0.8715 -1.1793
18902TIP3    H278122   4.812   4.419  12.104 -0.6061 -0.0532 -0.8727
18903TIP3   OH278123   0.969   1.896   5.492 -0.1421 -0.1504 -0.1672
18903TIP3    H178124   0.899   1.853   5.542 -0.5135  1.2909  0.6048
18903TIP3    H278125   1.042   1.901   5.554  0.5066 -1.2250 -0.8221
18904TIP3   OH278126   0.767   2.878  13.228 -0.9824 -0.3094 -0.4435
18904TIP3    H178127   0.754   2.784  13.235  0.1934 -0.4752 -0.1677
18904TIP3    H278128   0.796   2.905  13.315 -0.9700  0.2496 -0.6125
18905TIP3   OH278129   1.630   1.996  15.501  0.0539 -0.6036  0.8158
18905TIP3    H178130   1.681   1.933  15.450  0.0136  0.8067 -1.0667
18905TIP3    H278131   1.603   2.062  15.438  0.0777  1.3129  2.6806
18906TIP3   OH278132   4.136   2.688   0.700  0.0279  0.6412 -0.5242
18906TIP3    H178133   4.062   2.741   0.674  1.0771  1.8659 -1.1431
18906TIP3    H278134   4.116   2.600   0.668 -1.0111  1.0150 -0.9269
18907TIP3   OH278135   6.323   1.276   3.451  0.4072  0.9212 -0.0024
18907TIP3    H178136   6.289   1.353   3.406 -0.9418  0.6879  0.5533
18907TIP3    H278137   6.303   1.203   3.392 -1.8126  0.5495  1.0751
18908TIP3   OH278138   2.828   1.761  12.832  0.6152  0.2647  0.2540
18908TIP3    H178139   2.813   1.855  12.843 -0.7948  0.1655 -0.5810
18908TIP3    H278140   2.892   1.755  12.761 -0.4379  0.5799 -0.7481
18909TIP3   OH278141   2.846   0.914  15.667 -0.2360  0.7264 -0.4823
18909TIP3    H178142   2.914   0.937  15.603  1.0511  4.3139  1.8540
18909TIP3    H278143   2.893   0.864  15.734  0.0659  2.5588  0.7536
18910TIP3   OH278144   5.542   6.301  15.222 -0.1266 -0.4355  0.2836
18910TIP3    H178145   5.520   6.387  15.184 -1.0380 -0.3867  0.8804
18910TIP3    H278146   5.462   6.274  15.266  0.0394 -1.7797 -0.2095
18911TIP3   OH278147   0.606   0.447  13.446 -0.2160  0.1674 -0.4011
18911TIP3    H178148   0.559   0.490  13.517 -0.7566 -1.7446  0.4558
18911TIP3    H278149   0.684   0.501  13.434 -0.7843  1.2991  0.6986
18912TIP3   OH278150   1.046   2.368  16.092 -0.5095  0.4131 -0.1304
18912TIP3    H178151   1.023   2.458  16.116 -2.1488  0.2014 -0.7366
18912TIP3    H278152   1.030   2.363  15.998 -0.7808 -0.5841 -0.0496
18913TIP3   OH278153   3.477   2.948   5.845  0.7568  0.3184  0.7685
18913TIP3    H178154   3.479   3.043   5.828  1.0959  0.1931  0.0823
18913TIP3    H278155   3.513   2.939   5.933 -2.2475  1.1089  2.2277
18914TIP3   OH278156   5.681   6.039  15.025  0.1455  0.4261 -0.1729
18914TIP3    H178157   5.588   6.018  15.016  0.0450  0.1709  1.2944
18914TIP3    H278158   5.684   6.115  15.082  0.7677  1.7612 -1.8723
18915TIP3   OH278159   0.577   6.766   1.814  0.3891 -0.4284 -0.7955
18915TIP3    H178160   0.568   6.672   1.830 -0.6912 -0.0599  1.0744
18915TIP3    H278161   0.593   6.803   1.901  2.2217  1.0071 -1.6684
18916TIP3   OH278162   5.555   4.909   0.159 -0.3328  0.3643  0.2570
18916TIP3    H178163   5.571   5.003   0.152 -2.0670  0.6764 -0.2218
18916TIP3    H278164   5.579   4.887   0.248 -1.2307  1.5806  0.8321
18917TIP3   OH278165   1.675   0.907  14.410 -0.2316  0.0537 -0.2668
18917TIP3    H178166   1.744   0.962  14.372 -0.1444 -0.6574 -1.1654
18917TIP3    H278167   1.705   0.817  14.396 -0.9226 -0.2483  0.1389
18918TIP3   OH278168   5.643   6.653   3.471 -0.4761 -0.0772 -0.1391
18918TIP3    H178169   5.707   6.677   3.404  1.0656 -1.3697  0.7898
18918TIP3    H278170   5.694   6.607   3.538 -2.3124 -0.7204  0.9013
18919TIP3   OH278171   4.739   3.228  11.398  0.5383 -0.3109  0.6730
18919TIP3    H178172   4.738   3.227  11.302  2.8337 -0.4450  0.6021
18919TIP3    H278173   4.653   3.263  11.422  0.2074  0.4861 -1.4290
18920TIP3   OH278174   1.606   4.266  13.238  0.2753  0.0654  0.1830
18920TIP3    H178175   1.643   4.249  13.151  1.1402  2.9363 -0.0953
18920TIP3    H278176   1.664   4.220  13.299  0.1051 -1.3405 -0.6730
18921TIP3   OH278177   5.369   6.533  13.389  0.3488 -0.0795 -0.7019
18921TIP3    H178178   5.322   6.598  13.337  1.4293  0.5126 -0.9698
18921TIP3    H278179   5.461   6.560  13.384  0.4378  0.5161  2.2203
18922TIP3   OH278180   5.895   1.933   4.761  0.4863 -0.3172  0.7207
18922TIP3    H178181   5.953   1.859   4.779  0.5251 -0.4874 -0.0849
18922TIP3    H278182   5.809   1.904   4.793  0.5343 -0.6444  0.5585
18923TIP3   OH278183   6.206   2.202   2.773  0.2449 -0.5410 -0.0082
18923TIP3    H178184   6.134   2.262   2.791 -0.5266 -1.3512 -0.2614
18923TIP3    H278185   6.185   2.165   2.687  2.0324  0.6970 -1.0248
18924TIP3   OH278186   1.939   0.663   2.113 -0.1616 -0.0411  0.0636
18924TIP3    H178187   1.994   0.737   2.086 -0.4520 -0.2065 -1.0279
18924TIP3    H278188   1.954   0.656   2.207  1.8201 -0.1947 -0.2087
18925TIP3   OH278189   1.924   1.659   0.870 -0.6261  0.4175 -0.1936
18925TIP3    H178190   1.929   1.589   0.805 -2.1508  1.5980 -1.6815
18925TIP3    H278191   1.984   1.632   0.939  2.1291 -0.2950 -2.6604
18926TIP3   OH278192   3.901   3.187   0.329 -0.0037 -0.0804  0.0890
18926TIP3    H178193   3.961   3.214   0.259  0.9889 -0.2992  0.8353
18926TIP3    H278194   3.955   3.186   0.408 -0.7688 -1.2172  0.6246
18927TIP3   OH278195   2.668   6.034   3.939 -0.0402  0.3035  0.1815
18927TIP3    H178196   2.583   6.053   3.900 -0.4042 -4.6047 -2.1287
18927TIP3    H278197   2.654   6.040   4.033 -2.3485  1.5125 -0.1712
18928TIP3   OH278198   2.927   3.336  13.744 -0.1798 -0.2940  0.9690
18928TIP3    H178199   2.931   3.311  13.652 -1.3731  1.3918  0.4208
18928TIP3    H278200   3.012   3.310  13.779  0.4785 -0.5426 -0.7142
18929TIP3   OH278201   6.156   3.868  13.668  0.5763 -0.0576 -0.9714
18929TIP3    H178202   6.237   3.818  13.679  0.6314  0.3767  0.9889
18929TIP3    H278203   6.181   3.943  13.614  1.4849  0.0086 -0.4878
18930TIP3   OH278204   0.974   1.113   2.193  0.0711  0.0745 -0.2065
18930TIP3    H178205   1.018   1.057   2.256 -0.1166  0.7507  0.5524
18930TIP3    H278206   0.926   1.053   2.137  0.4021 -0.5551  0.1666
18931TIP3   OH278207   3.649   5.513   3.959  0.1320 -0.1483  0.1502
18931TIP3    H178208   3.674   5.421   3.963  0.6810 -0.2592 -3.1528
18931TIP3    H278209   3.647   5.533   3.866  0.5614  3.3337  0.7621
18932TIP3   OH278210   5.267   5.235  11.805  0.3778 -0.5730  0.0011
18932TIP3    H178211   5.226   5.148  11.809  0.3368 -0.5220  2.0596
18932TIP3    H278212   5.360   5.218  11.791  0.3657 -0.9644  0.3739
18933TIP3   OH278213   3.924   6.023   4.033 -0.1140  0.1534  0.6022
18933TIP3    H178214   3.997   5.992   3.979 -1.1669  1.1814 -1.5311
18933TIP3    H278215   3.911   6.114   4.005 -3.1132 -0.4288 -0.1792
18934TIP3   OH278216   1.486   4.461   6.104 -0.2383  0.0391  0.3696
18934TIP3    H178217   1.551   4.436   6.038  0.9359  1.0919  1.0844
18934TIP3    H278218   1.461   4.379   6.145 -0.7581 -0.5987 -1.1498
18935TIP3   OH278219   3.601   3.677  15.278  0.1068 -0.4149  0.2457
18935TIP3    H178220   3.668   3.697  15.214 -1.0087  0.5515 -0.6640
18935TIP3    H278221   3.518   3.693  15.233 -0.7672 -1.8681  1.2306
18936TIP3   OH278222   1.244   1.392  14.102  0.4486 -0.7652  0.3273
18936TIP3    H178223   1.276   1.467  14.052 -0.2201 -1.0304 -0.5178
18936TIP3    H278224   1.323   1.348  14.134  0.8890 -0.7360 -0.7092
18937TIP3   OH278225   6.208   2.853   5.666  0.0315  0.0902 -0.2175
18937TIP3    H178226   6.196   2.796   5.590 -1.3911 -0.3641  0.3178
18937TIP3    H278227   6.237   2.794   5.736  4.0362  0.8851 -0.9935
18938TIP3   OH278228   6.627   6.102  10.966 -0.0929 -0.5458  0.5365
18938TIP3    H178229   6.660   6.119  11.054 -0.4302  0.6410  0.4591
18938TIP3    H278230   6.676   6.163  10.911  0.5023 -1.6461 -0.1919
18939TIP3   OH278231   2.229   1.321  15.269  0.0715 -0.3291 -0.3754
18939TIP3    H178232   2.174   1.385  15.226 -2.1181 -2.1652 -0.5124
18939TIP3    H278233   2.303   1.309  15.210 -1.6969 -1.0813 -2.5833
18940TIP3   OH278234   2.610   3.299  12.744 -0.2149 -0.3845 -0.0258
18940TIP3    H178235   2.624   3.207  12.768  2.6108 -0.6351 -2.1445
18940TIP3    H278236   2.630   3.347  12.825 -0.3150 -1.5331  0.7162
18941TIP3   OH278237   3.967   5.719  15.844 -0.7288  1.5191  0.6272
18941TIP3    H178238   4.004   5.684  15.763  0.8581 -1.6678  2.5102
18941TIP3    H278239   3.999   5.809  15.849  1.7387  0.8219 -0.8580
18942TIP3   OH278240   2.081   0.393   1.328 -0.2881 -0.0316 -0.1393
18942TIP3    H178241   2.160   0.342   1.349 -1.1654 -1.1944  0.4169
18942TIP3    H278242   2.028   0.333   1.275 -1.0952  0.5057  0.0545
18943TIP3   OH278243   4.717   1.726   1.510 -0.3666 -0.1077 -0.4115
18943TIP3    H178244   4.724   1.631   1.503 -0.0192 -0.1886  0.7598
18943TIP3    H278245   4.765   1.759   1.434  1.2868 -0.8642  0.2585
18944TIP3   OH278246   4.374   2.026   4.724  0.5285  0.0852  0.0018
18944TIP3    H178247   4.373   2.089   4.652  0.3141  0.1403  0.0496
18944TIP3    H278248   4.466   2.016   4.747  0.6380 -0.2355 -0.5426
18945TIP3   OH278249   3.849   4.273   5.589  0.0182 -0.2171  0.3827
18945TIP3    H178250   3.913   4.293   5.657 -1.6622  1.0234  1.6788
18945TIP3    H278251   3.850   4.349   5.531 -0.7346  0.1200  0.7948
18946TIP3   OH278252   1.793   1.954  12.016  0.4713  0.0755  0.1478
18946TIP3    H178253   1.771   1.894  12.087  3.1617 -0.3857  0.6956
18946TIP3    H278254   1.754   2.037  12.041 -1.9088 -0.9732  0.1984
18947TIP3   OH278255   3.720   0.680   2.052 -0.2831  0.8514 -0.4284
18947TIP3    H178256   3.742   0.728   2.131 -0.2620 -1.1481  0.8389
18947TIP3    H278257   3.657   0.613   2.080  1.2354 -1.2192 -1.6445
18948TIP3   OH278258   1.362   3.369  16.049 -0.2350  0.1652 -0.2205
18948TIP3    H178259   1.426   3.440  16.050  0.2480 -0.2586 -0.6113
18948TIP3    H278260   1.316   3.377  16.133  1.5231 -0.6134  0.8595
18949TIP3   OH278261   3.143   3.675  11.565 -0.1725 -0.1584  0.0776
18949TIP3    H178262   3.231   3.683  11.599 -0.9013  1.0767  1.7759
18949TIP3    H278263   3.093   3.633  11.635 -0.7358 -1.8658 -1.2658
18950TIP3   OH278264   5.387   1.894   2.556  0.7655 -0.0705 -0.2988
18950TIP3    H178265   5.446   1.901   2.631 -1.7268 -0.8503  1.8989
18950TIP3    H278266   5.440   1.854   2.488  2.6583 -1.1795  1.6937
18951TIP3   OH278267   4.380   1.293  17.147 -0.4463 -0.1543  0.5948
18951TIP3    H178268   4.307   1.298  17.208 -0.9781  0.3512 -0.0663
18951TIP3    H278269   4.342   1.316  17.062  0.6423  0.8950  0.3707
18952TIP3   OH278270   3.199   5.787  12.388  0.3771 -0.1186 -0.2201
18952TIP3    H178271   3.171   5.841  12.314  1.4986  1.2770  0.3531
18952TIP3    H278272   3.235   5.708  12.347  1.5512  0.8974 -1.2209
18953TIP3   OH278273   5.116   0.027  13.671  0.0764 -0.1661 -0.0080
18953TIP3    H178274   5.206   0.053  13.653 -0.3017  0.9619 -0.3422
18953TIP3    H278275   5.069   0.109  13.681 -0.6225 -0.7213  1.7088
18954TIP3   OH278276   1.667   4.395  15.599  0.5817 -0.6081  0.4319
18954TIP3    H178277   1.577   4.402  15.632  0.6680  0.8935  0.3953
18954TIP3    H278278   1.695   4.485  15.584  2.0635 -1.0575  0.3134
18955TIP3   OH278279   3.561   3.646  15.701  0.0925 -0.3414  0.4553
18955TIP3    H178280   3.572   3.685  15.615 -0.3243  0.3042  0.6876
18955TIP3    H278281   3.536   3.719  15.758 -2.3447 -1.1671  0.5581
18956TIP3   OH278282   1.011   2.787   4.728 -0.2564  0.3410 -0.0394
18956TIP3    H178283   1.072   2.795   4.801  0.0278  1.0721 -0.3464
18956TIP3    H278284   1.032   2.702   4.689 -0.1577  0.1123  0.5009
18957TIP3   OH278285   2.856   6.307   5.041 -0.2751 -0.6836 -0.0425
18957TIP3    H178286   2.907   6.329   5.119  1.0899 -0.6170 -0.9406
18957TIP3    H278287   2.857   6.387   4.988 -0.4343 -1.0102 -0.5417
18958TIP3   OH278288   0.768   2.138  11.836  0.3238  0.6407 -0.5037
18958TIP3    H178289   0.793   2.230  11.848 -2.0762  1.3980 -0.7488
18958TIP3    H278290   0.833   2.104  11.774  1.2034  2.1977 -0.5039
18959TIP3   OH278291   0.282   0.385   6.661  0.3105  0.5337 -0.5148
18959TIP3    H178292   0.268   0.430   6.744 -0.9694  0.0035 -0.4148
18959TIP3    H278293   0.364   0.337   6.673  0.1293  0.4560  0.4488
18960TIP3   OH278294   0.868   5.843   2.824 -0.3857 -0.5627  0.2325
18960TIP3    H178295   0.797   5.907   2.827 -0.6939 -0.9200  0.8013
18960TIP3    H278296   0.871   5.814   2.733 -0.7075 -0.2557  0.1218
18961TIP3   OH278297   0.335   0.417  14.195 -0.5181  0.1158  0.0901
18961TIP3    H178298   0.351   0.323  14.207 -1.7347 -0.1698 -0.2932
18961TIP3    H278299   0.411   0.449  14.147 -0.5564 -0.8918 -0.6793
18962TIP3   OH278300   1.909   2.969   2.754  0.4009 -0.6755 -0.3432
18962TIP3    H178301   1.874   2.885   2.784  1.3150 -0.3308  1.9538
18962TIP3    H278302   1.989   2.946   2.706  0.5295 -1.1532  0.0881
18963TIP3   OH278303   4.655   5.614   3.672  0.1801  0.3032 -0.1408
18963TIP3    H178304   4.707   5.694   3.677 -1.2541  1.3609 -1.1593
18963TIP3    H278305   4.637   5.604   3.578 -3.1626  1.1951  0.2839
18964TIP3   OH278306   2.301   3.645  15.433 -0.5778  0.5811 -0.2949
18964TIP3    H178307   2.219   3.606  15.402 -1.1826  1.4737  0.1552
18964TIP3    H278308   2.277   3.694  15.512  0.4091  0.7761 -0.0928
18965TIP3   OH278309   1.217   4.120   3.199  0.3286  0.1943 -0.2310
18965TIP3    H178310   1.169   4.052   3.246  0.5834  0.8197  0.9865
18965TIP3    H278311   1.307   4.090   3.199  0.1506 -0.3837 -1.4191
18966TIP3   OH278312   3.028   0.921   4.212 -0.1311 -0.3982  0.5906
18966TIP3    H178313   3.078   0.998   4.238 -1.6283  0.4389  1.0994
18966TIP3    H278314   2.947   0.926   4.262 -0.9549 -1.4416 -0.5521
18967TIP3   OH278315   0.038   3.653   1.908  0.0168  0.1295  0.4094
18967TIP3    H178316   0.060   3.740   1.872 -1.2247  0.2690 -0.0498
18967TIP3    H278317   0.072   3.656   1.997  0.5474  0.8582  0.2022
18968TIP3   OH278318   5.990   2.549   1.195 -0.2106 -0.9181  0.4241
18968TIP3    H178319   5.949   2.504   1.268  0.3576 -0.6511  0.9230
18968TIP3    H278320   5.922   2.555   1.128 -0.9755 -0.4672  1.2321
18969TIP3   OH278321   6.367   5.813   1.643  0.0429  0.1281 -0.3182
18969TIP3    H178322   6.301   5.746   1.663  0.9159 -0.6582 -0.0139
18969TIP3    H278323   6.367   5.818   1.547  0.8183 -1.2119 -0.4124
18970TIP3   OH278324   5.087   2.785  16.956  0.4793 -0.3171  0.3472
18970TIP3    H178325   5.136   2.807  17.035  3.2205  0.6175 -1.4696
18970TIP3    H278326   5.080   2.867  16.907  0.9356 -1.2651 -1.4162
18971TIP3   OH278327   0.974   6.428  12.215 -0.4086 -0.2026 -0.4905
18971TIP3    H178328   0.970   6.502  12.275 -3.6312 -0.5567 -0.0421
18971TIP3    H278329   0.937   6.461  12.133  1.4509 -0.4408 -1.4831
18972TIP3   OH278330   6.549   3.751   0.378  0.3007  0.6191  0.2026
18972TIP3    H178331   6.518   3.673   0.332  0.0489 -0.4720  2.1555
18972TIP3    H278332   6.476   3.776   0.434  0.8940  1.4406  0.6236
18973TIP3   OH278333   0.047   2.576  12.471  0.4458 -0.1030 -0.2902
18973TIP3    H178334   0.051   2.490  12.428  0.8182 -0.2066 -0.0646
18973TIP3    H278335   0.003   2.559  12.554  0.1622  0.0009 -0.4214
18974TIP3   OH278336   2.176   4.376   3.689  0.0850  0.0797  0.2008
18974TIP3    H178337   2.213   4.362   3.602  1.9909 -1.2810  1.1474
18974TIP3    H278338   2.166   4.471   3.696  1.3951  0.3367 -0.9401
18975TIP3   OH278339   1.896   4.936  14.025 -0.1040  0.2937 -0.0626
18975TIP3    H178340   1.921   5.027  14.013  0.2320  0.1857 -0.1995
18975TIP3    H278341   1.841   4.936  14.103  0.1572  0.5656  0.1243
18976TIP3   OH278342   1.057   2.535  14.730  0.1344 -0.3162  0.0042
18976TIP3    H178343   1.100   2.606  14.777 -1.9434  0.9964  0.0560
18976TIP3    H278344   0.982   2.512  14.785  0.5465 -2.3266 -0.2089
18977TIP3   OH278345   5.487   4.683  14.392 -0.2018  0.4553  0.0136
18977TIP3    H178346   5.509   4.657  14.303  1.5310  2.4160 -0.2022
18977TIP3    H278347   5.396   4.712  14.387  0.0515  1.0851 -1.2689
18978TIP3   OH278348   3.237   5.738  14.402 -0.4666  0.2356  0.3685
18978TIP3    H178349   3.174   5.803  14.371 -0.8471  0.2408  1.1271
18978TIP3    H278350   3.184   5.677  14.454 -0.0331 -0.4131  0.0560
18979TIP3   OH278351   1.637   3.858  11.632 -0.0119 -0.1087 -0.5470
18979TIP3    H178352   1.725   3.872  11.668 -0.0287  0.1248 -0.5924
18979TIP3    H278353   1.636   3.910  11.551 -0.3361  0.2401 -0.3243
18980TIP3   OH278354   5.859   2.011  14.515 -0.4248 -0.1866 -0.0761
18980TIP3    H178355   5.803   1.933  14.521  0.2725 -1.0368 -2.9096
18980TIP3    H278356   5.829   2.055  14.435 -1.1055  2.8128  1.6653
18981TIP3   OH278357   4.454   1.145   1.767 -0.3121 -0.1289 -0.6869
18981TIP3    H178358   4.477   1.183   1.851 -0.2543  0.0117 -0.7661
18981TIP3    H278359   4.373   1.190   1.741 -0.1065  0.1231 -0.8990
18982TIP3   OH278360   1.678   2.724  11.168  0.5122 -0.2650  0.4752
18982TIP3    H178361   1.736   2.770  11.229 -0.1610 -0.7580  1.5220
18982TIP3    H278362   1.610   2.788  11.148  1.5774  0.4475 -1.0592
18983TIP3   OH278363   4.982   5.429  15.492  0.0115 -0.2467 -0.2280
18983TIP3    H178364   4.925   5.464  15.561 -1.0520  0.2498 -1.3230
18983TIP3    H278365   4.937   5.350  15.462 -0.9219  0.9480 -2.1151
18984TIP3   OH278366   0.515   6.595   1.345 -0.2980 -0.1800 -1.0383
18984TIP3    H178367   0.553   6.551   1.421 -1.7689  0.0104 -0.1598
18984TIP3    H278368   0.536   6.687   1.358  0.0789 -0.2337 -1.2512
18985TIP3   OH278369   5.688   0.087  12.851 -0.2385 -0.5012 -0.5787
18985TIP3    H178370   5.611   0.119  12.898  0.4180  0.4356 -0.1067
18985TIP3    H278371   5.709   0.004  12.893  0.2029  0.2138  0.6379
18986TIP3   OH278372   1.934   5.602  12.060  0.3508 -0.2433  0.6893
18986TIP3    H178373   2.030   5.599  12.063  0.3656  0.5720  2.2812
18986TIP3    H278374   1.912   5.687  12.099 -1.0543 -1.4698  2.7533
18987TIP3   OH278375   0.527   6.313   5.387  0.6226  0.0576 -0.7854
18987TIP3    H178376   0.475   6.387   5.418  0.0093  0.2140 -2.1142
18987TIP3    H278377   0.490   6.236   5.431 -0.0728  0.3002 -0.9379
18988TIP3   OH278378   3.249   5.028  14.219  0.1641  0.2044  0.3758
18988TIP3    H178379   3.332   4.982  14.234 -0.3671 -0.5808  1.0263
18988TIP3    H278380   3.265   5.081  14.141  1.0614 -0.4696  0.0758
18989TIP3   OH278381   5.884   4.562   5.506  0.2329 -0.1443 -0.3056
18989TIP3    H178382   5.834   4.596   5.580 -0.2995  1.7073 -1.4352
18989TIP3    H278383   5.924   4.640   5.467  0.8877 -1.1260 -1.6856
18990TIP3   OH278384   3.850   4.459  11.452  0.3080 -0.0282 -0.0407
18990TIP3    H178385   3.806   4.388  11.499  1.6521  0.7603  2.6290
18990TIP3    H278386   3.934   4.421  11.425  0.4231  0.1332  0.0909
18991TIP3   OH278387   4.021   0.292   4.856 -1.0726  0.5071 -0.5115
18991TIP3    H178388   3.951   0.356   4.872  0.2903  1.7829  0.6936
18991TIP3    H278389   3.987   0.210   4.894 -3.0473  0.2864 -2.5066
18992TIP3   OH278390   0.034   4.261   5.337  0.8157  0.5480 -0.2007
18992TIP3    H178391   0.025   4.229   5.427  0.3756 -2.4155 -1.2165
18992TIP3    H278392   0.054   4.354   5.347 -0.9199  0.7276  2.9268
18993TIP3   OH278393   0.856   1.694   3.322  0.2757  0.0098  0.0146
18993TIP3    H178394   0.910   1.772   3.335  0.4157  0.0293 -0.6589
18993TIP3    H278395   0.830   1.668   3.410  0.8222  0.3969  0.2956
18994TIP3   OH278396   4.882   6.527  11.243 -0.1824  0.3485  0.1839
18994TIP3    H178397   4.901   6.475  11.164 -0.7416  1.8344 -0.9764
18994TIP3    H278398   4.800   6.491  11.276  1.2780 -1.9425  1.6027
18995TIP3   OH278399   1.032   6.271   4.520  0.2517  0.1185 -0.2274
18995TIP3    H178400   1.097   6.341   4.506  0.6788 -0.3142 -0.4505
18995TIP3    H278401   0.948   6.316   4.520  0.5541  0.6967  0.1075
18996TIP3   OH278402   4.279   3.308  13.291  0.4729  0.6507 -0.5920
18996TIP3    H178403   4.339   3.381  13.281 -0.6854  1.5439 -1.3545
18996TIP3    H278404   4.266   3.275  13.202  1.3377 -0.7994 -0.2034
18997TIP3   OH278405   1.829   1.289  15.158 -0.2156  0.2602  0.9926
18997TIP3    H178406   1.838   1.194  15.169  0.0691  0.0226 -0.8817
18997TIP3    H278407   1.759   1.314  15.219 -2.4050 -1.6681 -0.5340
18998TIP3   OH278408   5.410   1.127  11.164 -0.1448 -0.1494 -0.1838
18998TIP3    H178409   5.334   1.100  11.215 -2.4738  1.9251 -2.3630
18998TIP3    H278410   5.434   1.049  11.114 -0.5800 -0.9016  0.7421
18999TIP3   OH278411   4.687   4.791   4.562 -0.0159  0.3844  0.5372
18999TIP3    H178412   4.618   4.731   4.592  0.5360 -0.7660 -0.4227
18999TIP3    H278413   4.766   4.738   4.558  0.4519  1.1117 -0.5539
19000TIP3   OH278414   6.663   4.935   4.126  0.3048  0.4138 -0.1316
19000TIP3    H178415   6.700   4.946   4.214 -0.5785 -0.9965  0.4542
19000TIP3    H278416   6.608   5.012   4.113  0.5623  0.7122  0.4947
19001TIP3   OH278417   2.592   5.783  12.066  0.0004 -0.7122  0.5421
19001TIP3    H178418   2.552   5.758  12.149 -1.3449 -1.2613 -0.2475
19001TIP3    H278419   2.647   5.859  12.088  1.8657 -2.4596  2.4365
19002TIP3   OH278420   5.649   3.795  12.703  0.1111 -0.2162  0.2248
19002TIP3    H178421   5.728   3.790  12.649  0.6705 -1.3844  1.0901
19002TIP3    H278422   5.655   3.718  12.760 -0.7873  0.6048  1.4792
19003TIP3   OH278423   6.508   3.581  16.396  0.4727 -0.2303 -0.6732
19003TIP3    H178424   6.536   3.514  16.333  0.3210  0.5933 -1.6443
19003TIP3    H278425   6.488   3.658  16.342  1.4587  0.8881  0.4649
19004TIP3   OH278426   4.931   3.728   5.387 -0.2781  0.2229  0.3199
19004TIP3    H178427   4.994   3.731   5.459  1.3087  0.2002 -0.9924
19004TIP3    H278428   4.976   3.772   5.315 -2.3481  1.4507 -0.2995
19005TIP3   OH278429   4.343   0.133  17.141 -0.1242  0.0547  0.5222
19005TIP3    H178430   4.423   0.176  17.113  0.1332 -0.0858  1.0240
19005TIP3    H278431   4.276   0.161  17.078  0.4684 -0.3928 -0.3277
19006TIP3   OH278432   0.771   6.613   2.768  0.4312  0.2106 -0.1306
19006TIP3    H178433   0.814   6.633   2.684  1.8180 -2.1872 -0.0610
19006TIP3    H278434   0.680   6.597   2.745  0.4561  1.0870 -0.9237
19007TIP3   OH278435   4.164   5.335   1.037 -0.2924  0.7673  0.5353
19007TIP3    H178436   4.181   5.428   1.056  0.7261  0.7148 -0.0095
19007TIP3    H278437   4.108   5.336   0.960  0.2520  0.9311  0.1372
19008TIP3   OH278438   0.532   4.047  13.541 -0.1655 -0.0325  0.0027
19008TIP3    H178439   0.501   4.075  13.627  0.7857  0.4658  0.1888
19008TIP3    H278440   0.626   4.038  13.551 -0.0574 -0.0571 -0.9652
19009TIP3   OH278441   2.674   3.112  11.704  0.3815  0.2266 -0.0516
19009TIP3    H178442   2.691   3.075  11.790  2.4723  0.1447 -0.4387
19009TIP3    H278443   2.721   3.195  11.703 -1.8899  1.5721 -0.2014
19010TIP3   OH278444   1.751   3.566   5.695  0.4698  0.2701 -0.6349
19010TIP3    H178445   1.818   3.516   5.647  0.4652  1.9939 -2.5697
19010TIP3    H278446   1.708   3.618   5.628 -1.5185  0.6791  0.8755
19011TIP3   OH278447   4.431   1.047   5.671  0.1690 -0.3706 -0.2811
19011TIP3    H178448   4.409   0.981   5.736 -0.9195 -0.3698 -0.6343
19011TIP3    H278449   4.405   1.130   5.711 -1.6165 -0.4650 -1.1362
19012TIP3   OH278450   5.312   1.538   3.439  0.0632 -0.2416 -0.2399
19012TIP3    H178451   5.235   1.568   3.486 -0.4607  0.0902 -1.2846
19012TIP3    H278452   5.375   1.517   3.507 -0.3243  1.1640  0.5956
19013TIP3   OH278453   4.024   5.089   6.101  0.3185 -0.1650  0.2417
19013TIP3    H178454   4.106   5.115   6.143  1.1518  1.2160 -2.0675
19013TIP3    H278455   4.034   4.996   6.082  1.0786 -0.1518  0.5690
19014TIP3   OH278456   3.736   3.584   6.225 -0.2804  0.2610 -0.3681
19014TIP3    H178457   3.808   3.573   6.163  0.0153  0.7841 -0.1226
19014TIP3    H278458   3.683   3.654   6.187  0.0229  0.7357  0.0770
19015TIP3   OH278459   5.882   0.508   4.175 -0.4009  0.1613 -0.1483
19015TIP3    H178460   5.829   0.506   4.095  0.8273  1.6405 -1.0496
19015TIP3    H278461   5.944   0.436   4.164  1.3997  1.8292 -1.7898
19016TIP3   OH278462   5.917   2.332   0.911  0.2592 -0.0169 -0.3100
19016TIP3    H178463   5.846   2.325   0.849 -0.3813 -0.2689  0.4322
19016TIP3    H278464   5.892   2.403   0.969 -1.3061 -2.4622  2.2918
19017TIP3   OH278465   3.459   0.023   6.157  0.2005 -0.1713  0.4628
19017TIP3    H178466   3.493   0.049   6.243  0.9784  1.3314 -0.2612
19017TIP3    H278467   3.537  -0.007   6.110 -0.2909 -1.4076  0.3913
19018TIP3   OH278468   4.365   0.967   2.080  0.3001 -0.3341 -0.2849
19018TIP3    H178469   4.346   0.874   2.070 -1.5553 -0.0473  0.1439
19018TIP3    H278470   4.360   0.982   2.175  0.6636  0.1810 -0.3451
19019TIP3   OH278471   5.890   2.977   0.887 -0.7458 -0.1799 -0.5884
19019TIP3    H178472   5.847   3.020   0.814 -0.9133  0.5142 -0.0999
19019TIP3    H278473   5.831   2.990   0.961 -0.4035 -0.5297 -0.2463
19020TIP3   OH278474   5.807   2.002  12.737  0.0025 -0.4381  0.1753
19020TIP3    H178475   5.801   2.043  12.824 -4.1059  0.8314 -0.4698
19020TIP3    H278476   5.772   1.914  12.750  0.1739 -0.5423 -0.0625
19021TIP3   OH278477   4.364   6.142   0.947  0.1076 -0.3192 -0.2421
19021TIP3    H178478   4.380   6.055   0.909 -0.3006 -0.9851  1.0430
19021TIP3    H278479   4.443   6.192   0.927  1.2300 -1.6253  0.6970
19022TIP3   OH278480   4.455   6.360   4.357  0.2913 -0.5557  0.4486
19022TIP3    H178481   4.462   6.309   4.437  1.1541 -0.3757  0.4886
19022TIP3    H278482   4.540   6.402   4.346 -0.1698  0.3143  0.0374
19023TIP3   OH278483   5.387   2.923  14.113 -0.0518 -0.4877 -0.1777
19023TIP3    H178484   5.421   2.923  14.024 -0.4765 -0.3135 -0.3395
19023TIP3    H278485   5.448   2.867  14.162 -0.8979 -2.1867 -0.9853
19024TIP3   OH278486   2.894   6.171  10.867 -0.5416 -0.1233 -0.7605
19024TIP3    H178487   2.881   6.077  10.855  1.9556 -0.6401 -0.0364
19024TIP3    H278488   2.817   6.200  10.917  0.3059 -2.5678  2.2811
19025TIP3   OH278489   6.710   3.088  15.351 -0.3342 -0.1830  0.3672
19025TIP3    H178490   6.637   3.150  15.353 -0.3112 -0.1417 -0.0917
19025TIP3    H278491   6.692   3.028  15.424  0.2041  0.9945  1.5008
19026TIP3   OH278492   5.793   1.966   2.709  0.5002  0.4336  0.4259
19026TIP3    H178493   5.833   1.970   2.795  0.8028 -1.3333  0.4015
19026TIP3    H278494   5.699   1.976   2.725  0.6420  1.1801  0.8311
19027TIP3   OH278495   1.673   1.665  17.086  0.2045  0.2174 -0.2584
19027TIP3    H178496   1.720   1.743  17.114  1.4235 -1.2773  2.3146
19027TIP3    H278497   1.742   1.603  17.062 -0.5309 -1.0286  0.6862
19028TIP3   OH278498   3.108   5.590   6.917  0.4271  0.8553 -0.0444
19028TIP3    H178499   3.115   5.512   6.862  0.1325  0.7257  0.1066
19028TIP3    H278500   3.192   5.636   6.903  0.4047  0.7615 -0.5070
19029TIP3   OH278501   2.464   3.194   5.257 -0.1979 -0.0450  0.7362
19029TIP3    H178502   2.483   3.106   5.225 -2.0571  0.1294 -1.0377
19029TIP3    H278503   2.369   3.196   5.268 -0.0667  1.3682  2.0152
19030TIP3   OH278504   5.749   1.079   4.861 -0.2103 -0.6054  0.1612
19030TIP3    H178505   5.768   1.170   4.882  2.2905 -0.9867 -0.1688
19030TIP3    H278506   5.676   1.056   4.919  1.5886  0.4840  3.0740
19031TIP3   OH278507   1.574   0.848  12.202 -0.6742 -0.3839  0.1577
19031TIP3    H178508   1.494   0.828  12.250 -1.0298 -0.0598 -0.2894
19031TIP3    H278509   1.564   0.939  12.174 -1.5436 -1.2177 -2.5255
19032TIP3   OH278510   2.825   1.521  12.945 -0.3939 -0.6415 -0.4990
19032TIP3    H178511   2.822   1.612  12.917  1.7292 -0.7919 -1.4108
19032TIP3    H278512   2.888   1.480  12.886 -0.5486 -2.4713  0.5321
19033TIP3   OH278513   1.417   5.408   0.194 -0.2268 -0.2527  0.3629
19033TIP3    H178514   1.338   5.458   0.180 -0.2564 -0.0161  1.2723
19033TIP3    H278515   1.393   5.343   0.260 -0.2195 -1.5438 -0.8651
19034TIP3   OH278516   0.520   5.248   3.168  0.2177 -0.1136 -0.0406
19034TIP3    H178517   0.593   5.193   3.142 -0.2585 -1.0812  0.6351
19034TIP3    H278518   0.554   5.338   3.159  0.7216 -0.4439 -1.9682
19035TIP3   OH278519   5.013   0.271  10.985  0.0678  0.0373 -0.4776
19035TIP3    H178520   5.091   0.323  10.967  0.2481  0.3567  1.0884
19035TIP3    H278521   4.998   0.281  11.080 -0.2420 -2.2748 -0.2221
19036TIP3   OH278522   2.171   2.775  15.924  0.3462  0.9160 -0.0659
19036TIP3    H178523   2.198   2.716  15.995  1.0836 -0.4000 -1.4007
19036TIP3    H278524   2.176   2.722  15.845 -0.6372  2.3073 -1.1046
19037TIP3   OH278525   5.732   2.058  11.638  0.6459 -0.0957 -0.2038
19037TIP3    H178526   5.712   2.066  11.545 -1.7261 -0.4408  0.2022
19037TIP3    H278527   5.802   1.994  11.642  0.0233 -0.9265 -1.7142
19038TIP3   OH278528   4.651   3.643   3.209 -0.1974  0.0753 -0.3718
19038TIP3    H178529   4.588   3.581   3.247 -0.8038  0.1942 -1.1625
19038TIP3    H278530   4.736   3.606   3.230 -0.5381 -0.4885  0.0615
19039TIP3   OH278531   2.475   1.240   2.677  0.8300 -0.0352  0.1673
19039TIP3    H178532   2.420   1.279   2.609 -0.2758  1.1906  1.6860
19039TIP3    H278533   2.559   1.225   2.635  0.2965  1.0222 -1.3552
19040TIP3   OH278534   5.257   4.213  11.460 -0.4226 -0.1457  0.2111
19040TIP3    H178535   5.291   4.271  11.392 -1.0468 -1.2358 -1.0734
19040TIP3    H278536   5.165   4.203  11.439 -0.2114 -2.0550  0.0466
19041TIP3   OH278537   1.901   1.464   1.218 -0.0612 -0.2654 -0.1768
19041TIP3    H178538   1.940   1.519   1.150  0.9420  0.1516  0.7150
19041TIP3    H278539   1.938   1.496   1.300 -1.2618 -0.7484  0.5849
19042TIP3   OH278540   3.512   2.773  14.784  0.6502 -0.0209 -0.3127
19042TIP3    H178541   3.547   2.834  14.719 -0.5057  0.7343 -0.2637
19042TIP3    H278542   3.505   2.826  14.864 -0.4954 -0.1610 -0.3034
19043TIP3   OH278543   1.565   3.562  12.340 -0.4627 -0.1322  0.4546
19043TIP3    H178544   1.650   3.581  12.379 -0.9787 -0.7257  1.9428
19043TIP3    H278545   1.567   3.605  12.255  0.7257  1.1970  1.1248
19044TIP3   OH278546   1.584   0.522   0.006  0.4147  0.5281  0.0099
19044TIP3    H178547   1.679   0.510   0.015  0.3916 -0.5549 -0.9896
19044TIP3    H278548   1.559   0.463  -0.064 -1.2991 -0.6059  1.4850
19045TIP3   OH278549   5.218   6.320  14.367 -0.6816 -0.0229 -1.0464
19045TIP3    H178550   5.210   6.410  14.398 -2.0854  0.2960 -2.2247
19045TIP3    H278551   5.272   6.276  14.433 -0.8028  1.4290  0.0539
19046TIP3   OH278552   6.504   3.936   2.482  0.4884  0.6418  0.5141
19046TIP3    H178553   6.417   3.913   2.449  1.2513 -0.4121 -0.8571
19046TIP3    H278554   6.488   3.972   2.569 -1.2838  0.1434  0.4295
19047TIP3   OH278555   5.952   4.032   1.888 -0.2224  0.1391 -0.1731
19047TIP3    H178556   6.017   4.078   1.835  0.9883  0.0244  1.1636
19047TIP3    H278557   5.981   4.045   1.978 -2.3361  0.5149  0.5101
19048TIP3   OH278558   1.349   2.140  12.035  0.6177 -0.0414  0.1139
19048TIP3    H178559   1.384   2.226  12.059  2.0468 -0.7970  0.8006
19048TIP3    H278560   1.414   2.103  11.975  0.3878 -0.9731  0.4335
19049TIP3   OH278561   0.126   5.087   4.899 -0.2687 -0.3108  0.2746
19049TIP3    H178562   0.106   5.008   4.949  1.8709 -0.1826  1.4285
19049TIP3    H278563   0.179   5.055   4.825 -0.4641 -0.0841  0.0329
19050TIP3   OH278564   5.929   0.450   4.887 -0.1309  0.5770  0.4090
19050TIP3    H178565   6.003   0.509   4.872  0.4271 -0.5570 -1.7714
19050TIP3    H278566   5.859   0.485   4.831 -0.2098 -0.1202  0.0673
19051TIP3   OH278567   5.212   4.151  16.864  0.2468  0.2047  0.5338
19051TIP3    H178568   5.225   4.246  16.870 -0.7345  0.5413 -1.6229
19051TIP3    H278569   5.121   4.138  16.889  0.3628 -0.1663  0.7679
19052TIP3   OH278570   0.652   1.562  13.968  0.1229  1.1287 -0.0719
19052TIP3    H178571   0.693   1.481  13.999 -0.4116  1.3362  1.2588
19052TIP3    H278572   0.610   1.538  13.886  0.8251  0.3079 -0.2051
19053TIP3   OH278573   2.511   2.304  14.804  0.2165 -0.0251  0.6378
19053TIP3    H178574   2.518   2.358  14.725 -0.7264  0.8015  1.1035
19053TIP3    H278575   2.532   2.363  14.876  0.2428 -0.5626  1.0790
19054TIP3   OH278576   2.586   1.349  12.958 -0.4346  0.0795  0.1280
19054TIP3    H178577   2.651   1.419  12.955 -2.3458  1.9912  0.6019
19054TIP3    H278578   2.566   1.331  12.866  1.0236 -0.8379 -0.0375
19055TIP3   OH278579   5.740   1.859  15.654 -0.1265 -0.0853  0.0234
19055TIP3    H178580   5.790   1.912  15.591  1.3102 -2.6523 -1.1515
19055TIP3    H278581   5.797   1.785  15.673 -1.8450 -0.9941  1.9825
19056TIP3   OH278582   4.346   4.196   1.431  0.0767  0.5270 -0.1835
19056TIP3    H178583   4.360   4.166   1.341 -2.0825 -1.2883 -0.0134
19056TIP3    H278584   4.252   4.188   1.444  0.2608  1.4044  2.0393
19057TIP3   OH278585   0.739   1.703  11.097 -0.0924 -0.2252  0.9745
19057TIP3    H178586   0.798   1.776  11.077 -1.1439  0.2761 -0.4253
19057TIP3    H278587   0.703   1.725  11.182 -0.1510  0.7378  0.7163
19058TIP3   OH278588   3.809   0.276   6.322 -0.1279 -0.3319  0.6736
19058TIP3    H178589   3.790   0.294   6.414 -0.4986  0.0994  0.5193
19058TIP3    H278590   3.816   0.180   6.317  0.2750 -0.3359  1.2153
19059TIP3   OH278591   1.422   3.498   2.706 -0.1251 -0.3758 -0.1122
19059TIP3    H178592   1.348   3.538   2.752 -1.8663 -1.2157 -1.9800
19059TIP3    H278593   1.462   3.570   2.658  0.3553  0.0986  0.9649
19060TIP3   OH278594   6.436   3.662  12.182 -0.1665  0.2148 -0.2163
19060TIP3    H178595   6.349   3.623  12.175  0.0187  0.0455 -1.8274
19060TIP3    H278596   6.437   3.701  12.270 -0.6634 -2.6214  1.1749
19061TIP3   OH278597   4.768   5.792  14.163 -0.1330 -0.1070  0.2986
19061TIP3    H178598   4.768   5.723  14.229 -0.6895 -0.4679 -0.0731
19061TIP3    H278599   4.720   5.864  14.205 -3.3056 -1.4314 -0.7956
19062TIP3   OH278600   5.105   1.724   4.225  0.0579 -0.5234  0.7499
19062TIP3    H178601   5.192   1.756   4.205 -0.2374 -0.6675 -0.8545
19062TIP3    H278602   5.112   1.692   4.315  2.2042 -2.3658  0.0209
19063TIP3   OH278603   2.137   4.545  12.787  0.0495 -0.5847  0.6294
19063TIP3    H178604   2.068   4.558  12.852  1.3505  0.6552  1.8370
19063TIP3    H278605   2.217   4.574  12.831  1.1868 -0.9510 -1.0956
19064TIP3   OH278606   6.696   4.532  11.868  0.3090 -0.2368 -0.0371
19064TIP3    H178607   6.601   4.520  11.861  0.0578  0.0284  2.2466
19064TIP3    H278608   6.733   4.450  11.836 -0.7300 -0.7163 -0.0572
19065TIP3   OH278609   5.114   0.931  12.500  0.5013  0.0197  0.2921
19065TIP3    H178610   5.136   0.970  12.585  2.0871  0.0884 -0.1219
19065TIP3    H278611   5.198   0.921  12.456 -0.3023  0.0204 -1.3024
19066TIP3   OH278612   0.057   4.018   2.952  0.0018  0.1928  0.1802
19066TIP3    H178613   0.060   4.027   3.047 -1.1577 -0.3393  0.2891
19066TIP3    H278614   0.028   3.928   2.937 -1.7248  0.8351 -0.6352
19067TIP3   OH278615   2.749   5.876  11.556  0.0385 -0.4942 -0.0631
19067TIP3    H178616   2.747   5.895  11.463 -0.9482  0.8222  0.2051
19067TIP3    H278617   2.815   5.935  11.592  0.2752 -0.8556  0.1016
19068TIP3   OH278618   6.204   6.105   3.092 -0.0183  0.2599  0.5323
19068TIP3    H178619   6.247   6.026   3.060 -1.3537  0.6380 -2.5665
19068TIP3    H278620   6.275   6.167   3.107  0.7911 -0.1510 -1.3178
19069TIP3   OH278621   0.205   5.866  15.830 -1.0708  0.0868  0.6208
19069TIP3    H178622   0.176   5.885  15.741 -0.3158 -0.7749  0.1734
19069TIP3    H278623   0.262   5.789  15.821  0.4165  1.0092  1.5883
19070TIP3   OH278624   0.503   3.776   3.395 -0.5724 -0.1394 -0.1754
19070TIP3    H178625   0.487   3.683   3.410  0.3618 -0.0321  1.9024
19070TIP3    H278626   0.419   3.818   3.414 -0.1680 -0.3117  2.4677
19071TIP3   OH278627   2.573   5.176   1.325 -0.0846  0.4139  0.5534
19071TIP3    H178628   2.667   5.169   1.307 -0.0337 -0.9300  1.2579
19071TIP3    H278629   2.549   5.091   1.361 -1.2998  1.1826  1.6427
19072TIP3   OH278630   4.467   0.626  13.569 -0.1822  0.1386  0.8383
19072TIP3    H178631   4.462   0.719  13.549 -1.4186  0.1003  0.9055
19072TIP3    H278632   4.503   0.586  13.490  1.7404  0.8151  1.3200
19073TIP3   OH278633   4.847   6.241  16.573 -0.7415 -0.0681  0.4679
19073TIP3    H178634   4.867   6.302  16.502 -0.7443 -0.3874  0.1940
19073TIP3    H278635   4.762   6.203  16.549 -0.8028 -0.0852  0.7053
19074TIP3   OH278636   0.196   1.231   3.426  0.1477  0.5540 -0.1060
19074TIP3    H178637   0.191   1.264   3.336 -0.8853  0.0546 -0.2571
19074TIP3    H278638   0.109   1.195   3.442 -0.1234  1.8664  1.5957
19075TIP3   OH278639   0.285   3.745  17.214  0.3918  0.4685 -0.3107
19075TIP3    H178640   0.322   3.776  17.132 -0.7160  1.2201 -0.5506
19075TIP3    H278641   0.206   3.697  17.188 -1.1497  2.4667  0.3664
19076TIP3   OH278642   4.598   5.696   4.092  0.1179 -0.1683  0.4038
19076TIP3    H178643   4.682   5.650   4.099  0.4490  0.4388  0.5129
19076TIP3    H278644   4.545   5.641   4.035  0.6835 -0.4231  0.1172
19077TIP3   OH278645   6.183   0.391  16.554  0.3477 -0.5219  0.1808
19077TIP3    H178646   6.130   0.470  16.542  0.5733 -0.0852  1.8518
19077TIP3    H278647   6.119   0.320  16.551  0.0609 -0.2476 -0.7004
19078TIP3   OH278648   2.504   1.259  14.318  0.4611  0.1565  0.1323
19078TIP3    H178649   2.433   1.286  14.375 -1.0611 -2.0331 -0.5940
19078TIP3    H278650   2.461   1.219  14.242  2.4293 -1.1918 -0.3711
19079TIP3   OH278651   4.340   2.614  12.260  0.0809  0.2238 -0.3614
19079TIP3    H178652   4.330   2.704  12.228  1.0840  0.6232  0.3867
19079TIP3    H278653   4.394   2.571  12.194  0.3609  0.4340 -0.2709
19080TIP3   OH278654   5.816   2.160   4.966 -0.0988  0.0450  0.5405
19080TIP3    H178655   5.798   2.112   4.885  0.5001  1.4909 -0.4780
19080TIP3    H278656   5.730   2.167   5.008 -0.7126  0.6202 -0.7368
19081TIP3   OH278657   0.422   1.691   0.455 -0.2570  0.4602  0.2103
19081TIP3    H178658   0.404   1.731   0.540  1.0015  0.8842  0.2991
19081TIP3    H278659   0.436   1.765   0.395  2.7063  0.2503  0.5134
19082TIP3   OH278660   6.533   3.578   1.963  0.2676  0.3097 -0.0575
19082TIP3    H178661   6.566   3.530   2.039 -0.1988 -0.9498 -0.6161
19082TIP3    H278662   6.606   3.576   1.901 -0.0877 -0.6066 -0.4707
19083TIP3   OH278663   5.175   0.966  10.407  0.2748 -0.2274 -0.4348
19083TIP3    H178664   5.166   0.950  10.313  1.1247 -1.4227 -0.3276
19083TIP3    H278665   5.093   0.935  10.444  0.1083 -0.1435 -0.7230
19084TIP3   OH278666   6.026   5.924  12.117  0.1501 -0.0420 -0.7918
19084TIP3    H178667   5.978   5.994  12.161  1.1311  0.1813 -0.0399
19084TIP3    H278668   5.975   5.845  12.134  1.4350 -0.3318  2.4761
19085TIP3   OH278669   5.784   0.862  16.462 -0.1151  0.0667 -0.0402
19085TIP3    H178670   5.767   0.858  16.556 -1.9255 -2.4825 -0.3819
19085TIP3    H278671   5.733   0.938  16.432 -0.2698  0.3421  0.8923
19086TIP3   OH278672   4.153   4.146   2.969 -0.6318  0.7461 -0.1845
19086TIP3    H178673   4.126   4.226   2.925  0.4632  0.0894 -2.1718
19086TIP3    H278674   4.142   4.077   2.903  2.2873 -0.0973  0.0498
19087TIP3   OH278675   2.713   6.571  14.951  0.7956  0.3666  0.2077
19087TIP3    H178676   2.784   6.601  15.009  0.8703  2.3759 -0.8294
19087TIP3    H278677   2.650   6.642  14.952  0.6057  0.2850 -1.8267
19088TIP3   OH278678   6.618   5.406   5.875  0.4460  0.8028 -0.0909
19088TIP3    H178679   6.630   5.501   5.887  1.3295  0.9375 -1.7710
19088TIP3    H278680   6.540   5.399   5.820  0.3471  0.5436  0.0816
19089TIP3   OH278681   5.614   3.300   4.696  0.2220  0.4164 -0.0774
19089TIP3    H178682   5.676   3.267   4.630 -0.8326 -2.5401  0.2719
19089TIP3    H278683   5.557   3.359   4.647  1.4224  0.8043 -1.0714
19090TIP3   OH278684   6.410   2.737   3.544  0.4609  0.3990  0.2538
19090TIP3    H178685   6.442   2.810   3.491 -0.6634  1.9332  1.5769
19090TIP3    H278686   6.451   2.751   3.630  0.6043 -0.8275  0.3995
19091TIP3   OH278687   3.557   4.300   0.142  0.1295  0.0890 -0.0460
19091TIP3    H178688   3.500   4.344   0.080 -0.1214 -0.4503 -0.2082
19091TIP3    H278689   3.558   4.209   0.113  0.8257  0.0326  0.1410
19092TIP3   OH278690   1.275   0.939  12.832  0.6541 -0.0568 -0.1635
19092TIP3    H178691   1.291   0.851  12.867  1.6843  0.2665  0.2314
19092TIP3    H278692   1.287   0.930  12.738 -0.7860 -0.6545 -0.3019
19093TIP3   OH278693   0.940   5.050  16.005 -0.1190  0.8288 -0.2201
19093TIP3    H178694   0.981   5.012  15.927 -1.7659  0.9551 -1.2020
19093TIP3    H278695   0.911   4.974  16.056  0.2040  0.7505 -0.1524
19094TIP3   OH278696   5.277   5.646  16.966 -0.4742  0.1278 -0.6021
19094TIP3    H178697   5.201   5.674  17.017 -0.8603  0.1489 -1.1839
19094TIP3    H278698   5.350   5.695  17.005 -0.8494  0.5582 -0.4216
19095TIP3   OH278699   1.391   3.786   0.130  0.1582 -0.4835 -0.0463
19095TIP3    H178700   1.367   3.761   0.041 -1.8429 -1.3108  0.6805
19095TIP3    H278701   1.355   3.874   0.141  2.5585  0.6976 -0.8042
19096TIP3   OH278702   1.109   0.754   4.225 -0.0773 -0.0889 -0.1280
19096TIP3    H178703   1.015   0.741   4.210 -0.1111 -2.7536  1.7078
19096TIP3    H278704   1.114   0.831   4.281 -1.1964 -0.1647  0.0907
19097TIP3   OH278705   1.033   4.157   6.008 -0.1342  0.4926  0.0490
19097TIP3    H178706   0.988   4.153   5.923 -0.0504  1.4675 -0.0540
19097TIP3    H278707   1.025   4.069   6.044 -0.6487  0.2133 -0.7312
19098TIP3   OH278708   3.630   6.651   5.989 -0.1318 -0.1604  0.1032
19098TIP3    H178709   3.647   6.557   5.980 -1.5244 -0.4545  0.3877
19098TIP3    H278710   3.657   6.688   5.906  0.3519 -0.8181 -0.0455
19099TIP3   OH278711   3.414   6.519  17.001 -0.0554 -0.4353  0.3769
19099TIP3    H178712   3.495   6.476  16.975  1.1696  2.2293 -0.5471
19099TIP3    H278713   3.424   6.534  17.095  0.8977  0.5133  0.1452
19100TIP3   OH278714   3.841   4.890  17.245  0.6798 -0.3590 -0.1921
19100TIP3    H178715   3.837   4.839  17.164  1.2924  0.6507 -0.8733
19100TIP3    H278716   3.929   4.874  17.279  1.1859  0.8825 -0.8556
19101TIP3   OH278717   4.878   3.618  17.078 -0.3516  0.1113  0.5949
19101TIP3    H178718   4.868   3.690  17.016  1.2216  0.1715  0.3654
19101TIP3    H278719   4.959   3.637  17.124  0.6216 -1.9489 -0.1121
19102TIP3   OH278720   0.486   1.354  12.411  0.0150  0.1845  0.4552
19102TIP3    H178721   0.559   1.291  12.412  0.8107  1.0778  0.4933
19102TIP3    H278722   0.491   1.397  12.497  0.0962  0.9755  0.0627
19103TIP3   OH278723   0.978   6.619   6.434 -0.5393  0.1718 -0.5698
19103TIP3    H178724   0.892   6.580   6.416 -0.9611  0.5634  0.4890
19103TIP3    H278725   0.964   6.713   6.421  0.0426  0.1384 -1.5138
19104TIP3   OH278726   6.139   3.209  12.565  0.4142  0.5388 -0.0303
19104TIP3    H178727   6.061   3.155  12.581  0.5038  1.0380  2.4444
19104TIP3    H278728   6.186   3.162  12.496 -0.5666 -1.4120  0.5469
19105TIP3   OH278729   5.229   0.764   1.978  0.1063 -0.0231 -0.3065
19105TIP3    H178730   5.165   0.775   1.907  0.0562 -2.3994 -0.7078
19105TIP3    H278731   5.243   0.853   2.011 -1.1496  0.9428 -2.1641
19106TIP3   OH278732   2.373   0.906  17.081  0.3919 -0.4537  0.1730
19106TIP3    H178733   2.353   0.830  17.135  1.2568  0.9069  2.5426
19106TIP3    H278734   2.443   0.951  17.128 -2.0334  3.4292  0.4857
19107TIP3   OH278735   1.931   1.104   2.605 -0.5243 -0.4967  0.4386
19107TIP3    H178736   1.997   1.115   2.673 -1.1367  2.3768  0.6761
19107TIP3    H278737   1.854   1.149   2.638 -1.1652  0.1097 -1.6993
19108TIP3   OH278738   4.557   3.371  12.441  0.2034 -0.2207  0.3583
19108TIP3    H178739   4.529   3.303  12.379 -0.3504 -0.2653  0.6508
19108TIP3    H278740   4.571   3.324  12.523 -0.6748  0.0845  0.6981
19109TIP3   OH278741   1.251   5.132   5.257 -0.4036 -0.2601 -0.0873
19109TIP3    H178742   1.185   5.067   5.282 -2.1252  1.9102  1.4856
19109TIP3    H278743   1.201   5.212   5.242  1.7916  1.2937  0.3625
19110TIP3   OH278744   5.685   1.246   0.677 -0.1850 -0.2731  0.1443
19110TIP3    H178745   5.630   1.176   0.711  0.3929 -1.1803 -0.7404
19110TIP3    H278746   5.683   1.234   0.582  1.5886 -0.3719  0.0960
19111TIP3   OH278747   2.133   4.458   3.323 -0.1877 -0.0689 -0.0007
19111TIP3    H178748   2.037   4.462   3.320 -0.4433 -2.2330  2.1437
19111TIP3    H278749   2.156   4.390   3.260 -0.0935  0.0394 -0.0841
19112TIP3   OH278750   3.796   5.482   2.781  0.0475  0.4372  0.0786
19112TIP3    H178751   3.870   5.439   2.825 -0.8529  0.6656  1.9408
19112TIP3    H278752   3.822   5.575   2.778  0.5827  0.2696 -0.9343
19113TIP3   OH278753   0.934   1.408   4.601  0.4630  0.3203  0.2172
19113TIP3    H178754   1.025   1.421   4.631  0.5353  0.6268 -0.1209
19113TIP3    H278755   0.896   1.348   4.665  1.5237 -1.5374 -0.8196
19114TIP3   OH278756   6.407   5.888  13.567 -0.2094  0.0486 -0.3651
19114TIP3    H178757   6.427   5.930  13.482 -1.1698 -1.2205 -1.2541
19114TIP3    H278758   6.350   5.951  13.611 -1.0513  0.0313 -1.3787
19115TIP3   OH278759   5.158   0.554   4.837  0.2880  0.1643  0.4457
19115TIP3    H178760   5.242   0.510   4.854  0.7837  0.2646 -1.4858
19115TIP3    H278761   5.180   0.624   4.775 -1.2930 -0.1433 -0.5222
19116TIP3   OH278762   1.632   3.058   5.576 -0.1631 -0.4385 -0.0824
19116TIP3    H178763   1.641   3.151   5.596  1.2457 -0.6948  0.5982
19116TIP3    H278764   1.680   3.046   5.494 -2.2083 -0.1984 -1.3799
19117TIP3   OH278765   1.214   4.222  11.324 -0.2445 -0.7756  0.0298
19117TIP3    H178766   1.230   4.257  11.412 -1.2145 -0.9001  0.2619
19117TIP3    H278767   1.156   4.287  11.283 -3.0817 -2.6117  0.8812
19118TIP3   OH278768   2.561   6.099  15.039 -0.6205 -0.4787  0.1455
19118TIP3    H178769   2.504   6.171  15.062  0.8403  1.0939 -0.9198
19118TIP3    H278770   2.590   6.118  14.950  2.8507 -0.2208  1.1590
19119TIP3   OH278771   4.036   6.345   2.240 -0.1800 -0.3384  0.2610
19119TIP3    H178772   4.027   6.405   2.314 -0.6597 -0.2819  0.1629
19119TIP3    H278773   3.948   6.309   2.228  0.1741 -1.3411  0.5524
19120TIP3   OH278774   0.016   2.326  14.973 -0.2517  0.0973  0.2299
19120TIP3    H178775   0.078   2.391  14.942 -2.7888  1.6324 -2.0783
19120TIP3    H278776   0.041   2.245  14.928 -0.5546  0.9829 -1.6340
19121TIP3   OH278777   6.240   1.975   2.346  0.0626  0.1481  0.0330
19121TIP3    H178778   6.309   1.912   2.326 -0.4064  0.2206 -2.0850
19121TIP3    H278779   6.282   2.060   2.339  0.6177  0.1541  2.5725
19122TIP3   OH278780   0.576   0.416   0.554  0.3737  0.0357 -0.3323
19122TIP3    H178781   0.657   0.467   0.562  0.3487  0.4052 -2.0420
19122TIP3    H278782   0.595   0.333   0.598  2.6318 -0.9031 -2.8115
19123TIP3   OH278783   5.364   0.203   1.974 -0.3856 -0.7167  0.7953
19123TIP3    H178784   5.416   0.235   1.900  0.9384 -1.3178  1.4407
19123TIP3    H278785   5.309   0.134   1.937  0.3835 -1.1271  0.3921
19124TIP3   OH278786   0.712   2.683   2.643  0.3576 -0.2181 -0.8745
19124TIP3    H178787   0.693   2.591   2.624  1.8161 -0.5201 -1.0184
19124TIP3    H278788   0.808   2.687   2.646  0.2946  1.0361  0.4315
19125TIP3   OH278789   4.241   1.656   0.709 -0.2819  0.4003 -0.1655
19125TIP3    H178790   4.210   1.566   0.700 -0.2757  0.5566 -2.4342
19125TIP3    H278791   4.166   1.709   0.684  0.3152  0.9365 -0.8598
19126TIP3   OH278792   2.899   3.914  11.713  0.1649 -0.3949  0.0241
19126TIP3    H178793   2.888   3.930  11.619 -1.3293  0.0347  0.2402
19126TIP3    H278794   2.830   3.850  11.734 -0.8492  1.0086  1.1790
19127TIP3   OH278795   4.405   1.064   2.355 -0.5895  0.5740 -0.6987
19127TIP3    H178796   4.385   1.053   2.448 -0.8794  0.5549 -0.7618
19127TIP3    H278797   4.418   1.158   2.344  3.6930  0.2839  0.2095
19128TIP3   OH278798   4.940   1.633  16.002 -1.1561  0.2983 -0.2489
19128TIP3    H178799   4.848   1.632  15.976 -0.8911 -0.7482 -1.2250
19128TIP3    H278800   4.969   1.542  15.991  0.3775  0.8797 -1.3785
19129TIP3   OH278801   0.153   4.578   0.402 -0.3130  0.0626  0.3911
19129TIP3    H178802   0.242   4.542   0.406 -0.6845 -0.8431  0.7670
19129TIP3    H278803   0.101   4.509   0.360 -0.8147  0.6368  0.0557
19130TIP3   OH278804   4.183   6.718  17.246  0.1883 -0.1794  0.0157
19130TIP3    H178805   4.232   6.799  17.232 -1.7694  1.0449 -0.0630
19130TIP3    H278806   4.188   6.702  17.340 -0.3582  0.6767  0.1982
19131TIP3   OH278807   2.623   5.319   3.109  0.1003  0.6438  0.7227
19131TIP3    H178808   2.644   5.229   3.133  3.7784  0.9666 -0.6391
19131TIP3    H278809   2.645   5.370   3.186  0.1324  0.5696  0.7629
19132TIP3   OH278810   6.177   1.037  12.513 -0.1059  0.0372  0.1063
19132TIP3    H178811   6.214   1.082  12.437  0.9482 -0.3894  0.3652
19132TIP3    H278812   6.232   1.063  12.586 -0.2329 -0.7144  0.4751
19133TIP3   OH278813   0.659   4.051   6.144  0.6096 -0.1026 -0.5901
19133TIP3    H178814   0.750   4.043   6.118  0.7542  1.7030 -0.7958
19133TIP3    H278815   0.649   4.143   6.169 -1.2158 -0.1944 -0.8199
19134TIP3   OH278816   5.699   6.168  14.252 -0.2139 -0.0127  0.2563
19134TIP3    H178817   5.647   6.137  14.326 -1.2667  1.6299  0.2690
19134TIP3    H278818   5.789   6.146  14.275 -0.4998  0.5576  2.0967
19135TIP3   OH278819   1.462   5.732   0.101 -0.6368  0.2870  0.2174
19135TIP3    H178820   1.439   5.819   0.135 -0.1408  0.7268 -0.5658
19135TIP3    H278821   1.510   5.691   0.173  1.7716  1.7873 -0.4426
19136TIP3   OH278822   2.126   4.282  14.878 -0.1335  0.4402 -0.1157
19136TIP3    H178823   2.079   4.347  14.930 -2.8290  0.3854 -2.2584
19136TIP3    H278824   2.073   4.203  14.886  0.7698 -0.2669 -0.9444
19137TIP3   OH278825   3.439   4.222  14.756 -0.0878 -0.1495  0.3209
19137TIP3    H178826   3.391   4.225  14.839  1.4244 -1.4102  1.2997
19137TIP3    H278827   3.387   4.164  14.701 -1.3257  1.0227  0.1891
19138TIP3   OH278828   3.300   1.942   0.109 -0.0735 -0.0128  0.2403
19138TIP3    H178829   3.322   1.872   0.047 -1.2142  0.5083 -0.7875
19138TIP3    H278830   3.334   1.911   0.193 -1.2634 -2.2078 -0.0122
19139TIP3   OH278831   2.647   0.599   2.208  0.3320 -0.4019  0.0669
19139TIP3    H178832   2.562   0.596   2.162 -1.0015  0.6253  2.2974
19139TIP3    H278833   2.678   0.509   2.206 -0.1272 -0.5747 -1.9190
19140TIP3   OH278834   5.770   6.777  14.646 -0.2853  0.1293  0.4946
19140TIP3    H178835   5.811   6.692  14.626 -0.8489 -0.2852  1.0600
19140TIP3    H278836   5.842   6.840  14.640  0.5038 -0.6132  1.7202
19141TIP3   OH278837   4.721   3.713  13.155  0.3087  0.5037 -0.1345
19141TIP3    H178838   4.717   3.749  13.066  0.2228 -0.6268 -0.6065
19141TIP3    H278839   4.738   3.619  13.142  1.7880  0.5649  1.0768
19142TIP3   OH278840   1.548   0.636   4.164 -0.0133 -0.7602 -0.0972
19142TIP3    H178841   1.639   0.633   4.193  0.1969 -1.8252 -0.7904
19142TIP3    H278842   1.511   0.713   4.207  1.1891 -0.3647  0.2637
19143TIP3   OH278843   2.928   3.421   2.957 -0.3488  0.2994  0.8743
19143TIP3    H178844   2.921   3.325   2.957 -1.9054  0.3830 -0.1531
19143TIP3    H278845   2.867   3.449   3.026  0.4845  0.5643  1.5318
19144TIP3   OH278846   2.856   1.725   0.924 -0.4034  0.5273 -0.3282
19144TIP3    H178847   2.912   1.698   0.996 -1.5412  0.4670  0.5512
19144TIP3    H278848   2.767   1.712   0.956 -0.9375  1.2383 -1.4569
19145TIP3   OH278849   6.309   1.903   2.784 -0.7684 -0.0193  0.5366
19145TIP3    H178850   6.233   1.917   2.727 -1.7835 -1.6209  1.4040
19145TIP3    H278851   6.381   1.886   2.725 -1.4742 -0.2018 -0.2932
19146TIP3   OH278852   4.495   4.908   4.750 -0.0533  0.3518 -0.0747
19146TIP3    H178853   4.522   4.922   4.841  0.5962 -2.6704  0.3228
19146TIP3    H278854   4.492   4.813   4.741 -0.3861  0.5638 -3.1666
19147TIP3   OH278855   3.506   0.921  11.113 -0.5110  0.1337  0.0139
19147TIP3    H178856   3.527   0.975  11.037  0.0150 -0.0318  0.0385
19147TIP3    H278857   3.503   0.983  11.187  1.3473 -0.0228  0.2625
19148TIP3   OH278858   1.496   6.763  14.858  0.2022  0.2856  0.1550
19148TIP3    H178859   1.558   6.742  14.928 -0.9303  0.7945  1.3409
19148TIP3    H278860   1.482   6.857  14.865 -1.3251  0.0668  0.4668
19149TIP3   OH278861   1.021   5.655  12.144 -0.1013  0.6768  0.7440
19149TIP3    H178862   0.931   5.672  12.172 -0.2477  1.2561 -0.0330
19149TIP3    H278863   1.032   5.561  12.157 -0.6736  0.6725  1.2553
19150TIP3   OH278864   1.204   3.974   0.595  0.1021 -1.1689  0.1829
19150TIP3    H178865   1.274   3.916   0.626  2.2443 -0.1285 -2.2592
19150TIP3    H278866   1.185   3.943   0.506  0.2283  0.8738 -0.6183
19151TIP3   OH278867   3.293   6.738  15.614 -0.3207  1.0649 -0.0880
19151TIP3    H178868   3.303   6.723  15.520 -0.4501  0.3477  0.0063
19151TIP3    H278869   3.199   6.750  15.627 -0.4820 -0.2406  0.1292
19152TIP3   OH278870   5.137   4.076   3.167 -0.0675  0.3385  0.0155
19152TIP3    H178871   5.066   4.140   3.165 -0.2847  0.2190  2.1349
19152TIP3    H278872   5.096   3.995   3.135 -0.4940  0.6171 -0.1638
19153TIP3   OH278873   4.327   4.610  11.511 -0.7746  0.2776  0.3143
19153TIP3    H178874   4.404   4.559  11.486 -0.5311  1.1535 -0.8372
19153TIP3    H278875   4.321   4.602  11.606  0.0169 -0.7970  0.2853
19154TIP3   OH278876   6.327   3.335  12.024  0.3352 -0.2532  0.1561
19154TIP3    H178877   6.339   3.241  12.038  3.1413 -0.2538 -1.4398
19154TIP3    H278878   6.232   3.347  12.023 -0.1201 -2.8570  1.4996
19155TIP3   OH278879   3.407   0.944   2.859 -0.7283 -0.4767  0.2758
19155TIP3    H178880   3.494   0.904   2.863 -0.5656 -0.1526  0.1168
19155TIP3    H278881   3.364   0.901   2.785  0.2476  1.1536 -1.3125
19156TIP3   OH278882   2.050   2.015  12.868 -0.5626 -0.2041  0.2759
19156TIP3    H178883   2.125   2.070  12.844 -0.9204 -0.0863 -0.5794
19156TIP3    H278884   2.083   1.925  12.861 -0.4723 -0.1493 -0.0171
19157TIP3   OH278885   4.411   2.723  14.248  0.1774  0.3532 -0.2976
19157TIP3    H178886   4.368   2.715  14.163 -1.0264  0.0883  0.3111
19157TIP3    H278887   4.455   2.639  14.260  0.8918  0.6254 -0.9291
19158TIP3   OH278888   3.056   1.113   3.442  0.9055  0.0900 -0.0341
19158TIP3    H178889   3.079   1.093   3.352 -0.7765  2.0700 -0.9776
19158TIP3    H278890   3.014   1.033   3.475  0.9242 -0.4218 -1.2228
19159TIP3   OH278891   3.822   2.600   2.655 -0.1010 -0.2649  0.0181
19159TIP3    H178892   3.911   2.564   2.653  0.0796  0.0113  1.6759
19159TIP3    H278893   3.766   2.524   2.665  0.0617 -0.3369  0.4135
19160TIP3   OH278894   0.734   5.667   4.001 -0.1346 -0.2485  0.3787
19160TIP3    H178895   0.674   5.740   3.986 -1.3419 -0.7188  2.5685
19160TIP3    H278896   0.686   5.590   3.974  0.6102 -0.4143 -0.5578
19161TIP3   OH278897   1.477   5.440   1.242 -0.1201 -0.7071 -0.7574
19161TIP3    H178898   1.530   5.364   1.268  0.6932 -0.6986 -2.2842
19161TIP3    H278899   1.425   5.460   1.319  0.6302 -1.9904  0.1226
19162TIP3   OH278900   3.260   4.943   3.172 -0.1267  0.7162  0.0745
19162TIP3    H178901   3.267   4.982   3.260  0.5335  1.7874 -0.4302
19162TIP3    H278902   3.303   4.858   3.180 -2.9688 -0.7291  1.6177
19163TIP3   OH278903   4.334   4.028   5.310  0.0119 -0.3695  0.3040
19163TIP3    H178904   4.241   4.033   5.333  0.2594 -2.3625  2.1546
19163TIP3    H278905   4.335   4.010   5.217 -1.4722 -0.5527  0.2992
19164TIP3   OH278906   5.364   1.869   4.762  0.0134  0.1841 -0.2251
19164TIP3    H178907   5.310   1.905   4.692  0.2143  1.3409  0.1964
19164TIP3    H278908   5.338   1.777   4.767  0.2854 -0.0318 -2.0718
19165TIP3   OH278909   1.293   5.474  11.382 -0.5780 -0.3189 -0.4843
19165TIP3    H178910   1.357   5.429  11.437 -0.4529 -0.7307 -0.9637
19165TIP3    H278911   1.346   5.517  11.314 -0.1917  3.9834  2.1389
19166TIP3   OH278912   6.213   4.938  16.526  0.6464  0.2688  0.1933
19166TIP3    H178913   6.253   4.982  16.601  0.1979 -0.9936  1.2193
19166TIP3    H278914   6.130   4.984  16.512  1.2449  1.2265 -0.2651
19167TIP3   OH278915   0.610   2.748  11.837  0.4749  0.5683 -0.4835
19167TIP3    H178916   0.671   2.778  11.904  0.1469  3.4903 -1.3316
19167TIP3    H278917   0.665   2.715  11.766  0.9688  0.7998 -0.2106
19168TIP3   OH278918   3.212   1.090  15.387 -0.0270  1.1746 -0.3173
19168TIP3    H178919   3.178   1.164  15.438 -0.0148  2.1215 -1.6278
19168TIP3    H278920   3.264   1.040  15.450 -0.2038  2.1691  0.6588
19169TIP3   OH278921   6.103   5.725  13.606  0.1718  0.1684  0.0208
19169TIP3    H178922   6.116   5.806  13.657 -0.5692 -0.4651  1.2664
19169TIP3    H278923   6.084   5.755  13.517 -0.4692  1.3834  0.5447
19170TIP3   OH278924   4.242   1.624  15.233 -0.1996  0.2688  0.1443
19170TIP3    H178925   4.151   1.632  15.205  0.3596  2.2427 -1.3992
19170TIP3    H278926   4.240   1.562  15.306 -2.5355 -0.9074 -0.8236
19171TIP3   OH278927   6.767   0.371  11.930 -0.1876 -0.0816  0.2634
19171TIP3    H178928   6.800   0.418  12.007 -1.4612 -0.0238  0.7896
19171TIP3    H278929   6.790   0.427  11.856  1.3757 -0.3086  0.5380
19172TIP3   OH278930   0.348   3.362  14.082 -0.0531  0.6196 -0.1781
19172TIP3    H178931   0.398   3.296  14.130  0.6260 -0.3235 -2.0817
19172TIP3    H278932   0.269   3.376  14.135  1.8156  1.6653  2.5915
19173TIP3   OH278933   1.680   1.174  16.118 -0.1139  0.1311 -0.0055
19173TIP3    H178934   1.681   1.157  16.213 -1.1922 -0.0647 -0.0147
19173TIP3    H278935   1.645   1.263  16.110 -3.2052 -0.9873 -0.3034
19174TIP3   OH278936   0.817   6.648  15.158  0.9142 -0.0403 -0.3037
19174TIP3    H178937   0.731   6.657  15.200  1.2587 -1.1047  0.7042
19174TIP3    H278938   0.801   6.664  15.065 -0.1248  1.0815  0.0503
19175TIP3   OH278939   0.108   4.474   5.556  0.3428  0.0554  0.5157
19175TIP3    H178940   0.095   4.552   5.610  1.9207  0.8806 -0.2117
19175TIP3    H278941   0.108   4.401   5.618  0.3295  0.7916  1.3961
19176TIP3   OH278942   6.056   3.666   3.171  0.0797  0.5715 -0.2974
19176TIP3    H178943   5.985   3.623   3.122 -1.8811  1.3238  1.7117
19176TIP3    H278944   6.045   3.634   3.261  1.8632  1.2953  0.2176
19177TIP3   OH278945   0.485   1.518  16.952 -0.4574 -0.4306 -0.3931
19177TIP3    H178946   0.395   1.535  16.977 -0.8107 -2.6963  0.0739
19177TIP3    H278947   0.487   1.425  16.931  1.8340 -0.5071 -0.0998
19178TIP3   OH278948   6.658   2.929  15.561  0.3002  0.9762 -0.3371
19178TIP3    H178949   6.632   2.837  15.568  2.2049  0.4769  1.4050
19178TIP3    H278950   6.597   2.976  15.618  1.2001  0.2787  1.2672
19179TIP3   OH278951   6.745   3.694   0.193 -0.1939  0.3436  0.2811
19179TIP3    H178952   6.689   3.710   0.269 -1.5925  0.9286 -0.8220
19179TIP3    H278953   6.804   3.769   0.191  0.2360  0.0478  1.0798
19180TIP3   OH278954   0.507   5.846   6.048 -0.0673  0.4260  0.5498
19180TIP3    H178955   0.512   5.916   6.113  0.2096 -0.0548  1.0473
19180TIP3    H278956   0.415   5.845   6.021 -0.8681 -1.2036  2.9795
19181TIP3   OH278957   0.524   1.340   2.586  0.3288 -0.6306  0.0419
19181TIP3    H178958   0.468   1.406   2.545 -1.6839 -1.9802  0.4389
19181TIP3    H278959   0.610   1.381   2.593 -0.6194  1.5789 -0.5604
19182TIP3   OH278960   0.301   5.184   4.581  0.1604  0.3055 -1.0031
19182TIP3    H178961   0.239   5.114   4.562  0.4151 -0.0661 -0.4890
19182TIP3    H278962   0.385   5.140   4.589  0.5236  0.8294 -1.8534
19183TIP3   OH278963   3.640   1.197   2.549  0.2536  0.1127  0.0906
19183TIP3    H178964   3.585   1.195   2.627 -1.2049 -0.3474 -0.9115
19183TIP3    H278965   3.692   1.277   2.558 -1.3794  1.1659  0.5695
19184TIP3   OH278966   3.309   6.106  16.239 -0.0532 -0.4150 -0.3402
19184TIP3    H178967   3.318   6.199  16.260  0.6474 -0.3985 -0.6811
19184TIP3    H278968   3.399   6.075  16.229 -0.0704 -1.8421  2.7462
19185TIP3   OH278969   6.746   1.868   5.687 -0.0565 -0.2333 -0.1582
19185TIP3    H178970   6.702   1.825   5.760  0.6915  1.4169  1.3393
19185TIP3    H278971   6.831   1.824   5.682  0.0082 -0.1432  0.1602
19186TIP3   OH278972   1.998   3.804   5.126  0.2745 -0.4622 -0.6226
19186TIP3    H178973   1.932   3.862   5.165  0.2748 -0.5021 -0.5639
19186TIP3    H278974   2.014   3.738   5.192 -0.6558 -1.2671 -1.1714
19187TIP3   OH278975   4.411   3.618   0.072 -0.4187  0.2158 -0.3276
19187TIP3    H178976   4.376   3.686   0.129 -1.6049 -0.5166 -0.1461
19187TIP3    H278977   4.502   3.608   0.101 -0.9110  0.0497  1.2819
19188TIP3   OH278978   1.234   3.954  16.893 -0.0889  0.3549  0.2717
19188TIP3    H178979   1.219   4.013  16.967  0.1654 -0.8773  1.3370
19188TIP3    H278980   1.325   3.971  16.867  0.3497 -0.3043  1.2904
19189TIP3   OH278981   3.541   1.829  13.885  0.0089 -0.1569 -0.1398
19189TIP3    H178982   3.467   1.782  13.847  0.4938  0.2555 -1.6681
19189TIP3    H278983   3.546   1.911  13.836  2.2099 -0.6942 -0.9321
19190TIP3   OH278984   0.841   2.256   5.078 -0.2815  0.1026  0.3471
19190TIP3    H178985   0.781   2.221   5.012 -1.1207  0.6541  0.7894
19190TIP3    H278986   0.908   2.188   5.088 -1.4080 -1.0114  0.5862
19191TIP3   OH278987   2.768   2.719   5.677 -0.3613  1.0321  0.1152
19191TIP3    H178988   2.724   2.720   5.591 -1.1391  2.0616  0.4993
19191TIP3    H278989   2.699   2.699   5.739  0.2599  0.0036  0.5029
19192TIP3   OH278990   0.707   0.925  13.975 -0.0083 -0.2748 -0.2422
19192TIP3    H178991   0.744   0.861  13.914 -1.6201 -1.6918  0.1926
19192TIP3    H278992   0.757   0.913  14.056  0.2261 -0.4075 -0.4044
19193TIP3   OH278993   0.436   3.555   3.543  0.1632 -0.3060 -0.0859
19193TIP3    H178994   0.474   3.563   3.630  0.9761  0.7797 -0.5133
19193TIP3    H278995   0.498   3.500   3.495  1.9437  2.4060 -1.1242
19194TIP3   OH278996   2.264   2.868   0.173 -0.0155 -0.2795  0.1786
19194TIP3    H178997   2.191   2.815   0.205  0.7059 -1.3553  0.0969
19194TIP3    H278998   2.239   2.893   0.084 -0.1683 -0.8690  0.0543
19195TIP3   OH278999   6.128   2.509  16.527  0.0374 -0.1230 -0.3508
19195TIP3    H179000   6.131   2.428  16.476 -0.4622  0.0093 -0.5976
19195TIP3    H279001   6.146   2.578  16.463  1.4348 -0.1021  0.0370
19196TIP3   OH279002   6.407   5.801   5.597 -0.3205  0.0160  0.2312
19196TIP3    H179003   6.448   5.873   5.645  0.4737  0.1904 -0.6822
19196TIP3    H279004   6.479   5.755   5.555 -1.0386  0.5828 -1.7642
19197TIP3   OH279005   2.241   1.701   2.995  0.4273 -0.2722  0.3061
19197TIP3    H179006   2.328   1.679   3.028  1.6949  2.8693 -0.6033
19197TIP3    H279007   2.240   1.665   2.906  1.0338  0.1864  0.1085
19198TIP3   OH279008   5.640   3.502   1.176 -0.6425  0.1674  0.0918
19198TIP3    H179009   5.726   3.526   1.142 -0.3953  0.9119  1.1995
19198TIP3    H279010   5.628   3.411   1.148  0.2402  0.2341 -0.5625
19199TIP3   OH279011   2.383   3.231   3.354 -0.3174 -0.2357  0.1073
19199TIP3    H179012   2.429   3.310   3.385  0.7780 -0.9263  0.2986
19199TIP3    H279013   2.438   3.197   3.284  0.3682 -1.9931  1.4224
19200TIP3   OH279014   6.160   1.737  10.986 -0.3713  0.0232 -0.1570
19200TIP3    H179015   6.200   1.779  11.062  0.2197 -0.3611 -0.2499
19200TIP3    H279016   6.228   1.678  10.952 -0.3762  0.6851 -1.3873
19201TIP3   OH279017   5.360   1.583   1.736 -0.2764 -0.3913  0.1510
19201TIP3    H179018   5.429   1.528   1.700  0.5385  1.3850 -1.1209
19201TIP3    H279019   5.405   1.640   1.799 -1.1579 -1.3021  1.6929
19202TIP3   OH279020   3.677   4.112   1.239  0.1468 -0.3660  0.0083
19202TIP3    H179021   3.694   4.052   1.312  2.0184 -1.0115 -0.8948
19202TIP3    H279022   3.603   4.072   1.192 -2.1475  0.8626  2.3125
19203TIP3   OH279023   2.700   2.625   5.398 -0.1455  0.4438 -0.3654
19203TIP3    H179024   2.654   2.576   5.331 -0.1402  3.4433 -2.7978
19203TIP3    H279025   2.767   2.566   5.430 -0.5606 -1.3404 -2.5656
19204TIP3   OH279026   2.089   5.931   4.751 -0.2326  0.5071  0.4621
19204TIP3    H179027   2.179   5.899   4.737  0.2152  1.4393  1.0918
19204TIP3    H279028   2.055   5.879   4.823 -0.6274 -0.6328 -0.5096
19205TIP3   OH279029   4.431   5.737   0.150  0.1413  0.3153 -0.5612
19205TIP3    H179030   4.486   5.676   0.101 -0.1427  0.5540 -1.1772
19205TIP3    H279031   4.485   5.763   0.224  0.3959 -0.4177 -0.4777
19206TIP3   OH279032   3.670   2.966  13.727 -0.3061 -0.1522 -0.6112
19206TIP3    H179033   3.611   2.897  13.696 -1.2243 -0.2897  1.2709
19206TIP3    H279034   3.658   2.966  13.822  0.9450  1.4761 -0.4146
19207TIP3   OH279035   0.665   6.349   2.376  1.1107 -0.1713 -0.3085
19207TIP3    H179036   0.664   6.318   2.466 -0.7832  0.7507  0.0281
19207TIP3    H279037   0.663   6.269   2.323  1.6805 -0.7066  0.4605
19208TIP3   OH279038   2.926   2.149   1.409 -0.7188  0.2788  0.1057
19208TIP3    H179039   2.996   2.158   1.474 -0.2724  0.9937 -0.4561
19208TIP3    H279040   2.962   2.092   1.342  0.0285  2.0584 -1.0732
19209TIP3   OH279041   4.531   0.991  14.796 -0.0700 -0.4519  0.6766
19209TIP3    H179042   4.604   0.933  14.774 -0.0053  0.1455 -0.7883
19209TIP3    H279043   4.455   0.933  14.799  0.1410 -0.7715  0.1512
19210TIP3   OH279044   6.207   5.988  10.831 -0.1986 -0.2321  0.0884
19210TIP3    H179045   6.270   5.968  10.761  0.2472  0.1215  0.3831
19210TIP3    H279046   6.181   5.903  10.865  0.0377 -0.3838 -0.1057
19211TIP3   OH279047   2.866   0.045   4.367  0.0755  0.0272 -0.1923
19211TIP3    H179048   2.812  -0.026   4.404 -0.8728  0.3470 -0.9254
19211TIP3    H279049   2.831   0.125   4.406  1.6735  0.0684  1.2667
19212TIP3   OH279050   5.567   4.394   4.240  0.2851  0.4851 -0.0258
19212TIP3    H179051   5.640   4.366   4.184  0.6209  0.9237  0.1892
19212TIP3    H279052   5.490   4.390   4.183  0.4906  0.1280 -0.2845
19213TIP3   OH279053   4.446   3.424  17.074 -0.2271 -0.2574  0.1925
19213TIP3    H179054   4.459   3.515  17.047  0.0476 -0.2599  0.3234
19213TIP3    H279055   4.531   3.395  17.105 -0.0132 -0.9358 -0.9791
19214TIP3   OH279056   3.921   4.870  14.083 -0.4898  0.3969  0.5639
19214TIP3    H179057   3.847   4.912  14.038 -0.1761 -1.9537 -2.5121
19214TIP3    H279058   3.963   4.817  14.015  3.1371  0.3913  2.5646
19215TIP3   OH279059   0.612   3.846  16.368 -0.0336 -0.0639  0.4919
19215TIP3    H179060   0.641   3.890  16.448 -1.3181 -0.9166  1.4655
19215TIP3    H279061   0.613   3.753  16.390 -3.4619 -0.1875  0.6442
19216TIP3   OH279062   0.146   5.691  14.859  0.3833 -0.7980 -0.2381
19216TIP3    H179063   0.201   5.646  14.923  0.6432 -0.1087  0.0245
19216TIP3    H279064   0.061   5.699  14.903  0.7206  0.1846  0.2504
19217TIP3   OH279065   4.434   6.704  14.932  0.2622  0.5975  0.3172
19217TIP3    H179066   4.345   6.719  14.964 -0.9057 -2.9466 -0.7297
19217TIP3    H279067   4.439   6.752  14.850 -1.0203  0.2022 -0.0123
19218TIP3   OH279068   3.532   6.633   4.381 -0.2366  0.1144 -0.3091
19218TIP3    H179069   3.604   6.636   4.318 -0.0102  0.3090 -0.0435
19218TIP3    H279070   3.461   6.591   4.333  0.2852 -0.7735 -0.3463
19219TIP3   OH279071   6.662   6.043   1.952 -0.4355  0.4557  0.5905
19219TIP3    H179072   6.729   6.107   1.931  0.3024 -0.3700  0.3699
19219TIP3    H279073   6.615   6.030   1.869 -0.0434  0.1050  0.4158
19220TIP3   OH279074   2.833   0.294  13.786 -0.5374 -0.5695  0.6421
19220TIP3    H179075   2.822   0.200  13.802 -1.3585 -0.6471 -0.2971
19220TIP3    H279076   2.926   0.304  13.765 -0.6668 -1.3610 -0.3917
19221TIP3   OH279077   5.705   2.454  17.053 -0.4644 -0.2309 -0.4177
19221TIP3    H179078   5.724   2.526  16.993  0.6070 -0.2153 -0.0685
19221TIP3    H279079   5.774   2.457  17.118 -2.0519  0.2696  1.3289
19222TIP3   OH279080   6.169   1.153   4.200  0.5180  0.6021 -0.2956
19222TIP3    H179081   6.187   1.180   4.110  0.0158  0.6426 -0.3878
19222TIP3    H279082   6.121   1.071   4.191  0.5845  0.5353 -0.0590
19223TIP3   OH279083   0.217   6.588   5.170  0.5907  0.0806  0.2308
19223TIP3    H179084   0.209   6.617   5.079  0.0186 -1.1001 -0.1248
19223TIP3    H279085   0.202   6.493   5.166  1.4498 -0.1375  1.4411
19224TIP3   OH279086   0.493   2.116   5.625 -0.3369  0.4130 -0.4562
19224TIP3    H179087   0.536   2.194   5.659  0.5016 -0.4854  0.6634
19224TIP3    H279088   0.452   2.144   5.544 -1.5065  2.4198  0.7491
19225TIP3   OH279089   5.706   5.375  12.656 -0.0285  0.0530 -0.1345
19225TIP3    H179090   5.773   5.306  12.657 -0.8197 -0.7369 -0.3620
19225TIP3    H279091   5.680   5.382  12.564  1.5460  2.1965 -0.5194
19226TIP3   OH279092   1.077   1.248  13.411  0.0251  0.3519  0.0015
19226TIP3    H179093   1.021   1.265  13.335  0.0907  0.7430  0.0357
19226TIP3    H279094   1.102   1.336  13.442 -0.5334  0.2182  0.8689
19227TIP3   OH279095   4.489   3.573   1.433 -0.2421  0.3311 -0.0577
19227TIP3    H179096   4.438   3.654   1.433  0.4306  0.7714 -0.1600
19227TIP3    H279097   4.560   3.590   1.370  0.6435  0.1422  0.8589
19228TIP3   OH279098   1.745   3.339   5.256  0.2272  0.4753  0.3663
19228TIP3    H179099   1.721   3.432   5.258  1.0667  0.6799  1.9678
19228TIP3    H279100   1.772   3.324   5.165 -0.0960  1.7391  0.0354
19229TIP3   OH279101   2.106   0.284  14.429 -0.1348 -0.4917  0.3418
19229TIP3    H179102   2.035   0.261  14.488 -1.3963  0.1460 -0.8680
19229TIP3    H279103   2.063   0.323  14.353  1.3667 -1.8391 -1.2991
19230TIP3   OH279104   3.277   1.904  16.179 -0.2669  0.2063 -0.6026
19230TIP3    H179105   3.337   1.884  16.250 -0.8114 -0.9942 -0.4523
19230TIP3    H279106   3.196   1.930  16.222 -0.2580  0.5576 -0.7929
19231TIP3   OH279107   5.645   1.342   3.555  0.5244 -0.2767 -0.0463
19231TIP3    H179108   5.665   1.435   3.557  1.9627 -0.5674  0.1166
19231TIP3    H279109   5.677   1.313   3.469  2.3657 -1.0694  0.8587
19232TIP3   OH279110   5.732   0.677  11.226  0.2230 -0.2271  0.1383
19232TIP3    H179111   5.793   0.721  11.166  0.8545 -2.7710 -1.2456
19232TIP3    H279112   5.645   0.700  11.193  0.5384 -0.1534 -0.6666
19233TIP3   OH279113   3.124   4.187  11.989 -0.1440  0.3003  0.0099
19233TIP3    H179114   3.075   4.112  11.956  0.7730 -1.3234  2.1123
19233TIP3    H279115   3.088   4.202  12.077  1.1618  0.8955  0.4644
19234TIP3   OH279116   2.951   6.426  13.357 -0.0010  0.0100  0.4057
19234TIP3    H179117   2.989   6.511  13.375 -0.5183  0.2837  0.2285
19234TIP3    H279118   2.909   6.400  13.439 -0.5559  0.3099  0.2276
19235TIP3   OH279119   0.530   6.490   4.785  0.1789  0.4804 -0.1109
19235TIP3    H179120   0.608   6.471   4.837 -0.1991  1.3627  0.7916
19235TIP3    H279121   0.521   6.585   4.789 -0.7210  0.4166 -0.5364
19236TIP3   OH279122   3.252   1.004   0.402  0.1233  0.2590  0.0053
19236TIP3    H179123   3.258   1.059   0.480  0.4141 -0.5903  0.6018
19236TIP3    H279124   3.201   1.056   0.340 -0.3547  0.8401  0.8591
19237TIP3   OH279125   5.227   1.919   3.038  0.5046  0.2863  0.4661
19237TIP3    H179126   5.191   1.943   3.123 -0.0975  0.1790  0.2417
19237TIP3    H279127   5.253   1.828   3.048 -0.7624 -0.1289  0.1517
19238TIP3   OH279128   2.062   6.026  11.889 -0.4288  0.3229 -0.5449
19238TIP3    H179129   2.093   6.021  11.799  0.1512 -1.5260 -0.2883
19238TIP3    H279130   2.137   6.058  11.939 -0.5647  0.7711 -0.6196
19239TIP3   OH279131   0.526   6.578  13.391  0.1779 -0.1170  0.0583
19239TIP3    H179132   0.495   6.510  13.450  1.9453 -1.2392 -0.2365
19239TIP3    H279133   0.513   6.541  13.303 -1.2044  1.0033 -0.2598
19240TIP3   OH279134   2.882   5.337  14.019  0.3524  0.2897 -0.2622
19240TIP3    H179135   2.860   5.414  14.072  0.5495 -0.1814  0.5205
19240TIP3    H279136   2.974   5.321  14.038  0.1531 -0.5020  0.0513
19241TIP3   OH279137   0.977   5.569   3.501 -0.4890 -0.3161  0.4886
19241TIP3    H179138   1.059   5.572   3.550 -0.2570 -0.7423  0.1353
19241TIP3    H279139   0.909   5.576   3.568 -0.1967 -1.7141  0.9692
19242TIP3   OH279140   0.531   6.359   0.545  0.3169 -0.4364  0.1389
19242TIP3    H179141   0.555   6.339   0.455  0.7433  0.0416  0.1434
19242TIP3    H279142   0.593   6.426   0.572  0.6240 -1.0574  1.0167
19243TIP3   OH279143   2.411   6.654  13.594  0.2147 -0.3171  0.0526
19243TIP3    H179144   2.403   6.570  13.548  0.8950 -0.3431 -0.0242
19243TIP3    H279145   2.481   6.700  13.548  0.7642 -0.2601  0.9284
19244TIP3   OH279146   6.432   2.395   4.366  0.5076 -0.4436 -0.6529
19244TIP3    H179147   6.438   2.331   4.295 -1.6856 -0.2506 -1.0777
19244TIP3    H279148   6.367   2.459   4.336 -0.6238 -0.4468  1.5612
19245TIP3   OH279149   5.517   3.772   3.988 -0.0163  0.6462 -0.8395
19245TIP3    H179150   5.423   3.787   3.987  0.2601  2.8826 -0.3685
19245TIP3    H279151   5.552   3.850   4.032  1.8893 -1.1064  0.9223
19246TIP3   OH279152   5.331   1.698  11.189 -0.1771 -0.1561  0.1190
19246TIP3    H179153   5.352   1.768  11.127  1.4492 -2.0569 -1.5995
19246TIP3    H279154   5.406   1.639  11.185 -1.5228 -2.0604  1.4443
19247TIP3   OH279155   0.397   3.483  17.247  0.1423  0.0803  0.8887
19247TIP3    H179156   0.359   3.569  17.266  0.6420  0.7045 -0.7346
19247TIP3    H279157   0.325   3.434  17.207  0.0775  0.0280  1.0695
19248TIP3   OH279158   5.439   2.329  14.072 -0.0603  0.3553 -0.2414
19248TIP3    H179159   5.408   2.268  14.005  1.1104 -3.4493  2.2966
19248TIP3    H279160   5.534   2.331  14.060 -0.1950  3.8648 -1.7626
19249TIP3   OH279161   5.330   3.808   2.404 -0.1450  0.8360  0.4726
19249TIP3    H179162   5.360   3.723   2.435 -0.9117  1.1326  2.1827
19249TIP3    H279163   5.409   3.862   2.398  0.0624  0.7000  1.8067
19250TIP3   OH279164   0.104   5.892   3.342  0.1234 -1.0537 -0.5241
19250TIP3    H179165   0.135   5.926   3.426 -2.3972  0.0053  0.0381
19250TIP3    H279166   0.121   5.962   3.279  0.4848 -1.1971 -0.5925
19251TIP3   OH279167   3.653   3.754  12.328  0.0379  0.8304 -0.2468
19251TIP3    H179168   3.713   3.779  12.258  0.0975 -1.7019 -1.1713
19251TIP3    H279169   3.612   3.837  12.354  2.6088  2.3803 -0.7672
19252TIP3   OH279170   5.908   3.310   0.871  0.1641  0.2729 -0.3266
19252TIP3    H179171   5.982   3.366   0.893 -0.0744 -0.2750  2.1454
19252TIP3    H279172   5.946   3.236   0.823  1.1849  0.2032  0.5631
19253TIP3   OH279173   5.889   2.852  14.247  0.4303  0.0787  0.7609
19253TIP3    H179174   5.838   2.881  14.323 -0.7237  0.8669 -0.2773
19253TIP3    H279175   5.959   2.916  14.239 -0.9296  1.4979 -0.3158
19254TIP3   OH279176   3.750   6.143   0.968 -0.4407  0.6662 -0.1132
19254TIP3    H179177   3.700   6.065   0.946 -0.4089  0.5414  0.2441
19254TIP3    H279178   3.823   6.111   1.022 -0.6151  0.9755  0.3199
19255TIP3   OH279179   3.488   3.996   2.554  0.4031  0.3215 -0.4727
19255TIP3    H179180   3.557   3.993   2.620 -0.2148 -1.2374  0.1422
19255TIP3    H279181   3.520   3.938   2.484 -1.0674 -1.9789  0.6663
19256TIP3   OH279182   5.433   6.342   1.892 -0.0210 -0.4439 -0.3619
19256TIP3    H179183   5.448   6.434   1.912 -1.8511  0.5726 -3.0245
19256TIP3    H279184   5.403   6.304   1.975 -1.4358  1.9340  0.3246
19257TIP3   OH279185   6.080   4.643   3.851 -0.6142  0.1117 -0.8576
19257TIP3    H179186   6.149   4.653   3.786 -0.5398  2.4240 -0.5233
19257TIP3    H279187   6.082   4.551   3.875  1.4545 -0.1475 -1.8241
19258TIP3   OH279188   1.608   4.733  16.312  0.3841 -0.3018 -0.8983
19258TIP3    H179189   1.561   4.792  16.253 -0.4949 -1.0235 -0.9406
19258TIP3    H279190   1.545   4.665  16.334  1.8474 -2.1517 -2.1481
19259TIP3   OH279191   3.991   5.075   5.485  0.1447 -0.2184  0.0613
19259TIP3    H179192   3.902   5.064   5.517  0.2900 -0.3032  0.4326
19259TIP3    H279193   4.013   5.165   5.506  0.5600 -0.5321  1.0020
19260TIP3   OH279194   1.023   6.657   5.654  0.3679  0.5784  0.2600
19260TIP3    H179195   0.991   6.741   5.687 -0.4989  1.2743 -2.1533
19260TIP3    H279196   0.955   6.594   5.679  0.6896  0.6967  1.4830
19261TIP3   OH279197   3.926   5.527  13.581 -0.4679 -0.7463 -0.0221
19261TIP3    H179198   3.955   5.559  13.495 -2.4042 -0.6281 -0.6700
19261TIP3    H279199   3.880   5.602  13.620  1.8667 -0.1955  1.9339
19262TIP3   OH279200   3.453   2.211   0.675 -0.1481 -0.2728  0.4492
19262TIP3    H179201   3.502   2.265   0.737 -1.3090 -0.5873  1.6708
19262TIP3    H279202   3.498   2.224   0.592  0.3271  1.6389  0.9541
19263TIP3   OH279203   5.297   3.385  13.089  0.2309 -0.0659 -0.3936
19263TIP3    H179204   5.213   3.427  13.111 -1.7678 -1.9822 -3.6047
19263TIP3    H279205   5.294   3.301  13.135 -1.0830 -1.3689 -2.6550
19264TIP3   OH279206   4.640   5.916  14.539 -0.8677  0.9457 -0.6631
19264TIP3    H179207   4.730   5.886  14.552 -0.9462  1.4570  1.3827
19264TIP3    H279208   4.588   5.836  14.539 -0.5597  0.7443 -0.4009
19265TIP3   OH279209   3.847   3.162  11.948 -0.2118  0.2752  0.5175
19265TIP3    H179210   3.818   3.088  11.894 -2.4126  0.5549  1.2055
19265TIP3    H279211   3.941   3.150  11.957 -0.1875 -1.2293 -1.1815
19266TIP3   OH279212   2.338   0.411   0.034 -0.2298  0.3833 -0.2927
19266TIP3    H179213   2.324   0.398  -0.060 -1.1216  1.1215 -0.2792
19266TIP3    H279214   2.417   0.362   0.054 -1.5070 -2.0354 -0.8746
19267TIP3   OH279215   6.025   1.637   0.057  0.1435 -0.2860  0.0095
19267TIP3    H179216   6.055   1.547   0.071  2.6171  0.5935  0.9596
19267TIP3    H279217   6.020   1.647  -0.038  1.0766 -1.0767 -0.1336
19268TIP3   OH279218   3.649   3.542   0.847  0.5691  0.0350  0.3385
19268TIP3    H179219   3.579   3.501   0.899 -0.1784  1.1879  0.2852
19268TIP3    H279220   3.636   3.636   0.861  1.8090  0.2769 -0.0841
19269TIP3   OH279221   3.520   5.432  12.858 -0.1670  0.2695  0.0091
19269TIP3    H179222   3.435   5.389  12.846  0.1556 -0.4216  0.1586
19269TIP3    H279223   3.584   5.364  12.838  0.3753  0.0952  2.1507
19270TIP3   OH279224   5.282   5.515   0.197  0.0953 -0.1063 -0.0051
19270TIP3    H179225   5.339   5.476   0.130  3.1963  0.7595  1.8986
19270TIP3    H279226   5.272   5.446   0.263  2.5687  0.9647  1.6354
19271TIP3   OH279227   2.976   5.399   1.248  0.0113 -0.1484 -0.6716
19271TIP3    H179228   3.068   5.386   1.226  0.2521  1.9901 -1.1021
19271TIP3    H279229   2.939   5.442   1.171 -1.0211  0.2481  0.0275
19272TIP3   OH279230   3.766   5.313   1.422 -0.0286 -0.0561 -0.1941
19272TIP3    H179231   3.782   5.220   1.404  0.3656  0.1990 -1.2256
19272TIP3    H279232   3.843   5.343   1.469  0.2948 -0.0288 -0.7292
19273TIP3   OH279233   4.678   5.635   3.400 -0.4184 -0.3418  0.5029
19273TIP3    H179234   4.770   5.654   3.381  0.3071 -2.6335  1.3928
19273TIP3    H279235   4.662   5.551   3.357 -2.2997  0.2933 -0.1228
19274TIP3   OH279236   4.453   1.640  12.506 -0.2347 -0.7138 -0.1922
19274TIP3    H179237   4.460   1.735  12.519  0.4277 -0.8307  0.3645
19274TIP3    H279238   4.459   1.629  12.411 -1.6119 -0.1082 -0.3688
19275TIP3   OH279239   1.443   3.132   1.780  0.3320  0.4218 -0.5019
19275TIP3    H179240   1.369   3.192   1.778 -0.9599 -0.9857  1.6291
19275TIP3    H279241   1.411   3.052   1.739  0.7385 -0.1165  0.2059
19276TIP3   OH279242   1.145   3.490   4.399 -0.1676 -0.6055  0.2262
19276TIP3    H179243   1.096   3.540   4.464  2.5798  1.3267  1.0391
19276TIP3    H279244   1.159   3.552   4.327 -2.6334 -2.5165 -2.0699
19277TIP3   OH279245   4.447   3.355  16.376 -0.3654  0.2164 -0.8361
19277TIP3    H179246   4.430   3.437  16.422  0.7308  0.0081 -0.0263
19277TIP3    H279247   4.481   3.382  16.291  1.6181  0.6362  0.0536
19278TIP3   OH279248   4.911   4.784   3.726 -0.2544 -0.2908  0.2587
19278TIP3    H179249   4.925   4.816   3.636  1.2344 -1.9815 -0.1677
19278TIP3    H279250   4.945   4.854   3.782 -2.2766  1.3107 -0.4003
19279TIP3   OH279251   0.757   5.383  16.853  0.3153  0.0663 -0.6196
19279TIP3    H179252   0.818   5.361  16.923  1.4958  1.0904 -1.2765
19279TIP3    H279253   0.706   5.303  16.838  1.3887 -0.7640  0.0636
19280TIP3   OH279254   5.132   3.467   4.794  0.0910  0.3102  0.3166
19280TIP3    H179255   5.218   3.484   4.756  0.2251 -0.0642  0.4418
19280TIP3    H279256   5.133   3.512   4.879  0.3723 -0.1519  0.5633
19281TIP3   OH279257   2.956   3.302   2.595 -0.3419  0.0108 -0.0400
19281TIP3    H179258   2.934   3.342   2.679  2.2404  1.2259  0.1570
19281TIP3    H279259   2.914   3.358   2.530 -0.8455  0.1440  0.3984
19282TIP3   OH279260   1.385   0.213   3.262 -0.1076  0.1207  0.5853
19282TIP3    H179261   1.469   0.168   3.266  0.7124  1.4702 -0.3844
19282TIP3    H279262   1.393   0.284   3.326  0.5447  1.8171 -1.2607
19283TIP3   OH279263   1.483   5.056   5.393 -0.1499 -0.7135 -0.3436
19283TIP3    H179264   1.402   5.073   5.344 -2.0051  0.4882  2.8496
19283TIP3    H279265   1.541   5.128   5.367 -0.8780 -0.3860 -1.1409
19284TIP3   OH279266   6.202   5.121   2.472  0.6108  0.0358 -0.1513
19284TIP3    H179267   6.178   5.154   2.385 -2.2250 -2.5147 -0.4834
19284TIP3    H279268   6.226   5.200   2.521 -0.1000  1.8441 -2.5198
19285TIP3   OH279269   5.650   1.661   4.120  0.6218  0.3909  0.2113
19285TIP3    H179270   5.696   1.656   4.203 -0.0587  1.7200  0.6846
19285TIP3    H279271   5.619   1.571   4.105 -1.0964  0.5224  2.4665
19286TIP3   OH279272   0.249   0.439   3.355  0.3371  0.1855  0.2264
19286TIP3    H179273   0.179   0.428   3.291  0.0390 -0.9881  0.7358
19286TIP3    H279274   0.320   0.385   3.323  1.0257  1.3315 -0.2590
19287TIP3   OH279275   5.402   0.585  11.232 -0.3561  0.5238  0.6693
19287TIP3    H179276   5.415   0.499  11.274  1.2878  0.0774 -0.6515
19287TIP3    H279277   5.307   0.592  11.221 -0.5316 -1.0799  0.9041
19288TIP3   OH279278   5.309   0.243  15.471  0.2702  0.7232 -0.5111
19288TIP3    H179279   5.343   0.208  15.388  0.4974  1.1168 -0.5886
19288TIP3    H279280   5.219   0.212  15.474  0.5850 -0.2015 -0.3790
19289TIP3   OH279281   6.773   2.027   0.227 -0.0741  0.5241 -0.2817
19289TIP3    H179282   6.867   2.026   0.212 -0.0068 -0.6912  0.1207
19289TIP3    H279283   6.736   2.069   0.149  0.8082  1.2709 -0.3114
19290TIP3   OH279284   4.415   4.950   3.388  0.1228  0.0156 -0.4777
19290TIP3    H179285   4.508   4.956   3.363  0.2774  2.0061  0.3245
19290TIP3    H279286   4.416   4.898   3.469  0.5941  0.2440 -0.3277
19291TIP3   OH279287   3.281   2.359  15.213  0.2518  0.3316 -1.0006
19291TIP3    H179288   3.194   2.343  15.176 -0.2557 -0.3149  0.4110
19291TIP3    H279289   3.285   2.454  15.225 -2.1298  0.1806  3.0381
19292TIP3   OH279290   4.954   4.573  15.223 -1.1859  0.6883 -0.0563
19292TIP3    H179291   4.914   4.622  15.295 -0.6136  0.2337  0.5787
19292TIP3    H279292   5.045   4.604  15.221 -0.8334 -0.3098  0.3190
19293TIP3   OH279293   3.114   4.789   2.824 -0.4106  0.1535 -0.0615
19293TIP3    H179294   3.047   4.827   2.880 -2.3645  0.2730 -2.2991
19293TIP3    H279295   3.078   4.797   2.735  2.2372 -0.5234 -1.3042
19294TIP3   OH279296   3.742   3.913  11.639 -0.0455  0.3221  0.0130
19294TIP3    H179297   3.694   3.887  11.718 -0.2739  0.9530  0.0855
19294TIP3    H279298   3.832   3.926  11.668 -0.2322  1.0546  0.2798
19295TIP3   OH279299   1.609   6.406  14.189 -0.1056 -0.0710  0.7135
19295TIP3    H179300   1.544   6.434  14.124  0.0406 -0.5078  0.3789
19295TIP3    H279301   1.691   6.445  14.159  0.0932 -0.8305  0.2623
19296TIP3   OH279302   3.068   1.184  14.085 -0.4531 -0.8909 -0.0871
19296TIP3    H179303   3.082   1.164  13.992 -0.2346  3.5821 -1.2431
19296TIP3    H279304   2.977   1.212  14.090  0.0828  0.8714  0.5435
19297TIP3   OH279305   0.232   2.238  11.414 -0.0120 -0.1366 -0.0937
19297TIP3    H179306   0.308   2.210  11.362  0.6704 -0.8851  1.2466
19297TIP3    H279307   0.177   2.160  11.420 -0.2845  0.0584 -0.0506
19298TIP3   OH279308   0.951   5.208   5.845 -0.5126  0.2908  0.6637
19298TIP3    H179309   1.025   5.202   5.784  0.2296 -0.2938  1.5964
19298TIP3    H279310   0.928   5.301   5.845  1.0913  0.7250  1.3215
19299TIP3   OH279311   4.548   4.670   3.969 -0.8373 -0.0993 -0.0267
19299TIP3    H179312   4.559   4.749   3.916 -0.4388 -0.0138  0.1767
19299TIP3    H279313   4.551   4.598   3.906 -3.5383  0.1217 -0.5383
19300TIP3   OH279314   3.466   5.537   2.613  0.3799 -0.2036 -0.4426
19300TIP3    H179315   3.512   5.613   2.577  0.7417 -0.7706 -1.2069
19300TIP3    H279316   3.517   5.462   2.582 -1.7060 -0.9424 -2.3925
19301TIP3   OH279317   6.700   6.583   0.733  0.0245  0.1685  0.5635
19301TIP3    H179318   6.770   6.543   0.784  0.7796  2.0669  1.1160
19301TIP3    H279319   6.623   6.527   0.748  1.2214 -1.5647  0.4932
19302TIP3   OH279320   0.309   3.082  16.722 -0.4277  0.7053 -0.5677
19302TIP3    H179321   0.267   3.019  16.781 -1.0674  1.6463  0.0047
19302TIP3    H279322   0.375   3.031  16.676  0.5527  0.0702  1.4448
19303TIP3   OH279323   0.922   1.415   0.056  0.4936  0.0433 -0.2183
19303TIP3    H179324   0.876   1.404   0.139  0.2193  1.4443 -0.1636
19303TIP3    H279325   1.011   1.438   0.081  0.6299 -0.3775 -0.3164
19304TIP3   OH279326   2.013   1.590  12.528  0.6102  0.3957 -0.2084
19304TIP3    H179327   2.079   1.635  12.474  0.2509 -1.3064 -2.2106
19304TIP3    H279328   1.932   1.597  12.478  0.0482 -0.4920  0.5389
19305TIP3   OH279329   1.362   0.088   2.356 -0.3955  0.2708  0.4669
19305TIP3    H179330   1.366   0.088   2.451  1.7015  1.0345  0.4380
19305TIP3    H279331   1.365   0.181   2.332 -0.0822  0.0623 -0.3412
19306TIP3   OH279332   1.384   5.927  14.165  0.1011 -0.3915 -0.2155
19306TIP3    H179333   1.411   5.930  14.257  2.0855 -1.9602 -0.6779
19306TIP3    H279334   1.340   5.843  14.156 -0.9904  0.1983 -0.5004
19307TIP3   OH279335   1.501   0.033  16.179 -0.2747 -0.6331 -0.1507
19307TIP3    H179336   1.506   0.113  16.233 -1.9133  0.1590 -1.1061
19307TIP3    H279337   1.570   0.044  16.114  0.5434 -0.7631  0.6661
19308TIP3   OH279338   5.644   0.449   0.203 -0.5523 -0.2858 -0.3189
19308TIP3    H179339   5.739   0.452   0.213 -0.6171  0.1232  0.2547
19308TIP3    H279340   5.621   0.357   0.212 -0.1864 -0.4111 -0.6784
19309TIP3   OH279341   6.749   3.472  16.920 -0.6492 -0.2912  0.2637
19309TIP3    H179342   6.830   3.430  16.891 -0.4609  0.4706 -0.3381
19309TIP3    H279343   6.768   3.502  17.008  0.7136  2.3467 -0.8276
19310TIP3   OH279344   4.222   3.118  10.896  0.1412  0.6047 -0.3556
19310TIP3    H179345   4.163   3.096  10.825 -0.9528  0.6291  0.5133
19310TIP3    H279346   4.260   3.034  10.922 -0.8992  0.2976  0.2504
19311TIP3   OH279347   2.311   6.582   3.260  0.2324  0.2425 -0.0575
19311TIP3    H179348   2.320   6.677   3.264  1.1912  0.2129 -1.0750
19311TIP3    H279349   2.229   6.564   3.307  0.4816  1.4738  0.9017
19312TIP3   OH279350   3.358   4.453  14.149 -0.1108 -0.1156  0.3954
19312TIP3    H179351   3.366   4.413  14.062  1.1268  0.2033  0.3491
19312TIP3    H279352   3.331   4.543  14.131 -0.0905 -0.1177  0.3515
19313TIP3   OH279353   5.983   6.504   5.244  0.0297  0.2871 -0.0313
19313TIP3    H179354   5.963   6.494   5.151  0.2816  0.1850 -0.0768
19313TIP3    H279355   6.067   6.549   5.246 -0.4909  1.2681  0.1648
19314TIP3   OH279356   3.006   2.212  15.895  0.0052 -0.2606  0.5592
19314TIP3    H179357   2.994   2.123  15.862  0.9622 -0.5134  0.8623
19314TIP3    H279358   3.089   2.241  15.856 -0.9899  1.0587 -0.7305
19315TIP3   OH279359   0.124   0.904   2.659 -0.0103 -0.2027 -0.3209
19315TIP3    H179360   0.158   0.989   2.631  0.8608 -1.0917 -2.1697
19315TIP3    H279361   0.078   0.871   2.582  1.2635 -2.1853 -0.2967
19316TIP3   OH279362   3.495   3.360  11.381  0.3584  0.0900  0.2737
19316TIP3    H179363   3.566   3.421  11.360  0.3949 -0.3230 -0.9026
19316TIP3    H279364   3.419   3.394  11.335  0.4688 -0.9211 -0.7116
19317TIP3   OH279365   4.578   4.636   1.569 -0.1320 -0.3215 -0.4189
19317TIP3    H179366   4.512   4.703   1.588  0.6123 -0.0249  1.2284
19317TIP3    H279367   4.569   4.572   1.640  0.7389 -0.7673 -0.6942
19318TIP3   OH279368   2.231   6.748  14.625  0.0426  0.1443 -0.3435
19318TIP3    H179369   2.262   6.776  14.711  2.0239 -1.3238 -0.4979
19318TIP3    H279370   2.136   6.757  14.630  0.2321  1.9865  1.2718
19319TIP3   OH279371   6.229   4.477  14.813 -0.2478  0.1254  0.1010
19319TIP3    H179372   6.170   4.551  14.800  0.2363  0.3859 -0.6355
19319TIP3    H279373   6.193   4.431  14.889 -2.7590 -1.0371 -1.6682
19320TIP3   OH279374   2.552   4.100   4.721  0.3531  0.2636 -1.0177
19320TIP3    H179375   2.531   4.099   4.628 -0.1159  0.3187 -0.9126
19320TIP3    H279376   2.616   4.029   4.732 -1.1596 -1.1479 -1.0059
19321TIP3   OH279377   1.034   1.442   0.705 -0.0460 -0.2471 -0.3210
19321TIP3    H179378   1.008   1.358   0.742  0.1153  0.3445  1.2054
19321TIP3    H279379   1.123   1.456   0.736  0.0163  0.3808 -0.7515
19322TIP3   OH279380   1.055   5.599  12.874  0.8119  0.1622  0.7169
19322TIP3    H179381   1.065   5.678  12.928 -1.5493 -0.2157  1.8463
19322TIP3    H279382   0.984   5.621  12.813  0.2012 -1.0205  0.9681
19323TIP3   OH279383   1.390   3.663  15.269  0.7390 -0.1388  0.3540
19323TIP3    H179384   1.432   3.651  15.354  2.9772  0.6177 -0.5584
19323TIP3    H279385   1.327   3.592  15.262  0.9885 -0.5926  2.3580
19324TIP3   OH279386   1.254   0.444  13.795  0.3266  0.0766  0.0426
19324TIP3    H179387   1.221   0.387  13.725  0.8234 -0.6155  0.3563
19324TIP3    H279388   1.282   0.384  13.864  0.3966  0.7271  0.5937
19325TIP3   OH279389   1.203   5.529   0.046 -0.0952 -0.2527  0.0820
19325TIP3    H179390   1.108   5.521   0.062 -0.1047 -1.4901 -0.4801
19325TIP3    H279391   1.211   5.606  -0.011 -0.7020  0.1749  0.5550
19326TIP3   OH279392   2.347   5.889  15.453 -0.2196  0.1454 -0.5508
19326TIP3    H179393   2.394   5.942  15.388 -1.6477  0.5944 -1.2627
19326TIP3    H279394   2.319   5.811  15.405  0.3373 -0.4274  0.0353
19327TIP3   OH279395   5.519   5.782  14.309  0.3348  0.2042  0.0647
19327TIP3    H179396   5.564   5.708  14.350 -1.3252 -0.1302  1.3476
19327TIP3    H279397   5.579   5.811  14.240  2.4996 -0.2276  1.6703
19328TIP3   OH279398   3.420   2.178   6.031  0.2244  0.2368 -0.2240
19328TIP3    H179399   3.475   2.249   6.064 -0.1622  0.0999  0.7426
19328TIP3    H279400   3.332   2.199   6.065  0.2074 -0.9822  0.5255
19329TIP3   OH279401   2.678   0.618   6.827 -0.0566 -0.0844 -0.3814
19329TIP3    H179402   2.757   0.565   6.812  0.1051 -0.1773  0.6830
19329TIP3    H279403   2.686   0.691   6.766  1.0495  0.1013 -0.0446
19330TIP3   OH279404   4.847   0.280   0.610 -0.1632 -0.6081 -0.1590
19330TIP3    H179405   4.880   0.284   0.520 -0.2226 -1.7871 -0.2511
19330TIP3    H279406   4.926   0.269   0.663 -0.2506 -1.9631 -0.2599
19331TIP3   OH279407   1.940   5.569   2.940  0.6245 -0.0320 -0.0873
19331TIP3    H179408   1.937   5.549   2.846  1.6465 -0.9144  0.0537
19331TIP3    H279409   2.025   5.611   2.953 -0.0466  1.2903  0.2383
19332TIP3   OH279410   1.443   1.336   1.375 -0.2302  0.0277  0.4749
19332TIP3    H179411   1.446   1.242   1.359 -1.2429 -0.0679  0.7975
19332TIP3    H279412   1.350   1.358   1.373 -0.0334  0.9463  0.8553
19333TIP3   OH279413   3.364   2.245   6.411  0.6815 -0.4468 -0.0949
19333TIP3    H179414   3.343   2.231   6.319 -5.1042  0.5134  0.7039
19333TIP3    H279415   3.374   2.340   6.419 -0.6630 -0.3151  0.3978
19334TIP3   OH279416   4.284   5.467   2.692  0.1631 -0.2156  0.1911
19334TIP3    H179417   4.203   5.423   2.719 -1.2043 -0.8198 -4.1172
19334TIP3    H279418   4.271   5.559   2.718 -2.0304 -0.2656 -0.5094
19335TIP3   OH279419   4.824   5.522   4.074  0.7003 -0.0742 -0.5956
19335TIP3    H179420   4.901   5.523   4.017 -0.1218  2.7137 -1.8413
19335TIP3    H279421   4.781   5.439   4.055  3.0594 -1.4744 -0.2499
19336TIP3   OH279422   2.219   6.140   5.864  0.4673  0.0981 -0.4202
19336TIP3    H179423   2.171   6.222   5.878  0.0919  0.0141 -1.1732
19336TIP3    H279424   2.174   6.097   5.791  0.8575 -0.6290 -0.2488
19337TIP3   OH279425   6.302   4.328   4.458 -0.5932  0.3540 -0.2922
19337TIP3    H179426   6.309   4.343   4.552 -2.5375  0.4721 -0.1358
19337TIP3    H279427   6.350   4.247   4.443 -1.0241 -0.1544  0.9461
19338TIP3   OH279428   3.659   3.225  16.343 -0.0764 -0.0861  0.2890
19338TIP3    H179429   3.603   3.303  16.342  0.8549  0.6066 -0.3880
19338TIP3    H279430   3.742   3.257  16.380  1.7771  0.3586 -3.7292
19339TIP3   OH279431   3.245   5.012   6.451  0.0218  0.0660 -0.1306
19339TIP3    H179432   3.198   5.025   6.369 -0.2690  0.3581  0.0776
19339TIP3    H279433   3.203   4.936   6.491  0.7349 -0.6108 -0.6529
19340TIP3   OH279434   3.073   3.076  11.894  0.2267  0.3056  0.3597
19340TIP3    H179435   2.981   3.098  11.880  0.5160  1.4393  0.1226
19340TIP3    H279436   3.084   3.081  11.989 -0.1183 -0.5720  0.4575
19341TIP3   OH279437   0.199   4.339  16.474 -0.5067  0.1315 -0.0421
19341TIP3    H179438   0.233   4.254  16.445 -1.9406 -0.1326 -1.0326
19341TIP3    H279439   0.179   4.326  16.567 -2.2149 -1.1373 -0.5397
19342TIP3   OH279440   0.898   1.964   3.543  0.3883  0.0416  0.2771
19342TIP3    H179441   0.917   1.970   3.449 -1.3452 -0.1843 -0.1172
19342TIP3    H279442   0.913   1.872   3.564  1.8569  0.3082  0.4986
19343TIP3   OH279443   2.444   1.856  16.907  0.3941 -0.0659  0.5097
19343TIP3    H179444   2.478   1.915  16.840  0.5749 -0.1987  0.4839
19343TIP3    H279445   2.433   1.911  16.984 -0.5886  0.2748  0.1438
19344TIP3   OH279446   1.996   2.497  12.715  0.8445  0.7218  0.2770
19344TIP3    H179447   1.960   2.437  12.649  2.1227  1.2653 -0.9660
19344TIP3    H279448   1.937   2.572  12.712  0.8517  0.7145 -0.2063
19345TIP3   OH279449   0.322   1.818  12.612  0.3537 -0.0772 -0.0460
19345TIP3    H179450   0.296   1.850  12.525 -0.4549 -1.6358 -0.4130
19345TIP3    H279451   0.402   1.768  12.596  0.4356 -0.0228  0.1890
19346TIP3   OH279452   0.384   2.615  11.353  0.1088 -0.4031 -0.1222
19346TIP3    H179453   0.353   2.679  11.418  0.8857 -1.9251  1.8503
19346TIP3    H279454   0.355   2.650  11.269 -1.6572  1.2556  1.1001
19347TIP3   OH279455   5.667   4.570   6.097  0.1866 -0.1946 -0.3375
19347TIP3    H179456   5.582   4.588   6.138  0.8281 -0.0881  1.0173
19347TIP3    H279457   5.689   4.652   6.052 -0.7304 -0.4562 -1.2928
19348TIP3   OH279458   0.207   4.683   2.667 -0.0855 -0.0071  0.1829
19348TIP3    H179459   0.230   4.689   2.575 -1.1850 -2.3695 -0.3330
19348TIP3    H279460   0.116   4.714   2.671 -0.2158 -0.4023  0.3621
19349TIP3   OH279461   2.852   1.512  17.238 -0.1441 -0.3787 -0.1281
19349TIP3    H179462   2.815   1.556  17.162  0.8317 -0.4909 -0.6838
19349TIP3    H279463   2.794   1.437  17.253 -0.5588 -0.1436 -0.5269
19350TIP3   OH279464   3.517   1.766   1.404 -0.0573  0.3839  0.2950
19350TIP3    H179465   3.513   1.703   1.476  0.0688  1.2986  1.1291
19350TIP3    H279466   3.488   1.848   1.443  1.5364  1.2529 -0.2956
19351TIP3   OH279467   3.721   2.713   3.561  0.1862 -0.2988  0.0413
19351TIP3    H179468   3.746   2.683   3.649  0.2599 -0.0590  0.1024
19351TIP3    H279469   3.663   2.645   3.528  2.8589 -2.2134 -1.1228
19352TIP3   OH279470   4.975   2.698  15.304 -0.0438 -0.3382 -0.0558
19352TIP3    H179471   4.978   2.717  15.210 -0.6603  0.3386  0.0558
19352TIP3    H279472   5.002   2.780  15.346  3.9484 -1.6297  0.3215
19353TIP3   OH279473   2.426   5.318   3.777  0.2689 -0.1844 -0.2999
19353TIP3    H179474   2.487   5.329   3.704  0.4286 -3.6778 -0.8699
19353TIP3    H279475   2.342   5.300   3.736 -0.0395 -0.3863  0.4008
19354TIP3   OH279476   2.361   4.403   0.745  0.0941  0.4375 -0.0986
19354TIP3    H179477   2.301   4.423   0.817  0.5815  1.2242  0.1088
19354TIP3    H279478   2.360   4.308   0.739 -0.7511  0.4103  0.2610
19355TIP3   OH279479   4.981   2.499   4.902  0.1650  0.9485 -0.9584
19355TIP3    H179480   5.028   2.423   4.936 -1.9411  0.1575  0.4021
19355TIP3    H279481   5.039   2.573   4.920  1.1476 -0.0342  0.1284
19356TIP3   OH279482   1.909   0.156   3.496  0.0513 -0.3691 -0.5865
19356TIP3    H179483   1.846   0.204   3.442  1.6874 -0.4852 -2.7659
19356TIP3    H279484   1.926   0.076   3.446  2.9601  0.3184 -0.9206
19357TIP3   OH279485   5.623   0.811   5.149  0.2997  0.4942 -0.2867
19357TIP3    H179486   5.709   0.785   5.118 -1.0017 -1.3968 -2.7405
19357TIP3    H279487   5.580   0.848   5.072 -0.9264  1.8612  0.9960
19358TIP3   OH279488   3.313   0.180   0.707  0.5333 -0.8301 -0.7252
19358TIP3    H179489   3.304   0.088   0.732  1.1103 -1.2332 -1.8969
19358TIP3    H279490   3.400   0.205   0.738  0.4327 -0.7137 -0.5323
19359TIP3   OH279491   5.512   4.357   0.841 -0.8380  0.6051 -0.0862
19359TIP3    H179492   5.512   4.419   0.915 -1.6417  0.6190 -0.0873
19359TIP3    H279493   5.436   4.301   0.857  0.1270 -0.6852  0.1495
19360TIP3   OH279494   0.699   3.759   6.708 -0.1122 -0.0469  0.3983
19360TIP3    H179495   0.628   3.700   6.731  0.4995  0.0088  2.7538
19360TIP3    H279496   0.665   3.846   6.728  0.1365  0.0962  0.2022
19361TIP3   OH279497   2.558   2.280   3.721  0.1219 -0.2986  0.2188
19361TIP3    H179498   2.583   2.251   3.809  3.7041 -0.6165 -0.7368
19361TIP3    H279499   2.603   2.363   3.709 -2.1360  0.8877 -0.5896
19362TIP3   OH279500   1.360   5.322   0.655 -0.8061 -0.6683  0.3939
19362TIP3    H179501   1.454   5.327   0.666 -0.6347 -0.6510 -0.8916
19362TIP3    H279502   1.328   5.279   0.734  0.3988 -1.6767  0.3519
19363TIP3   OH279503   4.614   4.273   5.442  0.2011 -0.0610  0.2414
19363TIP3    H179504   4.651   4.361   5.444  1.7873 -0.6674 -0.6731
19363TIP3    H279505   4.614   4.246   5.534  1.7240  0.1164  0.3242
19364TIP3   OH279506   2.102   1.238   5.265  0.4702 -0.2598 -0.2137
19364TIP3    H179507   2.145   1.290   5.198 -0.3778 -0.0663 -0.6302
19364TIP3    H279508   2.042   1.181   5.217 -1.2767  0.9452  0.4203
19365TIP3   OH279509   3.527   4.396   3.463 -0.4526 -0.5417 -0.4145
19365TIP3    H179510   3.584   4.447   3.407  1.6057 -1.6482  0.5559
19365TIP3    H279511   3.439   4.411   3.429  0.1698  2.6136 -0.9193
19366TIP3   OH279512   3.489   0.555   5.672 -0.6044 -0.3839 -0.1241
19366TIP3    H179513   3.413   0.565   5.730 -1.6570 -1.5111 -1.2509
19366TIP3    H279514   3.473   0.472   5.626  0.9747 -0.2908 -0.8905
19367TIP3   OH279515   2.219   2.193  14.624 -0.3133 -0.2081 -0.2043
19367TIP3    H179516   2.290   2.211  14.563 -0.1911 -3.4356 -1.1831
19367TIP3    H279517   2.141   2.183  14.570 -0.8217 -0.1632  0.4947
19368TIP3   OH279518   4.363   2.437   2.968  0.5450 -0.1324 -0.0913
19368TIP3    H179519   4.315   2.460   2.889  0.6766  2.0438  0.4053
19368TIP3    H279520   4.429   2.374   2.939  0.0092 -0.0607 -1.5413
19369TIP3   OH279521   5.562   4.178  16.098 -0.3269 -0.3343 -0.4533
19369TIP3    H179522   5.572   4.264  16.057  0.0024  0.1057  0.5259
19369TIP3    H279523   5.493   4.136  16.046 -0.8457  0.7023 -0.6522
19370TIP3   OH279524   4.512   4.920   5.359 -0.0259  0.2829  0.0213
19370TIP3    H179525   4.594   4.876   5.379  1.0370  2.4011  0.6841
19370TIP3    H279526   4.520   5.005   5.403 -1.5527  1.4929 -1.9108
19371TIP3   OH279527   5.976   2.194   4.711 -0.3252  0.3660  0.3654
19371TIP3    H179528   5.934   2.224   4.792  1.3797 -1.7388  2.1587
19371TIP3    H279529   5.969   2.099   4.714 -1.4861  0.2267 -2.7849
19372TIP3   OH279530   5.551   6.620  16.923  0.1902 -0.0697 -0.0586
19372TIP3    H179531   5.574   6.623  16.830  1.2919 -1.2330  0.1564
19372TIP3    H279532   5.543   6.527  16.943 -2.2685  0.1855  0.5116
19373TIP3   OH279533   6.567   0.429   6.101  0.1688 -0.3857 -0.7014
19373TIP3    H179534   6.562   0.409   6.008 -1.6270 -2.4557 -0.2416
19373TIP3    H279535   6.479   0.458   6.124  0.5007 -0.2024  0.4082
19374TIP3   OH279536   5.484   4.983   4.592 -0.0578 -1.1754 -0.1564
19374TIP3    H179537   5.447   5.011   4.675  3.2005 -0.9436  1.3890
19374TIP3    H279538   5.556   5.044   4.576 -0.4878 -1.2974 -3.1380
19375TIP3   OH279539   5.174   5.420  15.805 -0.2380 -0.3148  0.2272
19375TIP3    H179540   5.126   5.341  15.780 -1.8432  0.1061  1.8073
19375TIP3    H279541   5.218   5.447  15.725 -0.6981 -2.0685 -0.6744
19376TIP3   OH279542   0.967   3.520   1.788  0.2438  1.1644 -0.6527
19376TIP3    H179543   0.965   3.468   1.869  4.1831  0.0426 -1.0835
19376TIP3    H279544   0.875   3.536   1.768 -0.9728  1.8908  4.2100
19377TIP3   OH279545   3.773   4.184   4.246  0.2070 -0.0976  0.0183
19377TIP3    H179546   3.868   4.178   4.259  0.3551 -1.1586 -1.4022
19377TIP3    H279547   3.736   4.122   4.309  0.5431 -0.6120 -0.2848
19378TIP3   OH279548   6.400   4.121  15.279 -0.4494 -0.5146  0.5905
19378TIP3    H179549   6.434   4.078  15.201 -1.4165 -1.2901  0.5798
19378TIP3    H279550   6.324   4.171  15.248 -0.6342 -0.5533  0.9717
19379TIP3   OH279551   4.276   1.702   0.008 -0.2696 -0.6626  0.3818
19379TIP3    H179552   4.295   1.711   0.101  0.3568 -2.0366  0.4042
19379TIP3    H279553   4.183   1.680   0.005 -0.1675 -1.1386  0.7143
19380TIP3   OH279554   3.509   5.964  14.470  0.5387  0.5100  0.4401
19380TIP3    H179555   3.435   5.905  14.456  0.7228  0.0446  1.3695
19380TIP3    H279556   3.469   6.045  14.504  0.3672  0.6365 -0.0475
19381TIP3   OH279557   1.883   3.411  16.765  0.1861  0.0497  0.6258
19381TIP3    H179558   1.873   3.345  16.696 -0.1624  1.3633 -0.6204
19381TIP3    H279559   1.793   3.434  16.789  0.2980 -0.6105  1.7682
19382TIP3   OH279560   1.434   1.094  11.508 -0.4421 -0.5319  0.0299
19382TIP3    H179561   1.340   1.111  11.514 -0.6338 -1.2839 -0.6105
19382TIP3    H279562   1.474   1.180  11.496 -1.2514 -0.3545 -1.8685
19383TIP3   OH279563   4.960   5.975  16.648 -0.1810 -0.1598 -0.2724
19383TIP3    H179564   4.927   5.956  16.736 -0.4681  1.2321 -0.0709
19383TIP3    H279565   4.922   6.059  16.625 -0.0087 -0.4416 -1.6949
19384TIP3   OH279566   1.822   6.557  14.136 -0.0582  0.3472 -0.8587
19384TIP3    H179567   1.912   6.533  14.115 -0.4162 -2.0976 -0.0225
19384TIP3    H279568   1.830   6.629  14.198  1.3939 -0.3835 -0.1304
19385TIP3   OH279569   5.630   4.968   1.197  0.1912  0.2161  0.0738
19385TIP3    H179570   5.545   4.988   1.237  0.8607  1.3562  0.9958
19385TIP3    H279571   5.686   4.944   1.271  1.1549  1.2610 -0.2894
19386TIP3   OH279572   5.847   4.479   3.678  0.1825 -0.2183 -0.2481
19386TIP3    H179573   5.796   4.486   3.598 -0.0625  2.8445  0.0537
19386TIP3    H279574   5.782   4.472   3.748  0.0119  3.3030  0.1028
19387TIP3   OH279575   5.326   1.876   1.960  0.3916 -0.0526 -0.0411
19387TIP3    H179576   5.392   1.930   1.917 -0.0673  0.6308  0.0961
19387TIP3    H279577   5.374   1.799   1.990  0.7475 -0.4761 -1.6150
19388TIP3   OH279578   2.532   4.193  10.937  0.0361 -0.0074  0.3885
19388TIP3    H179579   2.484   4.116  10.906  0.3953  0.1450 -0.5852
19388TIP3    H279580   2.598   4.208  10.869  1.9602 -0.6678  2.0418
19389TIP3   OH279581   3.453   1.200   1.248 -0.5973 -0.5559 -0.2940
19389TIP3    H179582   3.387   1.212   1.179 -0.5388 -0.1432 -0.2809
19389TIP3    H279583   3.420   1.250   1.322 -0.4561 -0.6624 -0.1572
19390TIP3   OH279584   5.201   2.217  16.874  0.0837 -0.1110 -0.2724
19390TIP3    H179585   5.141   2.215  16.799  0.9391 -1.4759 -0.9676
19390TIP3    H279586   5.221   2.310  16.886  0.6507  0.0794 -2.3396
19391TIP3   OH279587   0.735   5.364   0.144 -0.5007 -0.3040 -0.4998
19391TIP3    H179588   0.735   5.268   0.146 -0.9735 -0.3243 -1.1295
19391TIP3    H279589   0.652   5.389   0.184 -1.4564 -0.2415 -2.3850
19392TIP3   OH279590   2.166   1.184   2.758 -0.1778  0.4517 -0.1907
19392TIP3    H179591   2.157   1.270   2.798 -0.2315 -0.2305  1.3364
19392TIP3    H279592   2.234   1.195   2.691  1.2355  1.2313  1.3127
19393TIP3   OH279593   5.355   3.980  13.082  0.1793 -0.1443 -0.3199
19393TIP3    H179594   5.444   4.009  13.102 -0.0651  2.2463 -2.2603
19393TIP3    H279595   5.329   4.032  13.006 -2.3964 -1.7697 -0.6847
19394TIP3   OH279596   4.645   4.372   4.005 -0.1072 -0.6089 -0.7907
19394TIP3    H179597   4.700   4.436   4.050 -1.8613  0.8263 -0.5735
19394TIP3    H279598   4.637   4.406   3.916 -0.7966 -0.6742 -0.7606
19395TIP3   OH279599   3.110   2.395   1.723  0.6760  0.4220  0.2633
19395TIP3    H179600   3.052   2.418   1.651 -0.6798  2.0974  1.8011
19395TIP3    H279601   3.147   2.310   1.698  0.6550  1.1418 -2.5941
19396TIP3   OH279602   0.732   0.001  12.488  0.1202  0.1970  0.4516
19396TIP3    H179603   0.730   0.043  12.403  0.3595 -0.1298  0.2820
19396TIP3    H279604   0.804   0.044  12.534  2.4049 -2.0318 -0.7976
19397TIP3   OH279605   0.057   3.456  11.860 -0.0888 -0.4735  0.3834
19397TIP3    H179606   0.054   3.520  11.789 -0.6722 -0.4927  0.3847
19397TIP3    H279607   0.147   3.423  11.859  0.5415  1.1526  1.1138
19398TIP3   OH279608   2.399   1.776   0.713 -0.6892 -0.8616 -0.0374
19398TIP3    H179609   2.417   1.770   0.620  0.1198 -1.0922  0.1239
19398TIP3    H279610   2.352   1.859   0.724  0.3143 -0.2187 -0.4906
19399TIP3   OH279611   0.973   0.408  16.255 -0.4502  0.3229  0.1071
19399TIP3    H179612   0.903   0.375  16.311 -0.8990  1.0163 -0.0398
19399TIP3    H279613   1.013   0.330  16.217 -0.2383 -0.1513  1.2709
19400TIP3   OH279614   4.518   3.499   4.360 -0.5213  0.0608 -0.1868
19400TIP3    H179615   4.586   3.471   4.299  0.3364  0.1179  0.7125
19400TIP3    H279616   4.559   3.494   4.446 -1.2561  1.3349  0.2662
19401TIP3   OH279617   6.523   5.088   0.556 -0.4433  0.0764  0.1068
19401TIP3    H179618   6.567   5.022   0.502  1.2488  0.1141  1.3362
19401TIP3    H279619   6.442   5.045   0.585  0.5706 -1.4865  0.8113
19402TIP3   OH279620   1.595   4.022  13.503 -0.4768  0.5793  0.0575
19402TIP3    H179621   1.688   4.012  13.520 -0.8785 -0.3660  2.0479
19402TIP3    H279622   1.579   4.117  13.511  0.1615  0.6457  0.6428
19403TIP3   OH279623   0.400   3.198   5.232 -0.3078 -0.0709  0.2529
19403TIP3    H179624   0.332   3.258   5.262 -0.0397  0.1004  0.5230
19403TIP3    H279625   0.479   3.251   5.231  0.1387 -0.6613  1.4803
19404TIP3   OH279626   3.628   5.670   2.267  0.4131 -0.2647  0.3040
19404TIP3    H179627   3.593   5.672   2.177  0.6728 -1.9574  0.1385
19404TIP3    H279628   3.716   5.707   2.258 -0.4190  1.9123  0.3394
19405TIP3   OH279629   3.454   6.109   0.203  0.2994 -0.2167  0.2444
19405TIP3    H179630   3.409   6.126   0.286  0.8543  0.1666  0.4708
19405TIP3    H279631   3.547   6.117   0.224  0.4877 -1.1104 -0.1944
19406TIP3   OH279632   4.390   1.558   0.912  0.3120 -0.6247 -0.2843
19406TIP3    H179633   4.322   1.513   0.961  0.8562 -1.4491 -0.2568
19406TIP3    H279634   4.347   1.589   0.833  0.0408 -1.7106 -0.5804
19407TIP3   OH279635   0.188   6.067  16.035  0.5351  0.1689 -0.5101
19407TIP3    H179636   0.178   6.010  15.959 -0.7704 -0.1786 -0.0866
19407TIP3    H279637   0.235   6.014  16.099  0.0795 -0.1380 -0.4292
19408TIP3   OH279638   6.095   1.599  16.089 -0.1138  0.1766  0.1274
19408TIP3    H179639   6.071   1.507  16.077  0.6863  0.2002 -2.3633
19408TIP3    H279640   6.050   1.645  16.017  1.8277  1.2322 -0.5118
19409TIP3   OH279641   4.070   1.716   5.864  0.1027  0.5457 -0.3612
19409TIP3    H179642   4.159   1.691   5.839 -0.0394 -1.0703  0.6005
19409TIP3    H279643   4.069   1.708   5.959 -1.2574 -0.1871 -0.4056
19410TIP3   OH279644   1.641   3.542   2.471 -0.0852 -0.5846  0.0467
19410TIP3    H179645   1.657   3.517   2.380  1.1917 -1.5525  0.5025
19410TIP3    H279646   1.613   3.461   2.514  0.5268 -0.4272  0.7703
19411TIP3   OH279647   5.619   5.832  15.948  0.0356  0.2070 -0.3153
19411TIP3    H179648   5.627   5.927  15.944  1.2539  0.1941  1.1201
19411TIP3    H279649   5.663   5.800  15.869  1.5237  0.7684  0.2598
19412TIP3   OH279650   0.826   6.197  14.875  0.2988 -0.1196 -0.3929
19412TIP3    H179651   0.855   6.252  14.802  2.1117 -0.4711 -0.0025
19412TIP3    H279652   0.885   6.122  14.874  0.2412 -0.2417  1.2821
19413TIP3   OH279653   6.105   5.709  16.787 -0.6222  0.0153 -0.1793
19413TIP3    H179654   6.170   5.668  16.845 -1.2612  0.5000  0.9113
19413TIP3    H279655   6.024   5.662  16.804 -0.7536 -0.0460 -0.9298
19414TIP3   OH279656   1.439   6.114   5.016  1.1367  0.0693 -0.4215
19414TIP3    H179657   1.401   6.116   4.928  2.3181 -0.6064 -0.9604
19414TIP3    H279658   1.385   6.051   5.063  0.1878  0.7982 -0.4994
19415TIP3   OH279659   5.963   0.569  12.043 -0.2728  0.0143 -0.0404
19415TIP3    H179660   5.934   0.569  12.134 -0.7474 -2.0726 -0.1410
19415TIP3    H279661   6.057   0.556  12.047 -0.4577 -1.4233  0.1681
19416TIP3   OH279662   4.607   0.576   6.251 -0.2191 -0.3746  0.5018
19416TIP3    H179663   4.557   0.561   6.331  0.0614  0.7348  0.8973
19416TIP3    H279664   4.596   0.495   6.201 -1.3192 -0.6584  1.1598
19417TIP3   OH279665   6.259   2.524   0.381  0.2416 -0.0371  0.0224
19417TIP3    H179666   6.204   2.534   0.459  0.2457 -2.5311  0.4284
19417TIP3    H279667   6.209   2.565   0.311 -2.0050 -1.8925  0.4470
19418TIP3   OH279668   0.857   3.748   3.012 -0.0496 -0.3415  0.2202
19418TIP3    H179669   0.787   3.813   3.019  0.4378  0.1564  0.5572
19418TIP3    H279670   0.912   3.780   2.941  1.0900  0.5027  1.4381
19419TIP3   OH279671   5.094   5.908   2.052  0.0597  0.1443  0.1703
19419TIP3    H179672   5.005   5.877   2.070  0.2411  0.3803  1.5663
19419TIP3    H279673   5.141   5.830   2.023 -0.4159 -0.1376  0.1504
19420TIP3   OH279674   5.458   5.461  13.673 -0.3775 -0.0829 -0.0428
19420TIP3    H179675   5.551   5.478  13.682 -0.7623  2.3019  0.0067
19420TIP3    H279676   5.437   5.400  13.745  1.2829 -1.5351 -0.7201
19421TIP3   OH279677   5.360   5.389  16.837 -0.0213 -0.3333  0.4216
19421TIP3    H179678   5.393   5.340  16.913 -2.7255 -1.8239  0.7726
19421TIP3    H279679   5.332   5.473  16.873 -2.1357 -1.3719  1.3355
19422TIP3   OH279680   0.962   5.703   6.579  0.1257  0.7164  0.7748
19422TIP3    H179681   0.936   5.666   6.495  0.0889  1.4297  0.4615
19422TIP3    H279682   0.892   5.765   6.601 -0.2019  0.0613  1.6614
19423TIP3   OH279683   3.723   0.362   5.594 -0.3815  0.1545  0.3805
19423TIP3    H179684   3.777   0.429   5.636  0.6730 -0.7377  0.5064
19423TIP3    H279685   3.780   0.286   5.589 -1.8165 -1.0146  1.0330
19424TIP3   OH279686   6.450   5.111   5.657 -0.7125 -0.3023  0.5252
19424TIP3    H179687   6.538   5.102   5.619 -1.1578  0.6076 -0.7964
19424TIP3    H279688   6.441   5.204   5.675 -1.8254 -0.1848 -0.4844
19425TIP3   OH279689   1.594   1.868   1.009 -0.2772  0.6159 -0.5624
19425TIP3    H179690   1.672   1.840   1.058  0.7105  1.9858 -1.2725
19425TIP3    H279691   1.629   1.921   0.937 -1.8358  0.6056 -1.3587
19426TIP3   OH279692   4.452   6.589   5.736  0.6206  0.1999  0.3735
19426TIP3    H179693   4.403   6.615   5.813  0.4485 -0.5233  0.5163
19426TIP3    H279694   4.390   6.597   5.664 -0.2099 -2.1382  0.7531
19427TIP3   OH279695   4.367   6.737   2.733  0.4468  0.6346 -0.1249
19427TIP3    H179696   4.274   6.717   2.747  0.5423  0.4542  0.2556
19427TIP3    H279697   4.400   6.663   2.681  0.4777  0.4820  0.1099
19428TIP3   OH279698   0.848   4.960  14.484  0.5834  0.1800  0.6962
19428TIP3    H179699   0.871   4.892  14.547  1.7730  0.9034  1.0620
19428TIP3    H279700   0.756   4.980  14.504  0.6934 -0.1937  1.6345
19429TIP3   OH279701   4.639   1.384  12.682  0.4893 -0.3422  0.4985
19429TIP3    H179702   4.549   1.399  12.709  0.3371  0.2266 -0.2803
19429TIP3    H279703   4.646   1.289  12.673  0.1301 -0.4278  1.0909
19430TIP3   OH279704   3.977   4.265   3.607 -0.0306  0.1399 -0.2835
19430TIP3    H179705   3.929   4.345   3.628 -0.7076 -0.4214  0.3591
19430TIP3    H279706   3.917   4.194   3.631  1.2660 -0.5944  0.9362
19431TIP3   OH279707   1.798   1.564  12.097  0.2259 -0.1911 -0.3005
19431TIP3    H179708   1.752   1.640  12.134  0.3333 -0.0447 -0.4661
19431TIP3    H279709   1.766   1.560  12.006  1.1129  0.3720 -0.6493
19432TIP3   OH279710   5.982   3.210   3.683  0.4927 -0.2528  0.6703
19432TIP3    H179711   5.890   3.184   3.691  0.7466 -0.8764  1.6822
19432TIP3    H279712   5.990   3.288   3.737  1.0800 -1.6001  2.6330
19433TIP3   OH279713   0.320   6.760  15.306  0.0197  0.2433 -1.0869
19433TIP3    H179714   0.225   6.744  15.308 -0.1035  0.8013  2.0514
19433TIP3    H279715   0.331   6.832  15.244 -1.5448 -0.0631 -1.7711
19434TIP3   OH279716   0.625   5.188  12.959  0.1607 -0.9555  0.2442
19434TIP3    H179717   0.581   5.152  12.881  0.7107  0.6850 -0.8938
19434TIP3    H279718   0.674   5.263  12.925  0.4961 -0.2548  2.1823
19435TIP3   OH279719   0.697   4.760   3.112 -0.6440 -0.2827  0.0547
19435TIP3    H179720   0.681   4.744   3.019 -1.3251  0.2045  0.0823
19435TIP3    H279721   0.790   4.741   3.124  0.1473  2.1925 -1.3120
19436TIP3   OH279722   0.234   3.950   4.504  0.7015 -0.1690 -0.1584
19436TIP3    H179723   0.277   3.868   4.479 -0.9966 -0.8603 -1.0133
19436TIP3    H279724   0.145   3.923   4.528 -0.2227  1.5464 -1.4735
19437TIP3   OH279725   1.144   0.723   1.739 -0.1996  0.4123  0.3946
19437TIP3    H179726   1.052   0.733   1.716 -0.6918 -1.0373  1.4919
19437TIP3    H279727   1.188   0.797   1.699 -2.1326  2.2435  1.4328
19438TIP3   OH279728   3.222   4.523   1.686  0.0919  0.0678  0.5959
19438TIP3    H179729   3.133   4.494   1.708  0.2203 -0.8341 -0.0349
19438TIP3    H279730   3.251   4.572   1.763 -0.8184  0.0601  0.9530
19439TIP3   OH279731   3.377   6.774   5.888  0.8271 -0.1545  0.4927
19439TIP3    H179732   3.385   6.799   5.980  0.2238 -0.1592  0.5493
19439TIP3    H279733   3.299   6.820   5.858  2.1842  1.5712 -0.5924
19440TIP3   OH279734   0.842   3.546   6.675  0.3257  0.5471 -0.1745
19440TIP3    H179735   0.819   3.553   6.582 -0.0263  1.5924 -0.0272
19440TIP3    H279736   0.812   3.629   6.713 -0.1622 -0.1488  1.0098
19441TIP3   OH279737   2.548   0.574  11.882  0.6078 -0.1853  0.8451
19441TIP3    H179738   2.642   0.590  11.876  0.7763 -1.1443  0.6759
19441TIP3    H279739   2.519   0.566  11.792  0.3724  0.0362  0.8988
19442TIP3   OH279740   4.302   1.232   2.076  0.0814 -0.5484  0.7393
19442TIP3    H179741   4.377   1.287   2.053 -0.8301 -0.5140 -2.6546
19442TIP3    H279742   4.332   1.143   2.062 -0.2393 -0.5672  0.1091
19443TIP3   OH279743   2.728   2.658  12.726 -0.2532  0.2984 -0.3591
19443TIP3    H179744   2.809   2.653  12.676 -0.5688 -0.1031 -0.8434
19443TIP3    H279745   2.659   2.664  12.660 -0.6813 -0.3045  0.0167
19444TIP3   OH279746   3.412   5.147  17.168 -0.1302  0.0031 -0.3450
19444TIP3    H179747   3.341   5.157  17.105 -1.4040  0.1934  1.0611
19444TIP3    H279748   3.398   5.060  17.206  0.0436  0.2835  0.3672
19445TIP3   OH279749   2.980   3.141  15.145 -0.2903 -0.2232  0.1751
19445TIP3    H179750   3.023   3.149  15.230 -0.5001 -0.7489  0.3313
19445TIP3    H279751   2.887   3.132  15.165 -0.3719 -0.0725 -0.1227
19446TIP3   OH279752   1.054   4.616   5.423  0.1359  0.3135  0.0878
19446TIP3    H179753   1.134   4.665   5.439  0.3228  0.4160 -1.0955
19446TIP3    H279754   1.041   4.619   5.328 -3.0544  3.1656  0.4254
19447TIP3   OH279755   0.428   2.612   5.989 -0.3353 -0.0910 -0.3559
19447TIP3    H179756   0.417   2.521   6.017 -0.0628  0.1636  0.6490
19447TIP3    H279757   0.344   2.637   5.952 -1.5040  0.1933  2.2402
19448TIP3   OH279758   3.428   3.191  13.890 -0.1221 -0.0562  0.6009
19448TIP3    H179759   3.474   3.121  13.937  1.8022 -0.2129 -1.3505
19448TIP3    H279760   3.474   3.271  13.914 -0.1046  0.0677  0.1628
19449TIP3   OH279761   5.986   4.945   4.322  0.0009  0.0449  0.3270
19449TIP3    H179762   5.968   5.038   4.337 -0.6149  0.1448 -0.8727
19449TIP3    H279763   5.901   4.907   4.305  0.4831 -0.1337 -2.1474
19450TIP3   OH279764   3.603   0.651   5.194 -0.5643  0.1862  0.4655
19450TIP3    H179765   3.691   0.683   5.174  0.4436 -3.6514 -2.3938
19450TIP3    H279766   3.599   0.651   5.289  3.5959 -1.6431  0.8720
19451TIP3   OH279767   4.316   6.363  10.547 -0.4742  0.1540 -0.1511
19451TIP3    H179768   4.247   6.382  10.611 -1.0682 -1.3109 -0.3256
19451TIP3    H279769   4.295   6.420  10.472 -1.3295 -0.0453 -0.0768
19452TIP3   OH279770   6.163   1.397  11.874 -0.6849 -0.0832  0.2325
19452TIP3    H179771   6.093   1.345  11.912 -2.3394  1.0032 -1.1955
19452TIP3    H279772   6.129   1.486  11.871  1.4530  0.8496  1.0957
19453TIP3   OH279773   0.604   3.343   5.827  0.0003  0.1749 -0.3265
19453TIP3    H179774   0.627   3.397   5.751 -1.1864 -0.2154 -0.9889
19453TIP3    H279775   0.612   3.253   5.795 -0.2398  0.0043  0.0946
19454TIP3   OH279776   1.452   0.925  15.003  0.1476 -0.2450 -0.3715
19454TIP3    H179777   1.368   0.928  14.957 -0.4689  1.9043  0.7540
19454TIP3    H279778   1.495   1.007  14.978  0.6793 -0.0105  1.2121
19455TIP3   OH279779   3.473   0.402  11.852  0.1503 -0.2369 -0.1560
19455TIP3    H179780   3.481   0.307  11.864 -1.3521 -0.3513  0.1748
19455TIP3    H279781   3.381   0.420  11.869  0.4470  1.3169 -0.0917
19456TIP3   OH279782   3.205   5.089   4.230 -0.0929  0.8237  0.0912
19456TIP3    H179783   3.264   5.055   4.297  1.6174 -2.7391 -2.8508
19456TIP3    H279784   3.125   5.037   4.239 -0.7357  1.8967  0.7158
19457TIP3   OH279785   6.050   0.391   2.632 -0.2387 -0.1189  0.5477
19457TIP3    H179786   6.031   0.420   2.721  1.2312  0.2089  0.7786
19457TIP3    H279787   6.106   0.460   2.595 -1.9927  0.4766 -1.1615
19458TIP3   OH279788   1.135   0.434  16.546 -0.3199 -0.1196  0.3849
19458TIP3    H179789   1.093   0.444  16.631 -1.7030  1.7831 -0.4576
19458TIP3    H279790   1.100   0.505  16.493  4.3838  2.0622 -0.2914
19459TIP3   OH279791   6.755   2.893   1.481 -0.0762 -0.1255 -0.4195
19459TIP3    H179792   6.659   2.895   1.477 -0.3879 -4.1647  0.6514
19459TIP3    H279793   6.778   2.960   1.545 -2.2629  0.3726 -0.0926
19460TIP3   OH279794   1.969   3.434   5.994  0.7745 -0.1046 -0.0198
19460TIP3    H179795   1.999   3.446   6.083  0.8491 -2.1551  0.2766
19460TIP3    H279796   2.049   3.425   5.942  0.7439  1.5588 -0.4071
19461TIP3   OH279797   1.203   2.035  13.482 -0.1749 -0.6527 -0.0170
19461TIP3    H179798   1.193   2.127  13.509 -1.7728 -0.9297  0.4903
19461TIP3    H279799   1.294   2.027  13.455  0.5085  0.6153  1.7419
19462TIP3   OH279800   1.181   5.785   2.224  0.8307 -0.0930 -0.5654
19462TIP3    H179801   1.212   5.747   2.142  4.1871 -1.0797  0.9716
19462TIP3    H279802   1.178   5.710   2.285 -0.2689  0.8290  0.5690
19463TIP3   OH279803   1.951   4.782  16.196 -0.7237  0.2655 -0.4086
19463TIP3    H179804   1.874   4.763  16.249  0.4807  1.9816  2.1861
19463TIP3    H279805   1.978   4.870  16.224  2.9192 -0.7821 -0.0986
19464TIP3   OH279806   0.049   2.804  11.384 -0.2097 -0.1003 -0.3415
19464TIP3    H179807  -0.001   2.880  11.352 -0.0735  0.0011 -0.3157
19464TIP3    H279808   0.052   2.745  11.309 -0.4171 -0.1316 -0.3267
19465TIP3   OH279809   6.733   3.277   0.786  0.0297 -0.0297 -0.6539
19465TIP3    H179810   6.778   3.193   0.774  0.7506 -0.1476  2.2431
19465TIP3    H279811   6.653   3.255   0.833 -0.1600  0.8306 -0.5567
19466TIP3   OH279812   0.027   4.663   5.183 -0.3280  0.0302  0.1434
19466TIP3    H179813  -0.044   4.618   5.138  0.1318 -2.1699  1.4881
19466TIP3    H279814   0.002   4.660   5.275 -0.1773  2.4712  0.3294
19467TIP3   OH279815   4.479   3.748  11.965 -0.4213 -0.6345  0.4028
19467TIP3    H179816   4.559   3.697  11.959 -0.3940 -0.5818  0.3066
19467TIP3    H279817   4.462   3.756  12.059 -0.6320 -1.1353  0.4092
19468TIP3   OH279818   1.919   1.720   1.680 -0.3390  0.2924  0.2949
19468TIP3    H179819   1.864   1.652   1.641  1.1895 -0.4052 -0.7952
19468TIP3    H279820   1.955   1.679   1.759 -0.9246  0.5404  0.6927
19469TIP3   OH279821   5.666   0.328  17.162  0.1634 -0.5772  0.1129
19469TIP3    H179822   5.623   0.379  17.230  0.3418  0.7931 -0.7629
19469TIP3    H279823   5.692   0.392  17.096 -1.5902 -2.0124 -2.1256
19470TIP3   OH279824   0.526   4.772  12.880  0.0993 -0.0665  0.1806
19470TIP3    H179825   0.616   4.803  12.887  0.2016  0.0371 -1.2955
19470TIP3    H279826   0.531   4.677  12.892  0.3706 -0.0336  0.3233
19471TIP3   OH279827   1.665   0.202   4.072  0.8174 -0.1504  0.3348
19471TIP3    H179828   1.621   0.192   4.156  1.8655  0.0617  0.9177
19471TIP3    H279829   1.593   0.205   4.008 -0.1361  1.9907  1.3981
19472TIP3   OH279830   4.797   6.638  14.807 -0.4349  0.5672 -0.8511
19472TIP3    H179831   4.788   6.573  14.737  0.7323 -0.1286 -0.3704
19472TIP3    H279832   4.776   6.591  14.887  0.9823  0.5968 -0.4371
19473TIP3   OH279833   3.353   4.723   2.441 -0.3576 -0.1821 -0.3955
19473TIP3    H179834   3.329   4.712   2.533 -1.4386  1.3995 -0.4449
19473TIP3    H279835   3.443   4.693   2.436  0.3297  1.3532  1.5722
19474TIP3   OH279836   0.803   3.591  13.513  0.2245  0.2262 -0.1025
19474TIP3    H179837   0.891   3.628  13.520 -0.2988  1.5855 -0.3101
19474TIP3    H279838   0.779   3.570  13.603  0.7630 -0.1817 -0.0476
19475TIP3   OH279839   3.550   6.533   3.734 -0.2769  0.1806  0.3121
19475TIP3    H179840   3.459   6.511   3.755 -0.2651 -1.0932 -0.8012
19475TIP3    H279841   3.576   6.468   3.669  0.2960  2.6720 -2.1302
19476TIP3   OH279842   3.824   0.378  13.669 -0.1504 -0.0773 -0.0271
19476TIP3    H179843   3.849   0.412  13.754 -2.5457  2.1161 -0.1023
19476TIP3    H279844   3.741   0.332  13.684 -1.8249  2.2860 -1.4234
19477TIP3   OH279845   0.097   3.920   0.733 -0.0657 -0.2764 -0.0868
19477TIP3    H179846   0.132   3.840   0.694 -0.2289 -0.4964  0.2197
19477TIP3    H279847   0.003   3.918   0.715  0.1565  0.6393 -1.4887
19478TIP3   OH279848   5.089   4.275   2.312  0.1395  0.9389  1.1388
19478TIP3    H179849   5.016   4.326   2.279  0.9023  1.7201  0.6295
19478TIP3    H279850   5.054   4.231   2.390 -0.5228  2.2725  1.6245
19479TIP3   OH279851   1.697   1.826  13.006  0.0177  0.1821  0.1834
19479TIP3    H179852   1.653   1.763  13.063  0.5008 -1.8593 -1.5628
19479TIP3    H279853   1.776   1.781  12.976  0.1147  1.4048 -1.5795
19480TIP3   OH279854   1.924   1.416  16.419  0.0460  0.1571  0.5702
19480TIP3    H179855   1.955   1.505  16.433  0.5020 -0.0536  0.9295
19480TIP3    H279856   1.837   1.427  16.380 -0.7258  0.7727  2.3527
19481TIP3   OH279857   1.678   4.928  15.171  0.1582  0.0952 -0.1915
19481TIP3    H179858   1.686   4.934  15.076 -1.5221 -0.6910 -0.4263
19481TIP3    H279859   1.641   5.013  15.197  0.1916  0.1431 -0.3018
19482TIP3   OH279860   5.950   1.242   0.708 -0.0515  0.4007 -0.3339
19482TIP3    H179861   5.945   1.195   0.792  1.5972  0.4671 -0.1798
19482TIP3    H279862   5.860   1.239   0.675 -0.5011 -0.6543  0.8701
19483TIP3   OH279863   6.396   6.162   3.869 -0.4004  0.1628  0.1584
19483TIP3    H179864   6.444   6.128   3.794 -1.7122  0.0875 -0.6831
19483TIP3    H279865   6.425   6.108   3.943 -1.2940 -1.7885 -0.8447
19484TIP3   OH279866   3.886   5.151   4.662 -0.0947 -0.8826 -0.0996
19484TIP3    H179867   3.851   5.070   4.698  1.6166 -1.4190  0.4370
19484TIP3    H279868   3.851   5.155   4.573 -1.5647 -1.3124  0.4252
19485TIP3   OH279869   2.568   6.621  13.335 -0.1422 -0.0019 -0.0224
19485TIP3    H179870   2.484   6.624  13.290  0.8389 -0.0902 -1.9708
19485TIP3    H279871   2.593   6.529  13.334 -0.9504 -0.3212  2.4899
19486TIP3   OH279872   5.171   3.461  15.973  0.6892 -0.1095 -0.4201
19486TIP3    H179873   5.263   3.484  15.986  1.1434 -0.8127 -2.0982
19486TIP3    H279874   5.173   3.372  15.938 -0.4869  0.4520 -2.0638
19487TIP3   OH279875   5.762   4.512  13.541 -0.5693 -0.4164  0.3145
19487TIP3    H179876   5.733   4.570  13.472 -2.1264 -2.6007 -0.9953
19487TIP3    H279877   5.848   4.545  13.566 -1.5110  2.5802 -0.0793
19488TIP3   OH279878   3.439   1.203  16.627  0.7573 -0.2072  0.3172
19488TIP3    H179879   3.405   1.261  16.694 -0.2643 -0.9799  0.5023
19488TIP3    H279880   3.363   1.181  16.573  1.1876 -1.0450  0.0229
19489TIP3   OH279881   3.965   4.618   3.232 -0.1045 -0.0406 -0.6782
19489TIP3    H179882   3.901   4.673   3.186 -1.5824 -0.3615  0.9048
19489TIP3    H279883   4.017   4.680   3.284  1.3087  0.2785 -2.3587
19490TIP3   OH279884   5.188   1.216  14.019  0.6452 -0.3115 -0.5834
19490TIP3    H179885   5.231   1.193  14.101  0.2217 -1.4031 -0.6447
19490TIP3    H279886   5.114   1.271  14.045  0.6976 -0.3889 -0.2627
19491TIP3   OH279887   5.440   3.145  16.250 -0.0749 -0.3924  0.6814
19491TIP3    H179888   5.497   3.150  16.327  2.6433  2.9600 -1.2348
19491TIP3    H279889   5.499   3.119  16.179 -1.6162  0.2147 -0.8791
19492TIP3   OH279890   5.515   1.827   0.132 -0.3207  1.0074 -0.2727
19492TIP3    H179891   5.486   1.843   0.042 -0.9222 -0.4394 -0.3690
19492TIP3    H279892   5.479   1.899   0.182 -1.0757  1.1461 -0.9877
19493TIP3   OH279893   4.825   0.703  16.336 -0.0078 -0.0025 -0.0322
19493TIP3    H179894   4.766   0.768  16.374 -0.8386  0.0499 -1.3563
19493TIP3    H279895   4.896   0.694  16.401 -2.4245 -1.5623  2.6058
19494TIP3   OH279896   5.791   6.234   1.263 -0.1838 -0.0285  0.7450
19494TIP3    H179897   5.789   6.265   1.354  0.7879 -0.1093  0.8010
19494TIP3    H279898   5.854   6.292   1.219 -1.9333  1.1654 -0.3307
19495TIP3   OH279899   1.667   0.315  15.618  0.3691 -0.4366  0.3673
19495TIP3    H179900   1.703   0.335  15.704  0.1424 -1.0934  0.6226
19495TIP3    H279901   1.578   0.352  15.620 -0.1982 -1.7608  0.9862
19496TIP3   OH279902   3.767   0.560  14.395  0.1273 -0.1321  0.0348
19496TIP3    H179903   3.732   0.544  14.308  1.7138 -0.3118 -0.6123
19496TIP3    H279904   3.700   0.613  14.439 -0.9729 -0.5729 -1.0615
19497TIP3   OH279905   4.422   2.922  12.711 -0.1864  0.2162 -0.0004
19497TIP3    H179906   4.340   2.924  12.761 -1.8404  0.1929 -2.5447
19497TIP3    H279907   4.416   2.998  12.653  1.9158  0.5509  0.1599
19498TIP3   OH279908   6.632   2.774   1.063 -0.3642 -0.3036 -0.6179
19498TIP3    H179909   6.569   2.739   1.127 -0.5336 -0.8331 -1.0677
19498TIP3    H279910   6.610   2.730   0.981 -0.4076  0.6775 -1.1404
19499TIP3   OH279911   1.681   5.775   3.903  0.5092  0.2110  0.2421
19499TIP3    H179912   1.605   5.829   3.923  0.2853 -0.1003  0.2277
19499TIP3    H279913   1.645   5.690   3.878  0.5552  1.1100 -3.6249
19500TIP3   OH279914   3.996   5.375   1.550 -0.3967 -0.2618  0.2093
19500TIP3    H179915   4.073   5.404   1.500 -1.0398  0.8518 -0.1643
19500TIP3    H279916   3.968   5.453   1.598 -3.0912  0.2688 -1.9697
19501TIP3   OH279917   2.556   5.764  14.449 -0.0860  0.0044 -1.1654
19501TIP3    H179918   2.520   5.708  14.380 -1.2998 -0.7041 -0.0136
19501TIP3    H279919   2.646   5.732  14.461  0.1492  0.1496 -2.3971
19502TIP3   OH279920   4.287   5.214   0.012  0.5303  0.0665 -0.0164
19502TIP3    H179921   4.275   5.294   0.064 -1.4845  0.3409 -0.7868
19502TIP3    H279922   4.198   5.186  -0.008  1.2302 -1.4442 -1.1980
19503TIP3   OH279923   2.897   4.538   2.523 -0.2394 -0.0239 -0.2422
19503TIP3    H179924   2.901   4.445   2.544 -0.3519  0.0930  0.3164
19503TIP3    H279925   2.883   4.540   2.428 -2.9872 -0.6559  0.0454
19504TIP3   OH279926   2.753   1.274   4.534  0.1979  0.1156 -0.3439
19504TIP3    H179927   2.692   1.339   4.568  1.0542  0.3495  0.8376
19504TIP3    H279928   2.814   1.324   4.479  1.1629  0.4555  0.9684
19505TIP3   OH279929   6.420   2.383   2.664  0.1671  0.6049 -0.2444
19505TIP3    H179930   6.400   2.324   2.591 -0.8593 -1.3685  1.5340
19505TIP3    H279931   6.382   2.341   2.741  1.6666  2.3341  1.5599
19506TIP3   OH279932   4.130   3.566   4.157 -0.1646  0.0147 -0.5897
19506TIP3    H179933   4.180   3.486   4.148 -0.0067 -0.1154  1.0953
19506TIP3    H279934   4.178   3.631   4.107 -0.4054 -0.9566 -2.1495
19507TIP3   OH279935   2.977   1.078  13.118  0.6816 -0.1647  0.3247
19507TIP3    H179936   2.939   1.074  13.206 -1.2155  1.1071 -0.3684
19507TIP3    H279937   3.031   1.157  13.119 -0.1115  0.3964  0.1002
19508TIP3   OH279938   6.213   6.736   2.012 -0.1732  0.5354  0.3820
19508TIP3    H179939   6.276   6.729   1.940 -2.0375  0.7041 -1.3416
19508TIP3    H279940   6.152   6.663   1.999 -0.6330  0.6378  1.7379
19509TIP3   OH279941   1.960   5.965   5.468 -0.4252 -0.4421  0.2641
19509TIP3    H179942   2.053   5.984   5.473 -0.5974  0.3466  0.5600
19509TIP3    H279943   1.937   5.985   5.377 -0.3769 -0.3066  0.2816
19510TIP3   OH279944   1.153   0.196  15.582 -0.2814 -0.5130 -0.1707
19510TIP3    H179945   1.228   0.141  15.559 -0.3824 -0.8565  0.3138
19510TIP3    H279946   1.082   0.134  15.602  0.0908 -0.2859  2.1004
19511TIP3   OH279947   3.924   0.698  16.170 -0.2597  0.0212  0.3254
19511TIP3    H179948   3.893   0.752  16.242  0.7577  0.9290  0.1110
19511TIP3    H279949   3.849   0.691  16.111 -0.1870  1.9506 -0.0641
19512TIP3   OH279950   2.212   1.163  12.104 -0.0845  0.2819 -0.4555
19512TIP3    H179951   2.197   1.071  12.126  0.4026  0.0366 -1.1009
19512TIP3    H279952   2.307   1.170  12.094 -0.0481  1.0441  0.3664
19513TIP3   OH279953   2.782   5.366  15.383 -0.2819  0.2751  0.5748
19513TIP3    H179954   2.773   5.389  15.475 -1.1374  0.4491  0.4640
19513TIP3    H279955   2.824   5.281  15.382  0.5925  0.6889  1.0889
19514TIP3   OH279956   2.416   6.518  14.739 -0.1033 -0.2050 -0.7221
19514TIP3    H179957   2.385   6.597  14.784 -0.3135  0.0852 -1.3619
19514TIP3    H279958   2.471   6.551  14.667  1.9730 -0.7190  0.5564
19515TIP3   OH279959   0.886   3.233  11.605 -0.2683  0.7918  0.2427
19515TIP3    H179960   0.852   3.265  11.688 -0.5092  1.5598 -0.1374
19515TIP3    H279961   0.979   3.219  11.620  0.0678  2.6632  0.1691
19516TIP3   OH279962   1.311   4.919  15.136  0.6642  0.6057  0.1830
19516TIP3    H179963   1.350   4.862  15.070 -0.6113 -0.5920  0.4113
19516TIP3    H279964   1.289   4.999  15.088  1.5236  0.5148 -0.3859
19517TIP3   OH279965   2.586   0.839  15.651  0.1421  0.5368  0.1647
19517TIP3    H179966   2.582   0.776  15.723  0.0926 -1.5609 -1.5927
19517TIP3    H279967   2.676   0.872  15.652  0.5006 -0.4399  0.3912
19518TIP3   OH279968   4.784   2.164   4.101 -0.3271 -0.3589  0.0322
19518TIP3    H179969   4.753   2.193   4.187  0.8012 -1.7085  0.9316
19518TIP3    H279970   4.808   2.072   4.114  3.5214  0.4017 -0.7102
19519TIP3   OH279971   1.909   6.188   3.474  0.2281  0.2866  0.1410
19519TIP3    H179972   1.844   6.244   3.432  0.5124  1.3718  1.0881
19519TIP3    H279973   1.920   6.226   3.561  0.9762 -0.8243  0.5533
19520TIP3   OH279974   5.786   0.831  10.981 -0.1145 -0.0351  0.0368
19520TIP3    H179975   5.832   0.842  10.899 -0.8196  0.3044 -0.3273
19520TIP3    H279976   5.730   0.909  10.987 -1.2081 -0.8019  0.0729
19521TIP3   OH279977   5.627   0.601  11.480  0.0195 -0.1087 -0.0158
19521TIP3    H179978   5.655   0.643  11.399  1.2664 -0.8568 -0.0028
19521TIP3    H279979   5.708   0.593  11.531 -0.6589 -0.1510  1.0644
19522TIP3   OH279980   2.680   1.265  15.996  0.1093 -0.7016  0.0899
19522TIP3    H179981   2.649   1.209  15.924  1.5009 -0.3084 -0.8431
19522TIP3    H279982   2.715   1.203  16.060 -0.9499 -1.0411  0.3734
19523TIP3   OH279983   5.230   3.349  10.423 -0.4587 -0.0104  0.1186
19523TIP3    H179984   5.176   3.427  10.408  0.4993  0.7345  0.4585
19523TIP3    H279985   5.234   3.339  10.518 -0.5057 -0.4219  0.0803
19524TIP3   OH279986   1.175   4.801   4.797  0.4074  0.8958 -0.5095
19524TIP3    H179987   1.160   4.859   4.872  0.7319  0.6395 -0.2437
19524TIP3    H279988   1.088   4.787   4.760  0.5149  3.1697 -1.8194
19525TIP3   OH279989   3.325   3.250   4.219 -0.5699 -0.3077  0.1017
19525TIP3    H179990   3.239   3.232   4.258 -0.6952 -2.5702 -1.0559
19525TIP3    H279991   3.308   3.255   4.125  0.6481 -1.8561 -0.2538
19526TIP3   OH279992   6.196   5.894   1.139  0.4677  0.1182 -0.3236
19526TIP3    H179993   6.206   5.955   1.065 -1.0601  0.6621 -0.1341
19526TIP3    H279994   6.272   5.837   1.135 -0.0489 -0.4934 -2.9177
19527TIP3   OH279995   4.061   5.408   0.455  0.2124 -0.8387  0.0657
19527TIP3    H179996   4.147   5.445   0.476  0.1027 -1.5228  1.9459
19527TIP3    H279997   4.077   5.314   0.447 -0.2089 -0.8634 -0.5306
19528TIP3   OH279998   3.185   2.486  13.359  0.2394 -0.7441 -0.6071
19528TIP3    H179999   3.102   2.496  13.407  0.2428 -0.9101 -0.5679
19528TIP3    H280000   3.233   2.420  13.408 -0.1163 -1.5520 -1.3275
19529TIP3   OH280001   6.046   4.464   6.449  1.0571  0.2373 -0.2824
19529TIP3    H180002   5.989   4.501   6.382  2.1496 -1.0361 -1.9873
19529TIP3    H280003   6.064   4.537   6.509 -1.2676  0.9784 -0.4022
19530TIP3   OH280004   2.305   2.661  17.092 -0.7116 -0.0997  0.2593
19530TIP3    H180005   2.385   2.618  17.123 -0.9515 -0.5136  0.3066
19530TIP3    H280006   2.315   2.664  16.997 -0.3139  0.5007  0.3150
19531TIP3   OH280007   2.663   5.607   3.857  0.7864  0.6963 -0.8997
19531TIP3    H180008   2.580   5.586   3.814 -0.0257 -0.3146  1.0408
19531TIP3    H280009   2.724   5.539   3.828 -0.4182 -1.4949  1.2685
19532TIP3   OH280010   0.104   1.894   3.593  0.6434  0.3971 -0.6237
19532TIP3    H180011   0.158   1.909   3.671  0.3368 -0.6430 -0.1969
19532TIP3    H280012   0.057   1.977   3.581 -0.6950  0.0107  1.4194
19533TIP3   OH280013   1.408   6.045  15.880  0.1862  0.2222  0.8253
19533TIP3    H180014   1.403   6.135  15.847  0.3759 -0.4918 -1.2915
19533TIP3    H280015   1.376   6.051  15.970 -1.5217  2.1090  0.1733
19534TIP3   OH280016   1.426   6.260   5.736  0.2824  0.0177  0.4974
19534TIP3    H180017   1.350   6.248   5.680 -0.5127  1.7352  1.1452
19534TIP3    H280018   1.443   6.174   5.774 -0.7102 -0.5949 -0.4314
19535TIP3   OH280019   6.693   3.291  11.059 -0.0409 -0.0929  0.3475
19535TIP3    H180020   6.617   3.320  11.110 -0.9150 -2.2703  0.3818
19535TIP3    H280021   6.674   3.200  11.036  1.7031 -0.1084 -1.3197
19536TIP3   OH280022   6.400   0.375  12.255  0.2691  0.2599 -0.0880
19536TIP3    H180023   6.495   0.364  12.258  0.2008 -0.2263  1.9285
19536TIP3    H280024   6.368   0.297  12.209  0.8496  0.5290 -0.9532
19537TIP3   OH280025   4.306   6.733   5.306 -0.5064 -0.0014 -0.0530
19537TIP3    H180026   4.400   6.740   5.325 -0.1732 -2.2349 -0.6091
19537TIP3    H280027   4.292   6.793   5.233 -0.2914  3.0065  2.1858
19538TIP3   OH280028   1.096   1.350  13.879 -0.3134 -0.1392 -0.0978
19538TIP3    H180029   1.136   1.370  13.963  0.3438  0.0429 -0.4491
19538TIP3    H280030   1.045   1.429  13.858  1.7253  0.9703 -1.1565
19539TIP3   OH280031   4.739   5.678  12.377  0.5599 -0.2145  0.0603
19539TIP3    H180032   4.646   5.684  12.354  0.1654  0.4692  1.7221
19539TIP3    H280033   4.783   5.728  12.307 -0.4646  0.7138  0.0443
19540TIP3   OH280034   4.095   5.738   5.903 -0.5930  0.2253 -0.3190
19540TIP3    H180035   4.006   5.769   5.918 -0.5415  0.5077 -0.5858
19540TIP3    H280036   4.133   5.801   5.843 -0.6544 -0.6374 -1.2976
19541TIP3   OH280037   0.269   6.373   4.776  0.6403 -0.3828  0.1225
19541TIP3    H180038   0.348   6.427   4.784  1.5907 -1.6816 -0.1803
19541TIP3    H280039   0.255   6.365   4.682  0.4551 -0.6060  0.1695
19542TIP3   OH280040   5.782   4.698  11.792 -0.0089  0.0877 -0.1102
19542TIP3    H180041   5.690   4.718  11.805  0.1064  0.3047  0.3890
19542TIP3    H280042   5.822   4.709  11.879  0.2132 -1.4726  0.0166
19543TIP3   OH280043   2.738   5.300   5.743 -0.3919  0.3272  0.5037
19543TIP3    H180044   2.662   5.268   5.791 -1.1944  0.2724 -0.7464
19543TIP3    H280045   2.760   5.229   5.683  0.7696  0.2770  0.9684
19544TIP3   OH280046   3.565   0.268   5.800  0.0310  0.4312  0.0140
19544TIP3    H180047   3.590   0.315   5.879  1.7957 -1.9818  1.0369
19544TIP3    H280048   3.612   0.312   5.729  1.3020  0.4765  0.8592
19545TIP3   OH280049   1.301   4.865  11.378 -0.4936 -0.5093 -0.2150
19545TIP3    H180050   1.360   4.797  11.410  0.6782 -0.1314 -1.4834
19545TIP3    H280051   1.218   4.820  11.363 -0.0012 -1.4598 -0.1490
19546TIP3   OH280052   0.073   0.078   0.342 -0.3362 -0.3228  0.0701
19546TIP3    H180053  -0.003   0.020   0.349  0.9597 -2.0990  0.0129
19546TIP3    H280054   0.129   0.052   0.415  0.9656 -0.2230 -0.8686
19547TIP3   OH280055   1.254   5.692  14.111  0.4682  0.3853  0.0032
19547TIP3    H180056   1.316   5.624  14.082  3.1294  3.0143 -0.9472
19547TIP3    H280057   1.201   5.711  14.034  1.2446  0.9146 -0.4106
19548TIP3   OH280058   4.118   3.186   5.066  0.0799  0.2123  0.1891
19548TIP3    H180059   4.200   3.144   5.039 -1.0179 -0.5190 -2.2914
19548TIP3    H280060   4.091   3.138   5.144  1.1829 -0.6469  0.0642
19549TIP3   OH280061   3.609   2.246   0.108  0.3268  0.2313 -0.3080
19549TIP3    H180062   3.611   2.199   0.025 -1.2900 -0.0264 -0.2406
19549TIP3    H280063   3.601   2.338   0.084  0.4073  0.2053 -0.4342
19550TIP3   OH280064   1.381   5.654  14.722  0.5096  0.7113 -0.0995
19550TIP3    H180065   1.454   5.657  14.661 -0.2358 -0.2264 -1.0919
19550TIP3    H280066   1.303   5.665  14.666 -0.2101 -0.5423  0.6135
19551TIP3   OH280067   1.422   0.428   4.477 -0.1927  0.4322 -0.5614
19551TIP3    H180068   1.450   0.519   4.484  0.0272  0.2732  0.9550
19551TIP3    H280069   1.399   0.417   4.385  0.5191  1.7979 -0.9280
19552TIP3   OH280070   6.241   3.927   2.390  0.2990  0.2301 -0.1866
19552TIP3    H180071   6.211   3.890   2.474  0.0304 -0.6631 -0.6620
19552TIP3    H280072   6.161   3.942   2.340  0.4929  0.1607 -0.5223
19553TIP3   OH280073   5.190   5.557  11.789  0.0391 -0.8346 -0.7160
19553TIP3    H180074   5.151   5.550  11.875  1.1147  0.9014 -0.0438
19553TIP3    H280075   5.252   5.484  11.785  0.9340 -0.1705  0.5211
19554TIP3   OH280076   4.995   2.357  13.509  0.6088 -0.4016  0.0986
19554TIP3    H180077   4.966   2.315  13.428  0.3003 -0.9866  0.5043
19554TIP3    H280078   4.989   2.451  13.491 -1.6943 -0.4730  0.2014
19555TIP3   OH280079   5.092   1.436  14.695 -0.4321 -0.3801 -0.4026
19555TIP3    H180080   5.161   1.446  14.629  0.6430 -0.2274  0.7154
19555TIP3    H280081   5.011   1.432  14.644  0.2139  1.2513 -1.6756
19556TIP3   OH280082   4.202   4.451  16.354 -0.1259  0.3418  0.2638
19556TIP3    H180083   4.250   4.507  16.415  0.4923  0.3786 -0.2460
19556TIP3    H280084   4.111   4.457  16.383  0.3158 -0.7443  2.0376
19557TIP3   OH280085   0.621   5.912   5.110  0.6138 -0.2448 -0.2847
19557TIP3    H180086   0.574   5.995   5.101  0.8571 -0.3305 -3.6994
19557TIP3    H280087   0.553   5.849   5.135  0.2534  0.7834  1.4229
19558TIP3   OH280088   2.825   6.676   1.188 -0.2451  0.0148  0.1366
19558TIP3    H180089   2.819   6.680   1.283 -0.1443  0.5390  0.1223
19558TIP3    H280090   2.841   6.583   1.169 -2.9761 -0.5984  0.4738
19559TIP3   OH280091   3.722   4.875  13.638 -0.2765 -0.0416  0.0003
19559TIP3    H180092   3.687   4.948  13.588 -0.0411 -0.6620 -1.0920
19559TIP3    H280093   3.659   4.805  13.627  0.1411 -0.4175 -0.0387
19560TIP3   OH280094   1.623   4.943   5.608  0.0421  0.2502  0.0091
19560TIP3    H180095   1.685   5.011   5.635 -0.8071  0.6623  1.0158
19560TIP3    H280096   1.577   4.981   5.534 -0.9698  1.1282  1.0499
19561TIP3   OH280097   3.268   3.832   3.084  0.2730 -0.0990 -0.2629
19561TIP3    H180098   3.193   3.801   3.034  1.1818  1.1544 -2.5776
19561TIP3    H280099   3.240   3.917   3.120  0.5179  0.3252 -1.0493
19562TIP3   OH280100   1.345   6.427   3.941  0.5370  0.6063  0.4304
19562TIP3    H180101   1.287   6.366   3.987  0.5197 -0.6070 -1.0980
19562TIP3    H280102   1.301   6.511   3.946  0.4765  0.4939  2.4696
19563TIP3   OH280103   1.950   0.537  14.613 -0.4266  0.2548  0.3717
19563TIP3    H180104   1.858   0.548  14.638 -0.8263  1.5383 -1.5395
19563TIP3    H280105   1.949   0.529  14.518  1.4700  0.4999  0.2885
19564TIP3   OH280106   6.087   6.459  16.403  0.3424 -0.2025 -0.2747
19564TIP3    H180107   6.061   6.455  16.311 -2.1625 -0.5316  0.3788
19564TIP3    H280108   6.128   6.374  16.419  0.2679 -0.3705 -0.9356
19565TIP3   OH280109   0.127   0.482  16.662 -0.0428  0.1682 -0.2884
19565TIP3    H180110   0.190   0.554  16.671 -1.2996  1.1569  1.0984
19565TIP3    H280111   0.121   0.444  16.750  0.0260 -1.1574 -0.8399
19566TIP3   OH280112   3.304   4.573   0.884 -0.6908  0.2953  0.2048
19566TIP3    H180113   3.311   4.652   0.831 -1.3526  0.6383  0.6107
19566TIP3    H280114   3.365   4.588   0.957  1.0493 -0.6434 -0.9805
19567TIP3   OH280115   3.788   3.382  16.119 -0.3062 -0.0146 -0.4734
19567TIP3    H180116   3.729   3.385  16.044  1.1247 -0.4690 -1.6461
19567TIP3    H280117   3.750   3.315  16.176 -1.1127 -0.0505 -1.0353
19568TIP3   OH280118   4.293   6.191   1.499  0.4600 -0.5738  0.4613
19568TIP3    H180119   4.248   6.233   1.572  0.0607 -0.6363  0.2527
19568TIP3    H280120   4.236   6.119   1.473 -0.3342  0.5579 -1.1156
19569TIP3   OH280121   2.398   5.093  16.353 -0.2776  0.5538 -0.5455
19569TIP3    H180122   2.360   5.161  16.409  1.3083  0.2193  1.0155
19569TIP3    H280123   2.387   5.012  16.404  0.4452  0.1047 -1.0908
19570TIP3   OH280124   3.243   0.142  11.269 -0.4101  0.2386  0.1385
19570TIP3    H180125   3.277   0.073  11.211 -0.6653  0.1451  0.1007
19570TIP3    H280126   3.227   0.216  11.211  1.2881  0.8654  0.3875
19571TIP3   OH280127   5.462   3.986  11.939 -0.1153  0.3461  0.3354
19571TIP3    H180128   5.477   3.994  11.845 -2.0042 -2.2238 -0.3054
19571TIP3    H280129   5.548   3.970  11.976  0.7007  1.7248 -0.8875
19572TIP3   OH280130   1.019   0.979  16.213  0.1201  0.2914  0.4101
19572TIP3    H180131   1.018   0.951  16.305  1.6433 -0.4159  0.2487
19572TIP3    H280132   1.021   0.897  16.163  0.4184  0.6670 -0.2027
19573TIP3   OH280133   6.511   1.657  10.543  0.3758  0.0047 -0.0898
19573TIP3    H180134   6.488   1.588  10.481  1.3955 -0.7960  0.4043
19573TIP3    H280135   6.427   1.696  10.568 -0.2432 -1.2653 -0.1316
19574TIP3   OH280136   1.819   5.004   6.026  0.1267  0.1347 -0.0911
19574TIP3    H180137   1.755   4.962   6.084 -0.0829  0.7273  0.1194
19574TIP3    H280138   1.767   5.069   5.977  0.4800  0.2903 -0.2610
19575TIP3   OH280139   5.296   4.564   5.766 -0.2144  0.2795 -0.2035
19575TIP3    H180140   5.307   4.533   5.856  1.6051  2.1042  0.2471
19575TIP3    H280141   5.383   4.560   5.728 -0.3585  2.4177 -0.8922
19576TIP3   OH280142   1.514   2.200   2.883  0.1786 -0.3481 -0.0076
19576TIP3    H180143   1.599   2.239   2.902 -0.0458  0.4766 -0.6261
19576TIP3    H280144   1.534   2.108   2.862  1.0166  0.0204 -0.9147
19577TIP3   OH280145   0.758   5.422   0.755  0.7431 -0.2998  0.0858
19577TIP3    H180146   0.819   5.496   0.753  0.5627 -0.1250  0.7414
19577TIP3    H280147   0.784   5.372   0.832  2.2348 -2.1288 -1.5160
19578TIP3   OH280148   6.157   4.550  15.266 -0.0988  0.1078  0.4177
19578TIP3    H180149   6.123   4.622  15.212  2.2408  1.0245  0.0535
19578TIP3    H280150   6.168   4.477  15.204 -0.0037  0.2739  0.2378
19579TIP3   OH280151   0.217   1.839  12.867  0.6119  0.1161  0.2936
19579TIP3    H180152   0.198   1.931  12.886  0.7656  0.3179 -0.5077
19579TIP3    H280153   0.250   1.839  12.777 -2.6028 -1.1102 -1.0415
19580TIP3   OH280154   0.783   2.912  13.516 -0.0032 -0.2700  0.1918
19580TIP3    H180155   0.689   2.920  13.536 -0.0705 -1.9848  0.7266
19580TIP3    H280156   0.825   2.920  13.602  0.3510  0.4482 -0.0438
19581TIP3   OH280157   4.574   1.116  16.363 -0.1727 -0.6552  0.2253
19581TIP3    H180158   4.570   1.153  16.451 -0.4393 -0.6777  0.2243
19581TIP3    H280159   4.556   1.189  16.305  1.1924 -0.3701  0.1160
19582TIP3   OH280160   2.494   2.088  13.841  0.1423 -0.6871 -0.4656
19582TIP3    H180161   2.420   2.060  13.895  0.0113 -0.0460 -0.2994
19582TIP3    H280162   2.571   2.049  13.882  0.0024 -0.5220 -0.0442
19583TIP3   OH280163   6.151   0.573   4.811 -0.4674  0.2926  0.5649
19583TIP3    H180164   6.189   0.491   4.844  0.2383 -0.0643 -1.0307
19583TIP3    H280165   6.174   0.574   4.719  0.9247  3.0769  0.8536
19584TIP3   OH280166   5.758   4.859   0.348  0.1146  0.3075  0.6824
19584TIP3    H180167   5.815   4.928   0.314  0.2105 -0.4237 -0.7333
19584TIP3    H280168   5.741   4.884   0.439  0.7395  1.7904  0.4205
19585TIP3   OH280169   1.833   4.251  13.641  0.2166  0.4106  0.1625
19585TIP3    H180170   1.823   4.255  13.546 -1.5346  0.1937  0.3025
19585TIP3    H280171   1.890   4.176  13.657  0.1691  0.1862 -0.6979
19586TIP3   OH280172   4.183   1.033  12.129 -0.0389  0.1057  0.0024
19586TIP3    H180173   4.264   1.007  12.173  0.2138  0.5758 -0.1793
19586TIP3    H280174   4.192   1.128  12.117 -0.7193  0.1934  0.1870
19587TIP3   OH280175   0.432   6.321   3.870 -0.4088  0.6192 -0.0575
19587TIP3    H180176   0.422   6.371   3.952  0.3302 -0.0661  0.4726
19587TIP3    H280177   0.518   6.278   3.879 -1.7752 -2.2446  0.3533
19588TIP3   OH280178   4.824   1.829   1.292  0.2085 -0.0722 -0.3337
19588TIP3    H180179   4.805   1.788   1.208 -1.0031  1.3099 -0.7790
19588TIP3    H280180   4.919   1.835   1.296  0.3107 -1.0064 -1.1754
19589TIP3   OH280181   6.479   3.079  13.194  0.0502  0.1267  0.2307
19589TIP3    H180182   6.399   3.097  13.243  0.4691  0.0300  0.9679
19589TIP3    H280183   6.541   3.048  13.260  0.5759 -0.1770 -0.3913
19590TIP3   OH280184   1.369   5.903   2.787  0.0743 -0.1350 -0.2539
19590TIP3    H180185   1.388   5.952   2.708  0.4622  1.7368  0.9440
19590TIP3    H280186   1.279   5.926   2.810  0.7028  1.1653  1.0598
19591TIP3   OH280187   3.252   2.955  10.475  0.2577  0.0868  0.0059
19591TIP3    H180188   3.295   2.870  10.479  0.4189  0.2059  0.8888
19591TIP3    H280189   3.304   3.011  10.532  0.0153  0.7217 -0.3846
19592TIP3   OH280190   2.127   6.569  17.175 -0.0997 -0.5710 -0.6194
19592TIP3    H180191   2.196   6.617  17.130 -1.2847  2.5485  0.6110
19592TIP3    H280192   2.046   6.597  17.131 -0.9882  0.0522  1.2862
19593TIP3   OH280193   1.637   2.587   1.686  0.3303 -0.5585 -0.3037
19593TIP3    H180194   1.600   2.592   1.598  2.6949  2.0312 -1.3123
19593TIP3    H280195   1.730   2.572   1.672  0.9897  1.2262  1.6625
19594TIP3   OH280196   5.525   1.107  13.025 -0.0063  0.7884  0.1433
19594TIP3    H180197   5.603   1.156  13.050 -0.1447  0.6379  0.8797
19594TIP3    H280198   5.468   1.110  13.102  0.2394 -1.0223  0.4409
19595TIP3   OH280199   4.940   2.703   2.481  0.1726 -0.2998  0.0698
19595TIP3    H180200   4.868   2.714   2.544 -2.2698  0.2887 -2.6434
19595TIP3    H280201   5.018   2.731   2.529 -1.2358 -1.4577  3.3424
19596TIP3   OH280202   2.621   6.638   5.972  0.4390  0.6861  0.0839
19596TIP3    H180203   2.611   6.618   6.065 -0.7365  1.1010  0.0634
19596TIP3    H280204   2.546   6.595   5.930  1.5265 -0.3890 -0.8285
19597TIP3   OH280205   4.843   3.953   2.098  0.5203 -0.2086  0.0914
19597TIP3    H180206   4.935   3.968   2.074  0.7513 -0.0215  1.0409
19597TIP3    H280207   4.827   4.013   2.171  0.1369 -1.3965  1.0169
19598TIP3   OH280208   2.577   0.184   3.334 -0.8601 -0.2277  0.5904
19598TIP3    H180209   2.652   0.237   3.309 -1.4481  0.4640  0.2455
19598TIP3    H280210   2.602   0.145   3.418  0.5609 -1.4195 -0.3451
19599TIP3   OH280211   6.685   5.691  14.372  0.1716 -0.0488 -0.1334
19599TIP3    H180212   6.595   5.697  14.342  0.0346 -0.6979  0.1357
19599TIP3    H280213   6.713   5.603  14.348  0.2651 -0.3655  1.0610
19600TIP3   OH280214   5.626   0.137  16.558  0.6286 -0.3076 -0.0153
19600TIP3    H180215   5.666   0.126  16.472  0.3493 -0.3208 -0.1440
19600TIP3    H280216   5.541   0.093  16.552 -1.1148  2.8389 -0.9475
19601TIP3   OH280217   6.388   5.781   0.935  0.2302 -0.0779 -0.0428
19601TIP3    H180218   6.326   5.718   0.971 -0.3272  0.1395 -0.6018
19601TIP3    H280219   6.468   5.730   0.922 -0.2141 -0.6793 -0.4802
19602TIP3   OH280220   4.992   0.916  15.681  0.9099 -0.4066  0.7426
19602TIP3    H180221   4.955   0.901  15.594  0.9730 -1.1405  0.8387
19602TIP3    H280222   5.063   0.852  15.689 -0.5163 -1.9311  2.1897
19603TIP3   OH280223   0.263   3.695  16.198 -0.2798  0.2431 -0.3022
19603TIP3    H180224   0.189   3.676  16.140 -1.1243  1.8248  0.2159
19603TIP3    H280225   0.313   3.762  16.151  1.6365 -1.7099 -1.2616
19604TIP3   OH280226   5.366   4.851  16.629 -0.0195 -0.5844  0.0030
19604TIP3    H180227   5.428   4.829  16.559  0.5784 -0.5915  0.5314
19604TIP3    H280228   5.385   4.787  16.698 -0.8951 -0.8507  0.0094
19605TIP3   OH280229   2.646   4.869  13.815 -0.7452 -0.1284 -0.1068
19605TIP3    H180230   2.625   4.957  13.783 -0.7753 -0.2375 -0.3944
19605TIP3    H280231   2.720   4.841  13.760 -0.4781 -0.1272  0.2504
19606TIP3   OH280232   3.644   2.528   5.163 -0.2732 -0.0506 -0.4489
19606TIP3    H180233   3.662   2.434   5.155 -0.2512 -0.1911  0.9912
19606TIP3    H280234   3.557   2.533   5.203  0.5217  0.4647  1.3547
19607TIP3   OH280235   2.012   2.452   5.738 -0.3937  0.3166 -0.3185
19607TIP3    H180236   1.970   2.414   5.815  0.3322  0.5177  0.1908
19607TIP3    H280237   2.090   2.495   5.773 -0.8319  1.7073 -0.9550
19608TIP3   OH280238   4.447   5.800   2.430  0.4291 -0.2176 -0.4383
19608TIP3    H180239   4.496   5.781   2.510 -0.9856  1.4284  0.9121
19608TIP3    H280240   4.504   5.857   2.380  0.2264  1.1320  0.8021
19609TIP3   OH280241   0.627   4.201   3.860 -0.0754  0.1306 -0.4199
19609TIP3    H180242   0.631   4.166   3.771  3.7986  0.2510 -0.4549
19609TIP3    H280243   0.633   4.123   3.916 -3.2387 -0.0179 -0.0909
19610TIP3   OH280244   5.642   4.313  11.610 -0.6040 -0.1191  0.2128
19610TIP3    H180245   5.561   4.262  11.604  0.0114 -1.0672 -0.3510
19610TIP3    H280246   5.621   4.397  11.567 -0.6934 -1.1699 -1.9447
19611TIP3   OH280247   0.168   6.227   0.824 -0.0801 -0.3451  0.1883
19611TIP3    H180248   0.260   6.245   0.842 -0.4325 -0.0098  1.8319
19611TIP3    H280249   0.130   6.211   0.910 -1.3839 -1.3802 -0.5499
19612TIP3   OH280250   4.660   3.979   1.031  0.7265  0.0431 -0.6248
19612TIP3    H180251   4.755   3.985   1.023  0.7282 -0.1115 -0.7285
19612TIP3    H280252   4.643   3.989   1.124  0.9711 -1.4939 -0.3782
19613TIP3   OH280253   2.046   2.935   5.485  0.0566  0.0464  0.0302
19613TIP3    H180254   1.961   2.901   5.456  0.5483 -0.2353 -1.1264
19613TIP3    H280255   2.080   2.868   5.544 -0.7022  0.3514  0.8218
19614TIP3   OH280256   6.268   6.699   5.851 -0.1562 -0.1416  0.3589
19614TIP3    H180257   6.275   6.726   5.942  0.2091  1.4607 -0.1187
19614TIP3    H280258   6.231   6.775   5.806 -3.1446 -1.8511 -0.3889
19615TIP3   OH280259   2.088   5.251   5.758 -0.4514 -0.4729 -0.0442
19615TIP3    H180260   2.071   5.232   5.850 -2.4579  0.8327 -0.0754
19615TIP3    H280261   2.176   5.289   5.757 -1.5590  2.5143  1.8979
19616TIP3   OH280262   3.084   3.380  14.254  0.1193  0.3106 -0.3271
19616TIP3    H180263   3.009   3.321  14.253  0.9735 -0.8604  0.5369
19616TIP3    H280264   3.076   3.432  14.174 -0.5559 -1.1531 -1.2488
19617TIP3   OH280265   5.508   0.533  16.435  0.0660  0.3081 -0.7471
19617TIP3    H180266   5.413   0.545  16.432 -0.1187 -0.1852  1.4472
19617TIP3    H280267   5.528   0.527  16.528  2.0179 -1.4289 -1.2110
19618TIP3   OH280268   4.910   3.450   1.479 -0.0726 -0.2945  0.0112
19618TIP3    H180269   4.990   3.451   1.427  0.0717 -0.2527  0.2333
19618TIP3    H280270   4.940   3.462   1.570 -0.2094 -1.6828  0.2610
19619TIP3   OH280271   3.856   3.829  13.553  0.2144  0.4584  0.2847
19619TIP3    H180272   3.777   3.801  13.600  0.4339 -1.1181 -0.2591
19619TIP3    H280273   3.928   3.802  13.609  0.4221  2.5121  1.1217
19620TIP3   OH280274   0.772   5.286   2.804 -0.2509 -0.1338 -0.4142
19620TIP3    H180275   0.677   5.273   2.810 -0.3308  0.2531 -0.7614
19620TIP3    H280276   0.807   5.253   2.886 -0.8417  1.0704  0.3412
19621TIP3   OH280277   3.636   3.008  15.240 -0.2692 -0.1520 -0.1883
19621TIP3    H180278   3.602   2.921  15.218  1.0797 -0.2113 -2.2801
19621TIP3    H280279   3.558   3.060  15.258 -1.1503 -1.5450  0.2109
19622TIP3   OH280280   1.452   6.490   2.531 -0.0951 -0.1841 -0.7787
19622TIP3    H180281   1.451   6.499   2.626  0.2514 -0.0849 -0.7816
19622TIP3    H280282   1.372   6.443   2.510  0.5075 -1.4430 -0.3166
19623TIP3   OH280283   1.542   5.614  10.690 -0.3520 -0.3335  0.0572
19623TIP3    H180284   1.463   5.654  10.726  1.2994  1.2482  2.1854
19623TIP3    H280285   1.533   5.624  10.595 -1.7627  1.7032  0.3394
19624TIP3   OH280286   5.497   5.505  11.632 -0.1550 -0.0895  0.2974
19624TIP3    H180287   5.553   5.437  11.670  0.1985  0.5166  0.8861
19624TIP3    H280288   5.518   5.504  11.538  2.2709  1.3936  0.7555
19625TIP3   OH280289   4.687   5.927   3.084  0.1807  0.2129 -0.0443
19625TIP3    H180290   4.724   5.989   3.021 -0.0395  0.1290 -0.2579
19625TIP3    H280291   4.642   5.862   3.030  1.5287 -0.8869  0.1114
19626TIP3   OH280292   3.872   6.397  11.610  0.7975 -0.1908  0.4986
19626TIP3    H180293   3.876   6.489  11.638 -0.0730  0.1809 -0.5369
19626TIP3    H280294   3.954   6.383  11.562  0.5427  0.3170 -0.1047
19627TIP3   OH280295   6.222   4.504   5.567  0.0304 -0.6411 -0.0404
19627TIP3    H180296   6.165   4.431   5.541 -3.3085  1.7123  0.0128
19627TIP3    H280297   6.161   4.575   5.586  3.0586  1.8746  0.9233
19628TIP3   OH280298   1.567   3.769   2.239  0.1237  0.6843  0.5931
19628TIP3    H180299   1.494   3.825   2.212 -0.5122 -1.0343 -1.6231
19628TIP3    H280300   1.529   3.680   2.240  1.7475 -0.0451  1.2624
19629TIP3   OH280301   5.386   3.992   5.842 -0.0149 -0.0454 -0.0665
19629TIP3    H180302   5.303   4.016   5.882 -0.2806 -0.2322 -0.4961
19629TIP3    H280303   5.363   3.929   5.774  0.4580  0.0269 -0.3032
19630TIP3   OH280304   4.682   2.699   3.020 -0.0007 -0.1629  0.7793
19630TIP3    H180305   4.589   2.699   3.041 -0.1761 -0.0250  0.0204
19630TIP3    H280306   4.726   2.708   3.105 -0.6169 -2.3161  1.4019
19631TIP3   OH280307   4.349   1.115   1.394 -0.3451  0.1901 -0.7882
19631TIP3    H180308   4.322   1.049   1.458 -0.2424  0.7839 -0.1214
19631TIP3    H280309   4.426   1.077   1.351 -1.1703 -0.7593 -1.4764
19632TIP3   OH280310   2.318   5.963   2.150  0.1293 -0.2540 -0.2007
19632TIP3    H180311   2.314   6.043   2.098 -2.6125 -0.8335 -1.0129
19632TIP3    H280312   2.369   5.987   2.228  0.5232  1.8592 -1.0524
19633TIP3   OH280313   6.359   4.781   5.160 -0.4065 -0.1250 -0.4098
19633TIP3    H180314   6.329   4.748   5.075 -0.0771 -0.3999 -0.4200
19633TIP3    H280315   6.354   4.705   5.218 -1.8043  0.3450  0.1293
19634TIP3   OH280316   3.200   1.066  12.053  0.3900 -0.1234  0.5350
19634TIP3    H180317   3.213   1.018  11.972  0.7059 -0.7510  0.9475
19634TIP3    H280318   3.114   1.038  12.085 -1.2688  2.5584 -1.1965
19635TIP3   OH280319   6.722   5.813  11.839 -0.3109 -0.3961  0.3009
19635TIP3    H180320   6.812   5.782  11.829 -0.2351 -0.8122  1.9297
19635TIP3    H280321   6.721   5.856  11.925 -1.7301 -0.7170  0.4732
19636TIP3   OH280322   1.570   0.697  12.488 -0.8183 -0.4707 -0.4297
19636TIP3    H180323   1.573   0.673  12.581  0.1731 -0.6408 -0.4971
19636TIP3    H280324   1.648   0.752  12.476 -0.8952 -0.5266 -1.1797
19637TIP3   OH280325   0.342   4.620  11.344  0.2840  0.1246 -0.2868
19637TIP3    H180326   0.391   4.618  11.261  0.6130  1.5839 -0.1627
19637TIP3    H280327   0.409   4.639  11.410  0.2421 -2.2376  0.5404
19638TIP3   OH280328   5.395   3.520   3.342  0.4729  0.0969  0.1264
19638TIP3    H180329   5.437   3.438   3.369  1.3046  0.5121  0.1314
19638TIP3    H280330   5.454   3.588   3.372  0.5596  0.6412 -1.1982
19639TIP3   OH280331   1.701   3.685  13.526  0.5576  0.2605  0.1042
19639TIP3    H180332   1.609   3.707  13.541  0.7499  1.3153 -0.1122
19639TIP3    H280333   1.746   3.710  13.607  0.7687  0.6083 -0.1113
19640TIP3   OH280334   3.154   4.982   2.074  0.0206 -0.5147 -0.5782
19640TIP3    H180335   3.219   4.943   2.015  0.7172 -0.2236 -0.0259
19640TIP3    H280336   3.181   5.074   2.082 -1.1474 -0.0896 -1.2522
19641TIP3   OH280337   3.566   6.247  12.340 -0.5945 -0.0706 -0.2193
19641TIP3    H180338   3.503   6.184  12.304  0.8880 -2.1279  0.5853
19641TIP3    H280339   3.563   6.233  12.434 -0.5180  1.3918  0.0199
19642TIP3   OH280340   1.968   0.277  14.741 -0.6248 -0.1775 -0.2583
19642TIP3    H180341   1.992   0.346  14.678  0.4715  0.2024  0.5432
19642TIP3    H280342   1.979   0.318  14.826 -0.0527 -1.3194  0.2353
19643TIP3   OH280343   0.603   2.916  16.119  1.0169  0.0967  0.2140
19643TIP3    H180344   0.649   2.943  16.039  1.7180  0.1773  0.6415
19643TIP3    H280345   0.525   2.972  16.122  1.1854  0.3563 -0.2073
19644TIP3   OH280346   2.198   0.391   5.545 -0.0641 -0.1623  0.6580
19644TIP3    H180347   2.263   0.457   5.569  0.1909  0.1501 -0.8160
19644TIP3    H280348   2.204   0.385   5.450 -1.0999 -1.2733  0.6449
19645TIP3   OH280349   4.540   1.507  13.766  0.1119 -0.0002 -0.0859
19645TIP3    H180350   4.476   1.499  13.695  0.4392  1.1344 -0.5222
19645TIP3    H280351   4.517   1.589  13.809  0.8529  0.0641  0.1898
19646TIP3   OH280352   5.190   2.991  11.869  0.2230 -0.5008 -0.4133
19646TIP3    H180353   5.230   2.909  11.840  0.2997 -0.4680 -0.3997
19646TIP3    H280354   5.096   2.976  11.860  0.2612 -0.2909 -1.2221
19647TIP3   OH280355   5.830   5.546   6.555  0.2540 -0.0466 -0.2127
19647TIP3    H180356   5.766   5.509   6.495 -0.7403  1.6674 -0.2754
19647TIP3    H280357   5.908   5.561   6.502  0.8668 -2.3617 -0.0827
19648TIP3   OH280358   2.313   3.724   3.019 -0.6406 -0.3726  0.4956
19648TIP3    H180359   2.367   3.793   3.058 -0.2759 -0.0590 -0.5240
19648TIP3    H280360   2.287   3.760   2.934 -0.7737 -1.3342  0.1230
19649TIP3   OH280361   5.076   1.131  16.979  0.3463 -0.2907 -0.6787
19649TIP3    H180362   5.074   1.098  17.069 -1.5564 -0.1249 -0.6205
19649TIP3    H280363   5.093   1.225  16.988 -0.0743 -0.2315 -0.4564
19650TIP3   OH280364   0.657   1.117   0.235  0.0152 -0.4220 -0.0899
19650TIP3    H180365   0.585   1.054   0.229 -1.3045  0.8500  1.1481
19650TIP3    H280366   0.680   1.137   0.145 -0.6320 -1.4722 -0.5051
19651TIP3   OH280367   1.196   0.253  16.831  0.6844 -0.0535  0.2817
19651TIP3    H180368   1.255   0.323  16.801  0.8074 -0.2825 -0.0069
19651TIP3    H280369   1.216   0.244  16.924  0.6221  0.3423  0.3363
19652TIP3   OH280370   6.017   3.038  11.604  0.0694  0.3167 -0.3070
19652TIP3    H180371   6.094   3.052  11.659 -0.5493 -1.2755  1.0418
19652TIP3    H280372   6.006   3.121  11.556  2.5341  0.6055 -0.4841
19653TIP3   OH280373   1.242   5.571  15.957 -0.1799 -0.0431  0.0061
19653TIP3    H180374   1.230   5.499  15.896  0.6043  0.9674 -1.3912
19653TIP3    H280375   1.230   5.531  16.043 -0.5641 -1.6626 -0.7520
19654TIP3   OH280376   5.313   1.525   3.941 -0.5717  0.1483 -0.2331
19654TIP3    H180377   5.253   1.595   3.914  2.1143  2.9206  0.3337
19654TIP3    H280378   5.356   1.497   3.860 -0.4168  0.4531 -0.2596
19655TIP3   OH280379   5.725   6.417  13.761  0.1327  0.0721 -0.0412
19655TIP3    H180380   5.798   6.466  13.799  1.2968 -0.1868 -1.8566
19655TIP3    H280381   5.691   6.365  13.834  1.8786  0.0547  0.8120
19656TIP3   OH280382   3.687   3.398  14.442  0.2068  0.0580  0.1472
19656TIP3    H180383   3.608   3.453  14.447  0.0790 -0.0552 -0.5484
19656TIP3    H280384   3.729   3.425  14.360  0.2142 -0.7793 -0.1329
19657TIP3   OH280385   0.243   5.444  15.365  0.3287  0.6363  0.2909
19657TIP3    H180386   0.315   5.383  15.349 -0.4147 -0.3933  0.7513
19657TIP3    H280387   0.224   5.482  15.279  0.7927  0.1993 -0.0109
19658TIP3   OH280388   0.140   1.200  14.605 -0.0412 -0.3164 -0.0905
19658TIP3    H180389   0.176   1.289  14.604  0.3922 -0.2873  3.5689
19658TIP3    H280390   0.066   1.204  14.544  0.6553  2.2071 -0.9029
19659TIP3   OH280391   5.725   6.492  17.227  0.2426  0.3146  0.0808
19659TIP3    H180392   5.679   6.408  17.225 -0.1734  0.5446 -1.2776
19659TIP3    H280393   5.783   6.490  17.151  1.2441  0.7237  0.8102
19660TIP3   OH280394   4.695   3.526  12.274 -0.4073  0.1626  0.7968
19660TIP3    H180395   4.657   3.482  12.350 -2.4358  0.5351  0.0384
19660TIP3    H280396   4.748   3.458  12.232 -0.0451 -0.3159  1.9670
19661TIP3   OH280397   0.497   4.126  13.869 -0.4632  0.1979  0.5764
19661TIP3    H180398   0.555   4.197  13.841  0.7035 -1.2147 -0.7084
19661TIP3    H280399   0.556   4.058  13.901 -1.5469 -0.3708  1.4405
19662TIP3   OH280400   4.601   1.508   6.338  0.7281 -0.6319 -0.1590
19662TIP3    H180401   4.512   1.481   6.314  0.5757 -1.1369  0.8950
19662TIP3    H280402   4.623   1.451   6.412  1.0515  1.0376  1.0642
19663TIP3   OH280403   0.513   4.799  11.569 -0.9736  0.3333 -0.3193
19663TIP3    H180404   0.430   4.841  11.544 -1.3549  0.7102  1.4834
19663TIP3    H280405   0.573   4.872  11.583  0.0205  0.0382 -2.5984
19664TIP3   OH280406   6.161   5.497  11.576 -0.1942  0.6608  0.2105
19664TIP3    H180407   6.200   5.483  11.490  1.7786  0.4557  1.0849
19664TIP3    H280408   6.121   5.584  11.570  2.1053  1.7766 -0.2137
19665TIP3   OH280409   4.071   1.300  11.509  0.1236 -0.0813 -0.4829
19665TIP3    H180410   4.077   1.206  11.490 -1.0444 -0.2817  0.0367
19665TIP3    H280411   4.047   1.304  11.602  2.1671  0.7930  0.0511
19666TIP3   OH280412   4.148   4.393   3.249  0.4732  0.1398 -0.1767
19666TIP3    H180413   4.078   4.449   3.282  1.9401  1.0330  1.5312
19666TIP3    H280414   4.178   4.437   3.169 -0.4758  0.0824 -0.5749
19667TIP3   OH280415   2.301   5.759   1.557 -0.4983 -0.4031 -0.2109
19667TIP3    H180416   2.232   5.705   1.517 -0.1114  0.2748 -1.8508
19667TIP3    H280417   2.349   5.698   1.613 -1.5201 -1.2158 -0.1871
19668TIP3   OH280418   1.416   0.371  12.723  0.3174 -0.3889 -0.6166
19668TIP3    H180419   1.394   0.316  12.648  1.6746 -0.3858 -1.0506
19668TIP3    H280420   1.507   0.347  12.743  0.5543  0.8926 -0.1017
19669TIP3   OH280421   1.492   6.531  16.756  0.0219 -0.1326 -0.2294
19669TIP3    H180422   1.550   6.508  16.829  0.0427 -0.3746 -0.3211
19669TIP3    H280423   1.436   6.600  16.791  0.4158  0.1563 -0.1655
19670TIP3   OH280424   2.680   0.879  12.975  0.5675  0.1903 -0.1479
19670TIP3    H180425   2.626   0.958  12.975  0.3812  0.0742  0.6735
19670TIP3    H280426   2.625   0.812  13.016  1.1883 -0.0277  0.3499
19671TIP3   OH280427   5.861   3.364  11.722 -0.4809 -0.1940 -0.3193
19671TIP3    H180428   5.825   3.407  11.644  0.8125 -1.5625 -1.7599
19671TIP3    H280429   5.955   3.383  11.717 -0.1677 -1.5849  0.0429
19672TIP3   OH280430   0.149   6.502   2.080  0.8018  0.4145  0.4274
19672TIP3    H180431   0.067   6.552   2.078  0.6846  0.2913  1.6195
19672TIP3    H280432   0.193   6.532   2.160  1.3727 -0.3779  0.4127
19673TIP3   OH280433   2.260   4.176  17.219  0.2451 -0.5070 -0.1665
19673TIP3    H180434   2.198   4.157  17.290  0.2045 -1.6670 -0.4823
19673TIP3    H280435   2.319   4.241  17.255 -0.7399  0.1045  0.3869
19674TIP3   OH280436   5.544   3.542  11.521 -0.3972 -0.1796  0.3678
19674TIP3    H180437   5.496   3.498  11.450 -0.4410 -2.5683  1.7409
19674TIP3    H280438   5.522   3.634  11.511 -0.4854 -0.4121 -2.6248
19675TIP3   OH280439   0.649   3.047   2.954  0.1810  0.6793 -0.2685
19675TIP3    H180440   0.599   3.090   3.023  0.0037 -1.1027  0.7717
19675TIP3    H280441   0.717   2.998   3.000  0.4371 -0.0693 -1.3904
19676TIP3   OH280442   0.252   5.321  12.902  0.4488 -0.3324 -0.2598
19676TIP3    H180443   0.340   5.348  12.874  0.6684  0.5813  1.1802
19676TIP3    H280444   0.266   5.233  12.939  0.8779  0.0195  0.4426
19677TIP3   OH280445   1.826   4.681  11.872 -0.7549 -0.2773  0.8107
19677TIP3    H180446   1.861   4.770  11.878  1.0786 -0.8941  0.1229
19677TIP3    H280447   1.757   4.687  11.806  0.8714  0.2640 -0.9362
19678TIP3   OH280448   4.801   2.326   0.590 -0.0744 -0.4198 -0.7867
19678TIP3    H180449   4.806   2.387   0.663 -1.5029 -0.8916 -0.2530
19678TIP3    H280450   4.723   2.353   0.541 -0.2280 -1.2646 -1.0421
19679TIP3   OH280451   5.100   2.269  15.603  0.1205 -0.3752 -0.1964
19679TIP3    H180452   5.124   2.336  15.539 -1.8873 -1.3225 -2.0439
19679TIP3    H280453   5.071   2.319  15.680 -0.0117  0.8553 -1.0138
19680TIP3   OH280454   2.898   1.005  11.776 -0.0907  0.3202  0.0265
19680TIP3    H180455   2.875   1.084  11.726 -0.7309 -0.8819 -1.6669
19680TIP3    H280456   2.993   1.009  11.785  0.0003  0.7897 -0.9475
19681TIP3   OH280457   0.527   4.754   4.000 -0.4308  0.5449  0.3581
19681TIP3    H180458   0.462   4.774   3.933 -0.4377 -1.5912 -0.3707
19681TIP3    H280459   0.592   4.700   3.954  1.6499  2.2358  1.1744
19682TIP3   OH280460   3.072   3.208  17.183  0.0465  0.4134  0.2339
19682TIP3    H180461   2.999   3.150  17.162 -0.5228  0.3234  2.2431
19682TIP3    H280462   3.131   3.154  17.235  0.0876  1.3022  1.1292
19683TIP3   OH280463   2.147   1.502  14.533  0.2646  0.3887  0.3507
19683TIP3    H180464   2.137   1.594  14.559 -0.9621  0.7871 -1.3457
19683TIP3    H280465   2.219   1.502  14.470  0.1567  0.2293  0.2251
19684TIP3   OH280466   1.344   0.908  12.559 -0.5274 -0.0069 -0.7638
19684TIP3    H180467   1.405   0.839  12.581 -1.8605 -1.0295 -0.1201
19684TIP3    H280468   1.368   0.934  12.470  2.0822  1.0558  0.1404
19685TIP3   OH280469   2.683   0.157  13.094 -0.0685 -0.3317  0.0185
19685TIP3    H180470   2.686   0.187  13.003 -1.1614  4.4075  1.2444
19685TIP3    H280471   2.769   0.180  13.130  0.3654 -2.1850  0.2814
19686TIP3   OH280472   0.836   0.597  13.440 -0.1471 -0.3116 -0.4456
19686TIP3    H180473   0.858   0.687  13.467  0.8724 -0.4302 -0.8211
19686TIP3    H280474   0.915   0.566  13.397 -1.3448 -0.4864 -2.6537
19687TIP3   OH280475   1.813   2.959   0.726 -0.1843  0.5014  0.1620
19687TIP3    H180476   1.778   2.905   0.655 -0.0209  1.6487 -0.8032
19687TIP3    H280477   1.747   2.951   0.796  0.7263 -2.4778  0.8468
19688TIP3   OH280478   0.779   4.954  13.062 -0.3948 -0.2594 -0.6254
19688TIP3    H180479   0.789   5.026  13.124 -3.6585 -0.2009 -0.0107
19688TIP3    H280480   0.778   4.996  12.977  2.8252 -0.2183 -0.7872
19689TIP3   OH280481   5.732   1.511  13.647  0.4078 -0.1303 -0.3187
19689TIP3    H180482   5.709   1.488  13.557  0.4302 -0.7046 -0.1820
19689TIP3    H280483   5.693   1.598  13.660 -2.5747 -1.4185  0.2241
19690TIP3   OH280484   4.589   4.887   3.783 -0.5544  0.6935 -0.7035
19690TIP3    H180485   4.571   4.980   3.774  0.9512  0.7747 -4.2112
19690TIP3    H280486   4.684   4.879   3.774 -0.5047 -1.1330  0.6705
19691TIP3   OH280487   2.131   0.076  16.879 -0.0330 -0.1216  0.6289
19691TIP3    H180488   2.099   0.047  16.793  0.2904  0.1843  0.4021
19691TIP3    H280489   2.144  -0.005  16.928  0.3494 -0.3344  0.1832
19692TIP3   OH280490   2.720   0.896   1.868  0.1488  0.4377  0.0359
19692TIP3    H180491   2.800   0.945   1.848  0.2632  0.5960  0.8504
19692TIP3    H280492   2.745   0.804   1.859 -0.4425  0.4712 -2.9662
19693TIP3   OH280493   1.067   4.243  15.017  0.3327 -0.1132 -0.2316
19693TIP3    H180494   1.090   4.239  15.109 -0.1301 -0.3900 -0.1220
19693TIP3    H280495   1.079   4.154  14.985 -2.9096 -0.9140  0.4350
19694TIP3   OH280496   6.235   5.547  15.862 -0.0891  0.3070 -0.0147
19694TIP3    H180497   6.168   5.488  15.897 -0.4130 -0.5382 -1.9491
19694TIP3    H280498   6.318   5.503  15.883 -0.1987  0.4347  0.7355
19695TIP3   OH280499   4.780   0.812   3.935  0.2798 -0.1381 -0.6915
19695TIP3    H180500   4.715   0.745   3.917  0.5644 -0.6721  0.2076
19695TIP3    H280501   4.864   0.768   3.922  0.4718  0.4062 -1.3529
19696TIP3   OH280502   5.658   1.582   0.158 -0.1609  0.8237  0.3608
19696TIP3    H180503   5.596   1.654   0.167 -0.8450  0.2017  0.7543
19696TIP3    H280504   5.738   1.613   0.199 -0.0978  1.7624 -0.4454
19697TIP3   OH280505   1.273   2.206  14.929 -0.6331 -0.3145  0.0716
19697TIP3    H180506   1.242   2.215  14.839 -2.3702  2.3267  0.8199
19697TIP3    H280507   1.368   2.221  14.923 -0.7447  0.0283 -1.2829
19698TIP3   OH280508   1.885   2.777  12.979 -0.0667 -0.1875  0.3822
19698TIP3    H180509   1.866   2.867  13.006  0.3258  0.0241 -0.0142
19698TIP3    H280510   1.934   2.739  13.052 -0.8635 -0.3156  0.8551
19699TIP3   OH280511   5.155   2.311  15.231  0.9485 -0.1797 -0.8695
19699TIP3    H180512   5.222   2.253  15.266  3.2182  1.7993 -1.6900
19699TIP3    H280513   5.151   2.384  15.293  0.4011  0.2718 -1.4181
19700TIP3   OH280514   1.165   1.680   3.108  0.7448  0.0942  0.1515
19700TIP3    H180515   1.145   1.638   3.024  1.7558  2.2685 -1.2659
19700TIP3    H280516   1.260   1.678   3.114  0.7389  0.9331  0.6892
19701TIP3   OH280517   3.162   5.991   3.655 -0.1063  0.2778  0.2635
19701TIP3    H180518   3.198   6.043   3.726  1.3803 -0.9552  0.4516
19701TIP3    H280519   3.070   6.015   3.652  0.3703  2.3363  0.8313
19702TIP3   OH280520   1.338   4.531   1.213  0.1889  0.0810 -0.0600
19702TIP3    H180521   1.336   4.593   1.286 -0.8597 -0.4813  0.4181
19702TIP3    H280522   1.397   4.570   1.150 -1.3568  2.1983 -0.2996
19703TIP3   OH280523   6.215   6.443  12.738 -0.0143  0.0393 -0.2490
19703TIP3    H180524   6.152   6.483  12.678  1.7196 -0.1565 -2.3183
19703TIP3    H280525   6.223   6.353  12.706  0.6441 -0.1887  0.5444
19704TIP3   OH280526   0.901   0.355   4.224  0.0658 -0.1647  0.0334
19704TIP3    H180527   0.875   0.377   4.313  0.4394 -1.6110  0.5150
19704TIP3    H280528   0.864   0.425   4.170 -0.5515  0.4743  1.2615
19705TIP3   OH280529   6.057   6.041   5.662 -0.3534  0.6393 -0.2986
19705TIP3    H180530   5.968   6.077   5.664 -0.7893 -0.4067  1.0440
19705TIP3    H280531   6.060   5.982   5.738  1.7199  1.1855  0.0965
19706TIP3   OH280532   2.692   5.396  16.662  0.3114  0.1525  0.4781
19706TIP3    H180533   2.683   5.342  16.740 -0.5857  2.4255  2.0792
19706TIP3    H280534   2.649   5.346  16.592 -0.6335 -1.1019  1.8965
19707TIP3   OH280535   4.279   4.563   3.029 -0.8049  0.1094 -0.2283
19707TIP3    H180536   4.332   4.642   3.037 -0.4413 -0.0292 -1.1597
19707TIP3    H280537   4.322   4.512   2.961 -2.0212 -0.0881 -0.8905
19708TIP3   OH280538   2.028   0.450  14.976  0.1219 -0.1736  0.7174
19708TIP3    H180539   2.069   0.537  14.968 -1.6537  0.6069 -0.7083
19708TIP3    H280540   1.936   0.469  14.995 -0.6437 -1.6571 -1.1818
19709TIP3   OH280541   6.594   0.566  11.400 -0.3656 -0.6205 -0.5114
19709TIP3    H180542   6.527   0.619  11.357 -1.1679 -2.6851 -1.9105
19709TIP3    H280543   6.592   0.482  11.355 -0.1386 -2.4015  2.5320
19710TIP3   OH280544   4.459   6.586  16.385  0.1359 -0.6591 -0.2029
19710TIP3    H180545   4.425   6.544  16.464 -0.4494  1.7290  0.8964
19710TIP3    H280546   4.384   6.634  16.349  0.9880  0.1925 -0.8833
19711TIP3   OH280547   4.311   1.020   3.908  0.5824  0.8392  0.5227
19711TIP3    H180548   4.292   0.992   3.997  1.3583  2.4656  1.2517
19711TIP3    H280549   4.372   0.955   3.875  1.2040  0.8335  1.6230
19712TIP3   OH280550   5.799   5.710  15.782  0.6777  0.3410  0.3856
19712TIP3    H180551   5.881   5.712  15.732  0.0396 -1.0777 -0.7999
19712TIP3    H280552   5.796   5.622  15.821 -1.3115 -0.5411 -1.5209
19713TIP3   OH280553   0.322   4.385   0.318 -0.1893 -0.1859 -0.1622
19713TIP3    H180554   0.319   4.406   0.225  3.4769 -0.3975 -0.4723
19713TIP3    H280555   0.254   4.318   0.329 -0.6295 -0.2767 -2.6936
19714TIP3   OH280556   1.676   1.585  16.645  0.0798 -0.3357  0.0301
19714TIP3    H180557   1.654   1.666  16.692  0.2088  0.3743 -1.0897
19714TIP3    H280558   1.725   1.615  16.569 -0.2194 -1.4397 -0.6146
19715TIP3   OH280559   4.374   0.714   1.116 -0.0731  0.5336  0.1846
19715TIP3    H180560   4.302   0.652   1.115  0.9286 -0.6801 -0.8289
19715TIP3    H280561   4.343   0.788   1.063 -0.5545 -0.0093 -0.3145
19716TIP3   OH280562   0.193   1.790  13.249  0.4928 -0.3336 -0.3138
19716TIP3    H180563   0.253   1.781  13.323 -0.9365 -0.2402  0.9266
19716TIP3    H280564   0.122   1.846  13.282 -0.0147  0.0117 -1.8835
19717TIP3   OH280565   3.687   0.433   2.614  0.0277  0.6594 -0.5247
19717TIP3    H180566   3.597   0.407   2.595  0.2297 -1.1035  0.7216
19717TIP3    H280567   3.689   0.447   2.709  0.9957  0.9493 -0.5757
19718TIP3   OH280568   4.287   1.689  11.388 -0.2525  0.0232  0.3398
19718TIP3    H180569   4.291   1.746  11.465  0.5131 -0.6769  0.8466
19718TIP3    H280570   4.353   1.725  11.328 -0.7006  0.4458  0.0998
19719TIP3   OH280571   0.470   2.911   2.429  0.4177  0.4088  0.2624
19719TIP3    H180572   0.381   2.947   2.427  0.4933  0.5632 -0.8420
19719TIP3    H280573   0.501   2.929   2.518 -1.7513 -2.3924  1.7597
19720TIP3   OH280574   6.215   2.376  11.078 -0.6234  0.4316 -0.6539
19720TIP3    H180575   6.140   2.385  11.137 -0.0009  0.2683  0.1825
19720TIP3    H280576   6.279   2.325  11.128 -0.3860 -0.4029 -1.7641
19721TIP3   OH280577   4.833   2.684   4.193  0.4799  0.1030 -0.3195
19721TIP3    H180578   4.890   2.672   4.269 -0.5846 -0.6193  0.3940
19721TIP3    H280579   4.883   2.740   4.134  1.9057 -0.4737  0.2937
19722TIP3   OH280580   2.489   5.824  14.722 -0.3582  0.8698 -0.0648
19722TIP3    H180581   2.509   5.730  14.723  1.4417  1.1974  1.2464
19722TIP3    H280582   2.513   5.853  14.634  0.9976  0.4311  0.1327
19723TIP3   OH280583   6.152   4.917   0.439 -0.4026 -0.0919  0.3820
19723TIP3    H180584   6.179   5.001   0.476 -2.2591  0.8938 -0.4075
19723TIP3    H280585   6.215   4.854   0.476  1.2536  1.6554  0.7080
19724TIP3   OH280586   5.612   0.625  14.109  0.3891 -0.0905  0.1169
19724TIP3    H180587   5.656   0.622  14.194  1.0203  0.2702 -0.1829
19724TIP3    H280588   5.555   0.549  14.108 -1.2032  1.0090  1.6891
19725TIP3   OH280589   0.038   0.399  14.769  0.0855  0.5145  0.2724
19725TIP3    H180590   0.038   0.401  14.864 -0.8301 -1.1216  0.3328
19725TIP3    H280591   0.120   0.442  14.744  0.6932  0.2923  1.8073
19726TIP3   OH280592   1.857   1.212   3.142  0.2772  0.3372 -0.4722
19726TIP3    H180593   1.769   1.188   3.170 -0.1263  0.4417 -1.5906
19726TIP3    H280594   1.866   1.304   3.168 -1.5438  1.6695 -3.8455
19727TIP3   OH280595   6.565   4.601  15.608 -0.3681  0.1355  0.4468
19727TIP3    H180596   6.481   4.602  15.654 -1.2942  0.1508 -1.1989
19727TIP3    H280597   6.547   4.638  15.522  1.3516  0.2359  0.0894
19728TIP3   OH280598   5.205   1.696  14.272  0.1234 -0.2480  0.5699
19728TIP3    H180599   5.264   1.681  14.198 -0.1516  2.0969 -0.2036
19728TIP3    H280600   5.119   1.670  14.239 -0.0346  1.0036 -0.0441
19729TIP3   OH280601   0.774   4.824  13.464 -0.5378  0.5758 -0.2362
19729TIP3    H180602   0.752   4.824  13.557  0.6255 -0.6671  0.0746
19729TIP3    H280603   0.814   4.909  13.448  0.2497  0.4023  0.6799
19730TIP3   OH280604   3.723   6.443  15.201 -0.1399  0.9070 -0.2185
19730TIP3    H180605   3.660   6.380  15.234 -0.9245  1.6126 -0.3301
19730TIP3    H280606   3.748   6.494  15.278  0.6682  0.3298 -0.0828
19731TIP3   OH280607   0.640   2.418   2.585  0.0624  0.1777 -0.2756
19731TIP3    H180608   0.728   2.398   2.552 -0.0176 -1.8386  0.5803
19731TIP3    H280609   0.641   2.388   2.676 -2.1094 -2.0343 -0.8532
19732TIP3   OH280610   1.534   4.033  11.830  0.1064 -0.1002  0.6882
19732TIP3    H180611   1.579   3.979  11.765 -2.1449 -2.1402  0.7079
19732TIP3    H280612   1.601   4.094  11.860  1.8867 -0.7225 -1.7269
19733TIP3   OH280613   3.550   2.681  16.153  0.1127 -0.1582  0.0019
19733TIP3    H180614   3.611   2.626  16.202  0.7869 -0.3530 -1.0174
19733TIP3    H280615   3.466   2.637  16.162  0.2216 -0.1914  0.9626
19734TIP3   OH280616   2.661   1.933   6.362 -0.8840  0.3656 -0.0519
19734TIP3    H180617   2.635   1.870   6.294 -2.9831  1.7868 -0.6581
19734TIP3    H280618   2.669   2.016   6.316 -1.2235  1.1415  1.2381
19735TIP3   OH280619   6.372   3.043   3.908 -0.2157  0.0773  0.1858
19735TIP3    H180620   6.461   3.077   3.912 -0.3439  0.7488 -1.7166
19735TIP3    H280621   6.371   2.989   3.829 -1.2820 -0.6038  0.6486
19736TIP3   OH280622   1.178   5.278  16.372  0.2455 -0.5153  0.5329
19736TIP3    H180623   1.144   5.217  16.306  1.6542 -1.0958  0.3104
19736TIP3    H280624   1.125   5.261  16.450  0.5708 -1.9831  0.4531
19737TIP3   OH280625   4.606   1.267   5.271  0.6445 -0.8402 -0.4001
19737TIP3    H180626   4.613   1.179   5.234  1.7724 -0.6908 -0.5830
19737TIP3    H280627   4.672   1.269   5.340 -1.9143 -1.3740  2.2788
19738TIP3   OH280628   6.356   1.688   1.207  0.3513 -0.1408  0.5037
19738TIP3    H180629   6.407   1.743   1.148  0.6454 -0.0419  0.8466
19738TIP3    H280630   6.269   1.729   1.209  0.4882  0.1512  0.5435
19739TIP3   OH280631   1.721   1.253   2.124  0.2134  0.0211 -0.1033
19739TIP3    H180632   1.807   1.213   2.136  0.7749  0.7764 -1.4911
19739TIP3    H280633   1.660   1.179   2.128  0.7866 -0.4089  1.9417
19740TIP3   OH280634   6.161   4.736  14.615 -0.6058 -0.6493  0.1422
19740TIP3    H180635   6.086   4.794  14.632  0.6275  1.3109 -0.7082
19740TIP3    H280636   6.220   4.789  14.561  2.0992 -1.5265  2.0176
19741TIP3   OH280637   5.643   1.503  13.368 -0.2915 -0.1896  0.1658
19741TIP3    H180638   5.552   1.532  13.357 -0.0209  0.7576  0.3275
19741TIP3    H280639   5.691   1.550  13.300  0.4458  1.1583  1.5460
19742TIP3   OH280640   3.132   5.100   1.743 -0.8314 -0.6878  0.7442
19742TIP3    H180641   3.138   5.012   1.778 -1.0227 -0.6073  0.9786
19742TIP3    H280642   3.077   5.091   1.664 -0.4198 -0.8627  0.4739
19743TIP3   OH280643   3.361   4.513  15.464  0.0644  0.0740  0.1893
19743TIP3    H180644   3.320   4.473  15.387 -0.4221  0.2605  0.3430
19743TIP3    H280645   3.309   4.480  15.537 -0.0248  0.5835  0.3592
19744TIP3   OH280646   5.307   6.382  12.161  0.2036 -0.0921  0.0900
19744TIP3    H180647   5.283   6.299  12.120 -1.0619 -0.0685  0.7160
19744TIP3    H280648   5.223   6.421  12.188  0.6384  2.0409 -1.3700
19745TIP3   OH280649   3.071   4.660  15.038 -1.0847 -0.1695 -0.1070
19745TIP3    H180650   3.041   4.737  15.088 -0.0924 -0.4373  0.9532
19745TIP3    H280651   3.121   4.609  15.102  2.0467  0.4905 -1.8266
19746TIP3   OH280652   3.386   5.605   3.979 -0.1589  0.1587  0.3575
19746TIP3    H180653   3.390   5.692   4.018  0.7706 -0.7669  2.4784
19746TIP3    H280654   3.477   5.575   3.978 -0.4224 -0.6608 -0.6965
19747TIP3   OH280655   6.771   4.943  12.077  0.8156 -0.4065 -0.1715
19747TIP3    H180656   6.770   4.951  12.173 -0.2523  0.4425 -0.2335
19747TIP3    H280657   6.815   4.860  12.061  2.1555  0.0217  1.0060
19748TIP3   OH280658   1.426   5.169  14.468 -0.0611 -0.2015  0.4171
19748TIP3    H180659   1.403   5.102  14.404 -1.9667  1.0512 -0.3229
19748TIP3    H280660   1.512   5.201  14.440  0.3590 -1.5315  0.1308
19749TIP3   OH280661   4.721   4.513   5.537  0.3270 -0.5334  0.0758
19749TIP3    H180662   4.694   4.538   5.448  1.2898  1.1394  0.2055
19749TIP3    H280663   4.647   4.540   5.592  0.0679 -0.8366 -0.1140
19750TIP3   OH280664   4.138   5.321  11.225  0.5870  0.4884 -0.3728
19750TIP3    H180665   4.214   5.283  11.182  0.1686  0.4686 -1.1205
19750TIP3    H280666   4.063   5.288  11.175  0.1575  1.4515 -0.3908
19751TIP3   OH280667   0.279   0.364  16.901  0.1713  0.2307  0.0060
19751TIP3    H180668   0.370   0.345  16.877  0.3730  0.7421  0.3389
19751TIP3    H280669   0.238   0.278  16.913  0.3799 -0.0208 -0.9724
19752TIP3   OH280670   5.584   1.312   4.543 -0.0353 -0.6818  0.2360
19752TIP3    H180671   5.625   1.227   4.563 -1.1000 -0.8517  1.8346
19752TIP3    H280672   5.637   1.347   4.471  0.8451 -2.3914 -0.0022
19753TIP3   OH280673   6.018   3.269  13.695 -0.3014  0.4979  0.1266
19753TIP3    H180674   5.924   3.275  13.713 -0.4644 -0.8284 -0.1898
19753TIP3    H280675   6.023   3.272  13.599 -0.5031 -4.0102 -0.2376
19754TIP3   OH280676   0.653   5.065  16.999 -0.2522  0.7294 -0.0102
19754TIP3    H180677   0.727   5.051  17.058 -0.9168  0.7876  0.8566
19754TIP3    H280678   0.589   4.998  17.024 -0.9772  1.4354  0.0684
19755TIP3   OH280679   6.044   0.081   5.582  0.1167 -0.6694  0.2556
19755TIP3    H180680   6.098   0.123   5.515  0.7563 -1.0110  0.5525
19755TIP3    H280681   6.069   0.124   5.663 -0.4358 -0.4716  0.3257
19756TIP3   OH280682   2.491   0.128  16.009 -0.3303  0.4059 -0.0787
19756TIP3    H180683   2.555   0.144  15.939 -0.1540 -0.9551 -0.2501
19756TIP3    H280684   2.487   0.033  16.017 -1.5062  0.5019  0.7173
19757TIP3   OH280685   5.041   0.898  10.950 -0.6148 -0.0988  0.0069
19757TIP3    H180686   5.088   0.981  10.945  1.8164 -1.3990 -0.2537
19757TIP3    H280687   5.018   0.890  11.043 -0.5266  0.6842  0.1027
19758TIP3   OH280688   2.755   5.932  15.927 -0.4225 -0.6793 -0.0130
19758TIP3    H180689   2.841   5.894  15.942 -0.7100 -0.9044  1.1550
19758TIP3    H280690   2.701   5.898  15.998 -1.4161 -0.3373 -0.5777
19759TIP3   OH280691   1.216   1.193   6.251  0.7002 -0.1597  0.7943
19759TIP3    H180692   1.215   1.264   6.315  1.1442 -1.3541  2.1754
19759TIP3    H280693   1.124   1.169   6.241  0.1209  2.5452 -2.0370
19760TIP3   OH280694   5.326   0.145   1.284 -0.3667  0.1089 -0.0928
19760TIP3    H180695   5.327   0.158   1.379  0.0019  1.2312 -0.2320
19760TIP3    H280696   5.236   0.167   1.259 -0.8765 -1.6025  0.1576
19761TIP3   OH280697   2.575   1.738   0.962  0.2092 -0.3740  0.0010
19761TIP3    H180698   2.526   1.817   0.986 -0.0756 -0.5775  0.0954
19761TIP3    H280699   2.532   1.707   0.882  0.9606  0.1304 -0.6114
19762TIP3   OH280700   1.700   3.993  13.874 -0.4687 -0.0829  0.5564
19762TIP3    H180701   1.650   4.071  13.848  1.1316  1.5817  2.1960
19762TIP3    H280702   1.754   3.973  13.798 -0.4315  0.8132  0.3356
19763TIP3   OH280703   1.975   0.068  15.319 -0.5203  0.4284  0.1187
19763TIP3    H180704   1.983   0.007  15.246  2.5982 -0.4404  1.0033
19763TIP3    H280705   1.941   0.148  15.281 -1.7333 -0.8668 -1.6772
19764TIP3   OH280706   2.723   3.659  10.967 -0.4246  0.0467  0.8379
19764TIP3    H180707   2.675   3.655  11.050 -1.7668 -0.7455  0.0728
19764TIP3    H280708   2.673   3.720  10.913 -0.0813 -0.1410  0.3006
19765TIP3   OH280709   1.807   1.788   2.346  0.3622  0.7515 -0.9886
19765TIP3    H180710   1.856   1.813   2.425  1.0217 -3.0093 -0.0374
19765TIP3    H280711   1.871   1.795   2.276  0.3176  2.2055 -0.9271
19766TIP3   OH280712   4.067   2.998   5.277 -0.0564  0.5957 -0.6150
19766TIP3    H180713   4.148   2.951   5.257  0.6231  0.9681  1.1265
19766TIP3    H280714   4.076   3.024   5.369 -1.2298  2.4735 -0.9740
19767TIP3   OH280715   3.574   1.617   0.331 -0.1191  0.0059 -0.0107
19767TIP3    H180716   3.480   1.618   0.315 -0.0264  2.0342 -0.6835
19767TIP3    H280717   3.586   1.674   0.407  0.3448 -2.5152  1.9346
19768TIP3   OH280718   3.689   2.645  12.250 -0.5251 -0.1080  0.0059
19768TIP3    H180719   3.624   2.587  12.288  0.1116 -0.7633  0.1149
19768TIP3    H280720   3.733   2.684  12.326  0.3142 -0.9302 -0.0394
19769TIP3   OH280721   6.756   4.634  14.082  0.5714 -0.6413 -0.0944
19769TIP3    H180722   6.763   4.684  14.000  0.8643  1.0798  0.9403
19769TIP3    H280723   6.707   4.556  14.057 -1.2599  0.8457 -1.5136
19770TIP3   OH280724   2.914   4.926  10.952 -0.0419 -0.5200  0.0814
19770TIP3    H180725   2.991   4.974  10.921  0.4365 -0.7575  0.8639
19770TIP3    H280726   2.939   4.834  10.945 -1.1355 -0.7269 -1.8824
19771TIP3   OH280727   5.778   5.983   4.036  0.6493  0.1748  0.0209
19771TIP3    H180728   5.691   6.014   4.060 -1.2349 -5.2842  1.9320
19771TIP3    H280729   5.824   5.972   4.120  2.0329  0.0207 -0.7151
19772TIP3   OH280730   1.173   3.480  15.335  0.1230  0.3175  0.4533
19772TIP3    H180731   1.237   3.416  15.367 -0.7662 -1.4664 -1.0639
19772TIP3    H280732   1.097   3.468  15.392 -0.2715 -0.5003 -0.2097
19773TIP3   OH280733   0.864   5.162  11.830 -0.9622 -0.1837  0.0034
19773TIP3    H180734   0.878   5.180  11.737 -1.2506  1.0202  0.1705
19773TIP3    H280735   0.908   5.235  11.875 -0.8551 -0.7306  0.8125
19774TIP3   OH280736   5.273   6.023   3.364 -0.0887 -0.7887  1.0618
19774TIP3    H180737   5.215   6.099   3.359  1.2982  0.3479  1.6020
19774TIP3    H280738   5.345   6.043   3.304  0.2753 -1.7039  1.1707
19775TIP3   OH280739   3.375   2.607  11.403 -0.3274  0.4587  0.7327
19775TIP3    H180740   3.303   2.546  11.421  0.2123 -0.3331  0.2635
19775TIP3    H280741   3.437   2.556  11.351 -0.3595  1.7195 -0.6155
19776TIP3   OH280742   5.109   1.174  11.537  0.0549  0.2606 -0.5888
19776TIP3    H180743   5.118   1.250  11.481  2.2686  1.0345  0.7141
19776TIP3    H280744   5.078   1.208  11.621  2.6360  0.0989  0.5479
19777TIP3   OH280745   6.130   1.829   4.988 -0.0005  0.0983  0.1460
19777TIP3    H180746   6.213   1.827   5.036  1.0061  1.1204 -1.4352
19777TIP3    H280747   6.063   1.831   5.056  1.3473  1.4585  1.5328
19778TIP3   OH280748   0.053   2.472  10.490  0.1060 -0.5099  0.0346
19778TIP3    H180749  -0.016   2.486  10.556 -0.3020 -0.0573 -0.4852
19778TIP3    H280750   0.114   2.411  10.533 -0.7205 -1.0884  0.4336
19779TIP3   OH280751   6.359   2.547  13.999  0.3211 -0.1118 -0.4013
19779TIP3    H180752   6.414   2.515  13.927  0.3473 -1.1131  0.0517
19779TIP3    H280753   6.301   2.474  14.020 -0.9621  0.8093 -0.6272
19780TIP3   OH280754   5.108   1.076   2.746 -0.4344 -0.3470  0.0175
19780TIP3    H180755   5.153   1.013   2.690  0.5032 -0.9196  1.3628
19780TIP3    H280756   5.153   1.070   2.830 -2.2421 -0.0340  1.0645
19781TIP3   OH280757   2.318   5.585   1.185 -0.6631  0.1215 -0.0601
19781TIP3    H180758   2.245   5.560   1.241 -1.8827 -1.0828 -2.0437
19781TIP3    H280759   2.280   5.647   1.123  0.1012 -0.1530 -0.8235
19782TIP3   OH280760   2.572   3.649  13.033 -0.6431  0.2049  0.1046
19782TIP3    H180761   2.480   3.639  13.058 -0.7390 -0.1372 -0.3696
19782TIP3    H280762   2.619   3.656  13.116 -0.8808 -1.5080  0.4198
19783TIP3   OH280763   0.869   2.518   4.816 -0.1999  0.5916 -0.0715
19783TIP3    H180764   0.859   2.593   4.875  0.6012  0.2908  0.4663
19783TIP3    H280765   0.791   2.465   4.831  0.3394  0.1389  1.2944
19784TIP3   OH280766   2.738   5.746  16.136  0.5061 -0.3510 -0.1409
19784TIP3    H180767   2.722   5.739  16.230  0.2912  3.0558  0.2188
19784TIP3    H280768   2.830   5.769  16.129  0.3764  0.0289 -0.6968
19785TIP3   OH280769   5.706   3.326  11.965  0.8843  0.3743 -0.0100
19785TIP3    H180770   5.613   3.344  11.958  0.8672  1.7539  2.7647
19785TIP3    H280771   5.738   3.329  11.874 -1.4807  1.2684 -0.8742
19786TIP3   OH280772   2.553   3.552   0.706  0.1766 -0.0388  0.0247
19786TIP3    H180773   2.563   3.611   0.631  0.5454 -0.7896 -0.5279
19786TIP3    H280774   2.627   3.572   0.763  0.7915 -0.5660 -0.5823
19787TIP3   OH280775   5.961   4.970   3.484 -0.4402  0.0370 -0.0889
19787TIP3    H180776   6.030   4.918   3.526 -0.4247 -0.3185 -0.5511
19787TIP3    H280777   5.986   5.061   3.500 -0.1241 -0.0940  0.1687
19788TIP3   OH280778   3.785   2.071  15.793  0.6681 -0.7965  0.2059
19788TIP3    H180779   3.836   2.006  15.841  0.3722 -0.4995  0.9280
19788TIP3    H280780   3.694   2.049  15.812  0.5507 -0.5842 -0.1032
19789TIP3   OH280781   0.961   3.930  14.647  0.3922 -0.3370 -0.2420
19789TIP3    H180782   0.918   4.000  14.598 -0.8110 -0.8149  0.0928
19789TIP3    H280783   1.025   3.895  14.585  0.6383  0.6960 -0.5974
19790TIP3   OH280784   0.296   3.624   1.040  0.2944 -0.4150  0.1637
19790TIP3    H180785   0.297   3.554   0.974  1.4348  1.4066 -1.8381
19790TIP3    H280786   0.203   3.642   1.053 -0.0254 -2.1325  0.6017
19791TIP3   OH280787   2.143   1.070   1.203  0.1925 -0.2526 -0.1582
19791TIP3    H180788   2.216   1.023   1.162  0.4663  1.0644 -1.2597
19791TIP3    H280789   2.121   1.017   1.279  0.2882 -2.3060 -1.4671
19792TIP3   OH280790   1.046   5.667  13.896  0.8053 -0.2067 -0.0059
19792TIP3    H180791   0.995   5.718  13.833  0.9175 -1.2611 -0.9887
19792TIP3    H280792   1.062   5.584  13.852  1.0598 -0.9075  1.3530
19793TIP3   OH280793   5.307   0.614   3.549 -0.1521 -0.4604 -0.2076
19793TIP3    H180794   5.229   0.657   3.513  0.2295  0.6492  0.2703
19793TIP3    H280795   5.339   0.560   3.477 -0.2141  0.6382 -1.0950
19794TIP3   OH280796   2.127   0.682  11.627 -0.1262 -0.4921 -0.0645
19794TIP3    H180797   2.087   0.646  11.548 -2.6040 -0.1916  0.9440
19794TIP3    H280798   2.122   0.776  11.616 -2.3455 -0.3945  1.2069
19795TIP3   OH280799   5.401   0.204  12.403 -0.1063  0.3341 -0.5180
19795TIP3    H180800   5.488   0.228  12.373  0.0654 -0.4467 -0.6596
19795TIP3    H280801   5.344   0.221  12.328 -0.4820  3.0123  0.2565
19796TIP3   OH280802   5.242   1.761  16.062 -0.4926 -0.4555 -0.0849
19796TIP3    H180803   5.226   1.749  16.155 -1.4150 -1.3911 -0.3525
19796TIP3    H280804   5.320   1.816  16.058 -1.5116  1.1865  1.2550
19797TIP3   OH280805   6.471   2.319   1.970 -0.5478 -0.2840 -0.0904
19797TIP3    H180806   6.508   2.329   2.058  0.2755 -1.0751 -0.3297
19797TIP3    H280807   6.486   2.404   1.929 -2.0856  0.5172  0.9282
19798TIP3   OH280808   6.538   6.677   2.654 -0.1043  0.0113 -0.5838
19798TIP3    H180809   6.630   6.653   2.645 -0.3383 -0.4759 -2.0591
19798TIP3    H280810   6.510   6.638   2.737  0.7197 -0.8957 -0.7135
19799TIP3   OH280811   0.313   0.153   0.550  0.1313  0.2396 -0.4575
19799TIP3    H180812   0.400   0.117   0.530  0.1583  0.5753 -0.9711
19799TIP3    H280813   0.288   0.112   0.632  1.4167  1.2315  0.4680
19800TIP3   OH280814   4.459   0.322   3.655  0.1268 -0.2048  0.0954
19800TIP3    H180815   4.420   0.242   3.689 -1.8149 -0.2822 -2.0422
19800TIP3    H280816   4.498   0.296   3.572 -1.2326  1.1431 -1.0303
19801TIP3   OH280817   6.126   1.945  15.599  0.2517 -0.2064 -0.1031
19801TIP3    H180818   6.137   1.850  15.602  1.5832 -0.0644  0.3414
19801TIP3    H280819   6.205   1.980  15.641  0.3159  1.1222 -1.2313
19802TIP3   OH280820   3.031   3.031  13.033 -0.4989 -0.5876  0.6264
19802TIP3    H180821   3.014   3.112  12.985 -1.3539 -0.7513  0.6389
19802TIP3    H280822   3.124   3.036  13.057 -0.4225  0.1505  0.1928
19803TIP3   OH280823   5.307   6.108   0.320  0.0047  0.5137  0.2906
19803TIP3    H180824   5.275   6.158   0.395  0.4240  3.9449 -1.6257
19803TIP3    H280825   5.235   6.110   0.257  0.8415  0.6658 -0.6824
19804TIP3   OH280826   2.167   1.977  14.822 -0.1569  0.5231 -0.0435
19804TIP3    H180827   2.154   1.926  14.742  1.3493 -1.6630  0.9708
19804TIP3    H280828   2.109   1.935  14.886 -1.4003  2.2882  0.0584
19805TIP3   OH280829   2.378   0.229  16.227 -0.5639  0.4198  0.0034
19805TIP3    H180830   2.438   0.239  16.301  0.3748 -1.2377 -0.4520
19805TIP3    H280831   2.436   0.214  16.152 -1.5317  0.0922 -0.6964
19806TIP3   OH280832   4.475   6.455  11.623 -0.3869  0.3822  0.6359
19806TIP3    H180833   4.567   6.480  11.614 -0.4754  0.2276 -1.1225
19806TIP3    H280834   4.476   6.359  11.616 -0.5701  0.2608  2.0139
19807TIP3   OH280835   4.173   6.429   3.537 -0.3895  0.2408  0.0441
19807TIP3    H180836   4.178   6.335   3.556 -1.0241  0.3405  0.7372
19807TIP3    H280837   4.207   6.472   3.615 -0.5524  0.6022 -0.0796
19808TIP3   OH280838   1.250   2.992  14.160 -0.5587  0.0677  0.1463
19808TIP3    H180839   1.247   3.019  14.068  2.7462 -0.3565 -0.1984
19808TIP3    H280840   1.286   3.067  14.207  1.9711 -1.1145  0.2889
19809TIP3   OH280841   0.672   3.119   1.114  0.1196  0.3996  0.0337
19809TIP3    H180842   0.719   3.049   1.068  1.2258  0.8728  0.4029
19809TIP3    H280843   0.737   3.156   1.174 -0.0306  2.6341 -1.0840
19810TIP3   OH280844   0.221   1.656   3.733 -0.4867  0.1631  0.0404
19810TIP3    H180845   0.126   1.644   3.734 -0.6688  1.4609  0.3948
19810TIP3    H280846   0.250   1.616   3.652 -1.0844 -1.9596  0.8211
19811TIP3   OH280847   5.510   4.465  12.350  0.2153 -0.0062 -0.1789
19811TIP3    H180848   5.575   4.497  12.287 -1.3479 -1.1642 -2.5158
19811TIP3    H280849   5.525   4.370  12.353 -1.8838 -0.4340 -1.4822
19812TIP3   OH280850   4.762   3.314  13.635  0.0601 -0.0133  0.3442
19812TIP3    H180851   4.827   3.271  13.580 -1.5858 -2.2357  0.0026
19812TIP3    H280852   4.687   3.329  13.577 -1.3340 -1.4933  1.6669
19813TIP3   OH280853   5.273   0.696   3.067 -0.4250  0.0821  0.0394
19813TIP3    H180854   5.189   0.733   3.093 -0.2067  0.3118  0.4225
19813TIP3    H280855   5.250   0.626   3.006 -0.9660 -0.6733  1.0700
19814TIP3   OH280856   5.820   3.256  17.040  0.2685  0.3229  0.2590
19814TIP3    H180857   5.867   3.209  17.109  0.6693  1.1443  0.5627
19814TIP3    H280858   5.738   3.282  17.081 -0.5943 -1.3091 -0.3400
19815TIP3   OH280859   5.989   1.445   0.336 -0.1730 -0.3218 -0.0834
19815TIP3    H180860   6.072   1.489   0.354  0.0230 -0.5647 -0.3711
19815TIP3    H280861   5.925   1.516   0.332 -0.1841 -0.2429  1.2777
19816TIP3   OH280862   6.629   5.093  15.073  0.4017  0.4915 -0.8127
19816TIP3    H180863   6.541   5.087  15.037  0.0173  0.6416  0.0735
19816TIP3    H280864   6.665   5.173  15.037 -0.3299  1.1443 -0.1317
19817TIP3   OH280865   5.326   0.054   6.408  0.1349  0.1544 -0.0504
19817TIP3    H180866   5.265  -0.010   6.369  0.3082 -0.1488  0.1703
19817TIP3    H280867   5.411   0.011   6.402  0.0806 -0.1693  1.2501
19818TIP3   OH280868   0.366   1.607   2.093 -0.4456  0.6284  0.6997
19818TIP3    H180869   0.442   1.664   2.096 -1.1658  1.8982 -2.0355
19818TIP3    H280870   0.299   1.658   2.047 -1.9829 -1.4848  0.4270
19819TIP3   OH280871   4.162   1.809   2.139  0.3707 -0.6585 -0.5199
19819TIP3    H180872   4.213   1.889   2.155  0.8213 -1.1242  0.5285
19819TIP3    H280873   4.096   1.810   2.208 -1.4088  0.1934 -2.1681
19820TIP3   OH280874   3.786   0.536  12.216  0.2771 -0.2615  0.1041
19820TIP3    H180875   3.734   0.571  12.144 -0.9313  0.4197  1.2623
19820TIP3    H280876   3.771   0.442  12.213  1.1544 -0.3782 -1.2092
19821TIP3   OH280877   4.547   4.944   7.060 -0.1739  0.0240 -0.1409
19821TIP3    H180878   4.611   4.934   6.990  1.7558 -0.8004  1.6278
19821TIP3    H280879   4.496   4.863   7.058 -0.2884  0.1061 -0.7144
19822TIP3   OH280880   2.961   2.496  15.830  0.2853 -0.8627  0.1891
19822TIP3    H180881   3.004   2.410  15.829  1.2193 -0.4157 -1.6473
19822TIP3    H280882   3.026   2.555  15.868  0.6352 -0.5260 -0.8938
19823TIP3   OH280883   6.396   4.256   0.024  0.3329  0.0967 -0.1205
19823TIP3    H180884   6.385   4.307  -0.057  0.1935 -0.3129 -0.3628
19823TIP3    H280885   6.327   4.190   0.020 -0.1061  0.4895  0.6637
19824TIP3   OH280886   3.401   0.100   1.906  0.1251  0.6032 -0.0521
19824TIP3    H180887   3.456   0.131   1.834  0.8304 -0.4725  0.0024
19824TIP3    H280888   3.351   0.028   1.868 -0.5474  0.9511  0.1638
19825TIP3   OH280889   5.799   1.154  16.014 -0.4096  0.1989 -0.3759
19825TIP3    H180890   5.763   1.167  15.926 -2.7713 -0.9937  0.3256
19825TIP3    H280891   5.741   1.205  16.071 -0.5415 -1.1467  0.7382
19826TIP3   OH280892   5.083   1.316  16.177 -0.0587  0.1456 -0.6221
19826TIP3    H180893   5.109   1.236  16.130  1.4135 -0.0429  0.4422
19826TIP3    H280894   5.011   1.288  16.233  0.4228 -0.4528 -0.2787
19827TIP3   OH280895   2.634   4.741   4.798  0.1932 -0.1409  0.0464
19827TIP3    H180896   2.642   4.709   4.708 -1.0655 -1.2104  0.2767
19827TIP3    H280897   2.540   4.749   4.812  0.3281 -0.7318  1.4990
19828TIP3   OH280898   1.722   3.089  11.424 -0.2342 -0.2850 -0.5011
19828TIP3    H180899   1.659   3.076  11.353 -1.6242  0.8924  0.4558
19828TIP3    H280900   1.783   3.155  11.390  0.4880 -1.3652 -1.3993
19829TIP3   OH280901   5.957   0.949  14.145 -0.1664  0.0738  0.0000
19829TIP3    H180902   5.862   0.954  14.136 -0.0879 -0.1068 -1.0035
19829TIP3    H280903   5.991   0.985  14.063  0.6511  0.7311  0.5998
19830TIP3   OH280904   1.910   0.224  16.759 -0.0755  0.0622  0.3942
19830TIP3    H180905   1.940   0.186  16.842  1.5633 -0.6290 -0.4772
19830TIP3    H280906   1.887   0.148  16.705  0.5910  0.4276 -0.4168
19831TIP3   OH280907   6.337   2.120  11.999  0.3161 -0.2991  0.0378
19831TIP3    H180908   6.412   2.165  11.960  0.4992 -0.2455  0.4463
19831TIP3    H280909   6.267   2.185  11.999  0.3135 -0.3023 -0.2120
19832TIP3   OH280910   6.288   4.713  12.896 -0.1594 -0.3446  0.6734
19832TIP3    H180911   6.305   4.618  12.898 -0.8239 -0.4880  2.8045
19832TIP3    H280912   6.196   4.721  12.921 -0.2590  0.8476 -0.0250
19833TIP3   OH280913   2.001   1.793   2.158  0.2150  0.2397 -0.5717
19833TIP3    H180914   2.080   1.768   2.205 -0.2512  0.8903  0.5832
19833TIP3    H280915   2.033   1.843   2.083  0.8772  1.0306  0.2232
19834TIP3   OH280916   3.656   0.120   4.114  0.2833 -0.6916  0.1996
19834TIP3    H180917   3.705   0.055   4.164  0.7495 -1.5229 -1.3050
19834TIP3    H280918   3.600   0.069   4.056 -0.0168  0.2507 -0.3570
19835TIP3   OH280919   6.678   3.767   4.089 -0.5787 -0.2336  0.6377
19835TIP3    H180920   6.616   3.785   4.019 -0.2057  0.9617  0.5916
19835TIP3    H280921   6.631   3.787   4.169 -0.1594  1.0015  0.5860
19836TIP3   OH280922   0.253   0.788   0.520  0.1626 -0.5764 -0.0904
19836TIP3    H180923   0.269   0.877   0.550  1.1566 -0.8865  0.3213
19836TIP3    H280924   0.158   0.784   0.508  0.2534  1.1260 -1.9650
19837TIP3   OH280925   0.166   2.787  11.895  0.0810 -0.1296  0.2932
19837TIP3    H180926   0.254   2.804  11.862  0.4926 -0.2212  1.3352
19837TIP3    H280927   0.128   2.874  11.908  0.7640 -0.0408  1.8145
19838TIP3   OH280928   5.266   5.980   4.289 -0.3169 -0.3987  0.0976
19838TIP3    H180929   5.307   5.947   4.369 -1.6337 -0.6983  0.6708
19838TIP3    H280930   5.223   5.904   4.251 -0.5939 -0.0288 -0.3382
19839TIP3   OH280931   4.936   6.081  15.781  0.0836  0.3366  0.0143
19839TIP3    H180932   4.978   6.009  15.829 -1.0928 -1.5073 -1.5785
19839TIP3    H280933   4.852   6.045  15.752 -0.8261  2.5695 -0.3765
19840TIP3   OH280934   5.117   2.741   4.901 -0.3060 -0.0708  0.1609
19840TIP3    H180935   5.083   2.820   4.860 -2.2415 -1.2536 -0.7179
19840TIP3    H280936   5.198   2.767   4.943 -0.5879  2.2185 -0.6117
19841TIP3   OH280937   3.236   1.908  14.452 -0.3915  0.4244  0.7543
19841TIP3    H180938   3.203   1.921  14.540 -3.3837  2.2689 -0.4933
19841TIP3    H280939   3.260   1.995  14.421  2.7913 -0.4562  0.4182
19842TIP3   OH280940   4.762   1.974  14.346 -0.6117  0.2923 -0.2890
19842TIP3    H180941   4.760   1.878  14.341  0.9558  0.2715 -1.2621
19842TIP3    H280942   4.845   1.998  14.305  0.2144  1.9504  2.1183
19843TIP3   OH280943   1.811   1.641  14.528  0.3497 -0.1458  0.3699
19843TIP3    H180944   1.738   1.585  14.502 -0.6992  0.4342  1.9439
19843TIP3    H280945   1.847   1.599  14.606  0.2058  0.8008  0.9600
19844TIP3   OH280946   2.108   3.560   2.777  0.8543  0.3539  0.4405
19844TIP3    H180947   2.047   3.494   2.743  0.7148 -0.4301  2.1282
19844TIP3    H280948   2.188   3.547   2.726  0.0297  0.5847 -0.9608
19845TIP3   OH280949   4.228   4.684   0.649  0.4695  0.0978 -0.0924
19845TIP3    H180950   4.276   4.766   0.637  0.4818  0.3435  1.4442
19845TIP3    H280951   4.296   4.618   0.660  0.4532  0.0336 -0.3614
19846TIP3   OH280952   2.080   3.600   0.447  0.0490 -0.2117  0.2723
19846TIP3    H180953   2.124   3.543   0.510  0.8561  0.9204  0.7589
19846TIP3    H280954   2.001   3.629   0.492  0.5133  0.4197  0.6926
19847TIP3   OH280955   0.923   0.784   6.531  0.6572  0.4926 -0.2922
19847TIP3    H180956   0.838   0.762   6.493  0.3418  0.5895  0.3293
19847TIP3    H280957   0.969   0.701   6.536  0.4368  0.3700 -0.2682
19848TIP3   OH280958   4.381   2.512   1.146 -0.2077 -0.0416 -0.4457
19848TIP3    H180959   4.444   2.441   1.161 -1.7555 -1.1779  1.1729
19848TIP3    H280960   4.339   2.490   1.063 -1.8867 -2.0817  0.8532
19849TIP3   OH280961   4.253   3.989  15.463  0.5951 -0.4012  0.5460
19849TIP3    H180962   4.240   4.082  15.445  1.1262  0.0335  2.2427
19849TIP3    H280963   4.328   3.964  15.409 -1.1935 -0.5837 -2.0268
19850TIP3   OH280964   6.750   3.897   5.695 -0.2477  0.1310 -0.4259
19850TIP3    H180965   6.688   3.869   5.627 -0.2077  0.3493 -0.5524
19850TIP3    H280966   6.727   3.988   5.712 -0.1746  0.1128 -0.2366
19851TIP3   OH280967   2.640   6.122  15.548  0.3586  0.6803 -0.2143
19851TIP3    H180968   2.731   6.128  15.576  0.2554 -0.6977  0.4918
19851TIP3    H280969   2.591   6.109  15.629 -0.0264 -2.6251 -0.8416
19852TIP3   OH280970   2.816   6.333  11.495  0.3759 -0.6679  0.4511
19852TIP3    H180971   2.887   6.347  11.557  0.6132 -1.8626  0.4798
19852TIP3    H280972   2.805   6.238  11.493 -0.3102 -0.5808 -0.5701
19853TIP3   OH280973   1.949   5.444   5.956 -1.0962 -0.0177 -0.2048
19853TIP3    H180974   1.983   5.354   5.959 -0.1218  0.3542  0.8937
19853TIP3    H280975   1.856   5.434   5.936 -0.8328 -1.2181 -0.9642
19854TIP3   OH280976   3.055   2.392   5.879  0.0296  0.0993 -0.5762
19854TIP3    H180977   3.030   2.333   5.950  0.0987 -0.9781 -1.4167
19854TIP3    H280978   3.138   2.356   5.846 -0.6844 -0.2282 -2.0782
19855TIP3   OH280979   3.242   4.452  15.697 -0.0404 -0.0552  0.4598
19855TIP3    H180980   3.192   4.370  15.693 -0.4074  0.1790  0.2106
19855TIP3    H280981   3.305   4.438  15.768 -0.8677 -0.1263  1.2005
19856TIP3   OH280982   2.604   3.685   3.902 -0.2513  0.2156 -0.5035
19856TIP3    H180983   2.598   3.748   3.974 -0.6044  0.5062 -0.7840
19856TIP3    H280984   2.665   3.724   3.841  1.2111 -0.7095  0.3023
19857TIP3   OH280985   2.046   3.722   6.037  0.2175  0.6056  0.1835
19857TIP3    H180986   1.976   3.722   5.973 -0.2010  3.5825  0.4994
19857TIP3    H280987   2.018   3.661   6.105 -0.5433 -0.6012 -1.1788
19858TIP3   OH280988   4.098   3.175   1.486  0.2174 -0.5112 -0.5636
19858TIP3    H180989   4.029   3.222   1.439 -1.2544 -0.5848  1.4072
19858TIP3    H280990   4.150   3.244   1.527 -0.5732 -0.5170  0.4725
19859TIP3   OH280991   5.719   5.903  13.082  0.0204  0.0595 -0.5706
19859TIP3    H180992   5.672   5.820  13.087  1.1747 -0.5355  2.9142
19859TIP3    H280993   5.659   5.968  13.119  0.3641  0.0966 -0.0621
19860TIP3   OH280994   5.136   3.751   4.678 -0.1585 -0.2327  0.1013
19860TIP3    H180995   5.064   3.797   4.722 -0.2150 -0.6260  0.4266
19860TIP3    H280996   5.187   3.714   4.750  0.6898  0.5157 -0.1031
19861TIP3   OH280997   6.627   5.999   4.569 -0.2439  0.4497  0.3652
19861TIP3    H180998   6.687   6.057   4.521  0.8567  0.1562  1.3303
19861TIP3    H280999   6.675   5.977   4.649 -1.0811 -0.9453  0.5047
19862TIP3   OH281000   0.056   1.730   3.928 -0.1279 -0.2483 -0.2660
19862TIP3    H181001   0.072   1.800   3.990 -2.8130  0.7738 -0.6195
19862TIP3    H281002   0.138   1.723   3.878  0.7527  1.4675  0.8547
19863TIP3   OH281003   5.084   2.610  11.445 -0.9663  0.2455 -0.0497
19863TIP3    H181004   5.091   2.700  11.478 -1.2456  0.0646  0.5184
19863TIP3    H281005   5.051   2.560  11.520  1.4308 -0.7873  0.4032
19864TIP3   OH281006   6.525   3.506  15.908  0.7229 -0.1304 -0.0392
19864TIP3    H181007   6.580   3.495  15.830 -0.2873 -0.2611 -0.7590
19864TIP3    H281008   6.491   3.595  15.900  0.9688  0.0126  0.4936
19865TIP3   OH281009   4.120   3.855  15.684 -0.1970 -0.0063 -1.2535
19865TIP3    H181010   4.181   3.925  15.660  1.2212 -0.6592  0.2716
19865TIP3    H281011   4.152   3.778  15.637 -1.6888  0.2659 -2.8387
19866TIP3   OH281012   0.248   5.993   2.119 -0.5556 -0.6165  0.3668
19866TIP3    H181013   0.227   5.911   2.075  0.8729 -0.3622 -0.8645
19866TIP3    H281014   0.181   6.002   2.187 -1.2525 -2.3420 -0.0532
19867TIP3   OH281015   5.666   6.521   1.037 -0.3802 -0.1354 -0.0859
19867TIP3    H181016   5.612   6.448   1.066 -0.1166 -0.1861  0.2812
19867TIP3    H281017   5.674   6.577   1.114 -1.3798  0.7800 -0.6140
19868TIP3   OH281018   5.891   4.945   5.686  0.2871  0.2385  0.2276
19868TIP3    H181019   5.833   5.008   5.728 -0.4171 -0.6059  0.5372
19868TIP3    H281020   5.907   4.982   5.599  0.6206  1.2885  0.7194
19869TIP3   OH281021   5.900   6.717   1.477 -0.0485 -0.1158  0.2899
19869TIP3    H181022   5.855   6.793   1.512 -1.1937 -0.7081  0.1322
19869TIP3    H281023   5.989   6.748   1.458 -0.3394  1.0229  0.7452
19870TIP3   OH281024   6.140   2.850   4.640  0.0737 -0.3487  0.2724
19870TIP3    H181025   6.054   2.834   4.680 -0.2809 -1.5726 -0.8945
19870TIP3    H281026   6.139   2.798   4.560  1.5009  0.4975 -0.3348
19871TIP3   OH281027   1.421   2.441  13.579 -0.4904 -0.6779  0.4398
19871TIP3    H181028   1.475   2.382  13.632  0.3069 -1.6280 -1.3352
19871TIP3    H281029   1.424   2.403  13.491 -1.4155  1.0629 -0.3908
19872TIP3   OH281030   3.897   5.990   4.686 -0.0930  0.2050 -0.1634
19872TIP3    H181031   3.813   5.967   4.647  0.7812  1.0382 -2.8024
19872TIP3    H281032   3.957   5.994   4.611  2.1398  0.3147  1.5362
19873TIP3   OH281033   1.110   4.630   4.040 -0.0189  0.2655 -0.7153
19873TIP3    H181034   1.154   4.568   4.098 -1.4254 -0.2953 -0.2106
19873TIP3    H281035   1.043   4.579   3.997  0.2035  0.9659 -1.9374
19874TIP3   OH281036   0.357   0.331  14.891 -0.4167  0.2403  0.0654
19874TIP3    H181037   0.285   0.270  14.909 -0.2504 -0.2538 -0.8722
19874TIP3    H281038   0.435   0.286  14.924 -0.0407 -0.8892 -2.2007
19875TIP3   OH281039   2.822   5.054  16.137  0.0394 -0.2718 -0.4529
19875TIP3    H181040   2.818   5.149  16.147 -0.8982 -0.5267  2.3024
19875TIP3    H281041   2.739   5.030  16.097 -0.6383 -0.1071  0.8332
19876TIP3   OH281042   6.111   1.082  16.152  0.0375 -0.0293  0.4149
19876TIP3    H181043   6.160   1.163  16.144  0.6555 -0.3572  0.8499
19876TIP3    H281044   6.101   1.052  16.061 -0.2059  0.5333  0.2507
19877TIP3   OH281045   0.422   1.430  15.706  0.1273 -0.6730  0.2538
19877TIP3    H181046   0.335   1.401  15.682 -0.3111  0.3935  0.5000
19877TIP3    H281047   0.455   1.474  15.628 -0.2145  0.3722  0.6847
19878TIP3   OH281048   3.864   2.518   1.656 -0.2248  0.1333 -0.5809
19878TIP3    H181049   3.825   2.447   1.707  1.4867 -0.1215  0.4599
19878TIP3    H281050   3.958   2.505   1.666  0.1331  1.4437 -1.9570
19879TIP3   OH281051   6.481   2.241   4.054 -0.7932 -0.5377 -0.0550
19879TIP3    H181052   6.560   2.255   4.105 -1.0263  2.0014 -0.2589
19879TIP3    H281053   6.505   2.175   3.989  0.6990 -0.8411  0.7711
19880TIP3   OH281054   2.030   3.824   2.806  0.3229  0.0146 -0.6681
19880TIP3    H181055   2.065   3.735   2.796 -0.8748 -0.6720  0.7812
19880TIP3    H281056   1.998   3.847   2.719  0.5017 -1.0509 -1.0313
19881TIP3   OH281057   4.402   3.697   4.822 -0.1896  0.6975 -0.7036
19881TIP3    H181058   4.496   3.700   4.803 -0.1080 -0.7570 -0.5809
19881TIP3    H281059   4.378   3.789   4.834  1.3687  1.0458 -0.0036
19882TIP3   OH281060   4.653   5.675  11.443  0.1250  0.4396 -0.0420
19882TIP3    H181061   4.627   5.711  11.358 -0.0508  1.7724  0.5416
19882TIP3    H281062   4.623   5.584  11.441 -0.5996  0.6825 -1.0890
19883TIP3   OH281063   0.654   2.521   5.453  0.0462  0.3792  0.3955
19883TIP3    H181064   0.717   2.450   5.463  1.1276  1.0821 -1.0669
19883TIP3    H281065   0.636   2.525   5.359 -1.6414  0.6756  0.6964
19884TIP3   OH281066   4.002   2.212   1.291 -0.1583 -0.4277  0.2682
19884TIP3    H181067   4.082   2.264   1.289 -0.1548 -0.4442 -0.1759
19884TIP3    H281068   3.931   2.276   1.297 -0.1479 -0.3746 -0.1451
19885TIP3   OH281069   2.510   0.307  11.624  0.4381 -0.1263 -0.7056
19885TIP3    H181070   2.440   0.339  11.681  0.8234 -1.3915  0.5176
19885TIP3    H281071   2.575   0.378  11.623 -0.2541  0.5144 -0.7977
19886TIP3   OH281072   3.741   4.047  14.296 -0.5468  0.3732  0.2616
19886TIP3    H181073   3.836   4.052  14.303 -0.2220 -0.9775 -1.9883
19886TIP3    H281074   3.719   4.102  14.220 -1.0903 -1.9538 -1.3784
19887TIP3   OH281075   0.499   5.995  12.247 -0.7256 -0.4588 -0.1305
19887TIP3    H181076   0.524   6.049  12.322 -1.4737 -1.2995  0.7383
19887TIP3    H281077   0.577   5.994  12.191 -0.0635 -0.0539  0.7643
19888TIP3   OH281078   2.620   1.556   0.291  0.1829  0.6054 -0.6180
19888TIP3    H181079   2.591   1.465   0.298  1.2097  0.2534 -0.8640
19888TIP3    H281080   2.715   1.553   0.304  0.0307  1.8720  1.2624
19889TIP3   OH281081   6.508   0.408  16.226  0.1535  1.0270  0.3672
19889TIP3    H181082   6.551   0.492  16.211 -0.9208  1.4910 -0.1727
19889TIP3    H281083   6.566   0.363  16.288  1.2289  1.7664 -0.0641
19890TIP3   OH281084   0.658   2.281   1.451  0.5026  0.2049 -0.0197
19890TIP3    H181085   0.666   2.370   1.417  0.2522 -0.0861 -0.8843
19890TIP3    H281086   0.660   2.226   1.373  0.0925 -0.5082  0.4604
19891TIP3   OH281087   0.489   0.248  11.344 -0.2235 -0.1400 -0.1677
19891TIP3    H181088   0.533   0.192  11.407 -0.5298 -0.1868  0.0104
19891TIP3    H281089   0.511   0.337  11.372 -0.2334 -0.1630 -0.0843
19892TIP3   OH281090   0.637   6.352   0.287  0.6220 -0.0791  0.1414
19892TIP3    H181091   0.608   6.431   0.241  1.7839  0.6741  0.6635
19892TIP3    H281092   0.733   6.354   0.282  0.8930  0.5792  3.3976
19893TIP3   OH281093   1.969   3.176  16.135  0.1412  0.4487  0.8403
19893TIP3    H181094   2.000   3.220  16.215  0.1360  0.1767  0.9911
19893TIP3    H281095   1.960   3.247  16.072  1.1996  0.5281  0.7505
19894TIP3   OH281096   0.137   2.538  16.320  0.3539  0.2912  0.3523
19894TIP3    H181097   0.106   2.451  16.346  0.3521  0.4724  0.9722
19894TIP3    H281098   0.196   2.521  16.246 -1.2309 -0.0539 -0.8885
19895TIP3   OH281099   6.203   4.379  17.069 -0.0050 -0.6856 -0.2855
19895TIP3    H181100   6.139   4.382  17.140  0.3560  0.3135  0.0179
19895TIP3    H281101   6.189   4.294  17.028  0.0085 -1.4437  1.1916
19896TIP3   OH281102   6.738   3.194   3.660  0.2183  0.3549  0.2064
19896TIP3    H181103   6.833   3.191   3.664  0.2666  2.2161  1.3283
19896TIP3    H281104   6.717   3.279   3.622 -0.9827  0.9070  1.9608
19897TIP3   OH281105   0.351   1.284   2.846 -0.1488 -0.1718 -0.0286
19897TIP3    H181106   0.298   1.234   2.784 -0.5147 -0.6054  0.6179
19897TIP3    H281107   0.366   1.368   2.803  0.5227 -0.8425 -1.1650
19898TIP3   OH281108   3.244   0.273   1.321 -0.0727  0.1806 -0.2498
19898TIP3    H181109   3.315   0.255   1.259 -1.2313 -0.4630 -1.4404
19898TIP3    H281110   3.190   0.339   1.278 -0.2248  0.6600  0.6372
19899TIP3   OH281111   0.216   4.379   1.588  0.0752  0.0630  0.8394
19899TIP3    H181112   0.297   4.331   1.570  0.0638  0.4810 -0.3868
19899TIP3    H281113   0.246   4.465   1.616  0.0605 -0.0683  1.2699
19900TIP3   OH281114   4.323   4.597   2.238 -0.3220  0.1918  0.5315
19900TIP3    H181115   4.252   4.543   2.202  0.7371 -0.4728 -0.6337
19900TIP3    H281116   4.374   4.623   2.161  1.0071  0.2206  1.3936
19901TIP3   OH281117   6.140   2.000  14.530 -0.1143  0.1746  0.2607
19901TIP3    H181118   6.166   2.055  14.603  0.6243  1.0731 -0.6471
19901TIP3    H281119   6.045   1.999  14.533 -0.0986  0.5219  0.9900
19902TIP3   OH281120   1.725   1.403  15.780 -0.0963  0.6146  0.9523
19902TIP3    H181121   1.800   1.388  15.721  0.7226  0.8785  1.9011
19902TIP3    H281122   1.739   1.342  15.852 -1.5740 -0.3393  0.4701
19903TIP3   OH281123   0.314   4.414   4.245 -0.0091  0.5709 -0.0652
19903TIP3    H181124   0.271   4.490   4.207 -0.4625  0.7794  0.8310
19903TIP3    H281125   0.243   4.357   4.273  0.3313 -0.4474 -1.2148
19904TIP3   OH281126   3.861   4.390   2.728  0.0723  0.3683  0.6067
19904TIP3    H181127   3.940   4.381   2.781  1.0527  2.3640 -0.3894
19904TIP3    H281128   3.892   4.424   2.644 -1.7122 -0.0926 -0.2852
19905TIP3   OH281129   3.739   3.382  13.858  0.0204  0.2086 -0.3414
19905TIP3    H181130   3.701   3.368  13.771  0.5581 -1.7461 -0.3028
19905TIP3    H281131   3.662   3.392  13.915 -0.3557  0.5296 -0.8904
19906TIP3   OH281132   6.388   6.094  13.813 -0.0590 -0.2885 -0.0244
19906TIP3    H181133   6.365   6.009  13.851 -0.8864  0.0841  0.3452
19906TIP3    H281134   6.310   6.120  13.763 -0.1166  0.5913  0.4980
19907TIP3   OH281135   0.496   5.530   4.461 -0.7953  0.0992  0.5237
19907TIP3    H181136   0.442   5.462   4.501 -0.6247 -0.5797 -0.3477
19907TIP3    H281137   0.480   5.520   4.367 -0.1285  0.7192  0.3387
19908TIP3   OH281138   0.049   5.173   2.083  0.4182 -0.1305 -0.7445
19908TIP3    H181139  -0.016   5.240   2.060 -0.6834 -1.1158 -0.5951
19908TIP3    H281140   0.132   5.220   2.084 -0.7602  2.4713  4.2348
19909TIP3   OH281141   2.822   0.152   4.760  0.0448  0.0979  0.2695
19909TIP3    H181142   2.741   0.142   4.711 -0.6585 -0.1892  1.4517
19909TIP3    H281143   2.828   0.073   4.812 -0.6098  1.4791  2.5895
19910TIP3   OH281144   4.589   5.678   2.062  0.3610  0.4168  0.0790
19910TIP3    H181145   4.584   5.769   2.033  3.6708  0.3999 -0.8503
19910TIP3    H281146   4.541   5.629   1.996  1.9638  1.1111 -1.6737
19911TIP3   OH281147   1.593   3.288   2.583  0.3742  0.3964 -0.0538
19911TIP3    H181148   1.599   3.308   2.677 -0.4464  0.0712  0.0836
19911TIP3    H281149   1.632   3.202   2.574  1.9223  1.0900 -0.2896
19912TIP3   OH281150   6.310   1.554  15.093  0.5703  0.4594  0.0828
19912TIP3    H181151   6.387   1.510  15.056  1.6957  0.1442  2.5895
19912TIP3    H281152   6.315   1.643  15.059  1.6120  0.2275 -0.4224
19913TIP3   OH281153   0.521   3.499  10.527 -1.0315  0.0708  0.5737
19913TIP3    H181154   0.561   3.546  10.454  1.2771 -1.8979  0.4570
19913TIP3    H281155   0.444   3.455  10.488 -0.6301  0.1606 -0.3466
19914TIP3   OH281156   6.167   1.146   6.378 -0.6550 -0.0165  0.1377
19914TIP3    H181157   6.183   1.173   6.288 -0.0371 -2.2121 -0.4653
19914TIP3    H281158   6.072   1.148   6.387 -0.6831  3.5482  0.6136
19915TIP3   OH281159   0.833   5.653  12.719 -0.1818 -0.7526 -0.0564
19915TIP3    H181160   0.740   5.652  12.693 -0.2357  0.7974  0.0319
19915TIP3    H281161   0.879   5.682  12.641 -0.1884  2.3370  0.9549
19916TIP3   OH281162   1.559   5.456   2.934 -0.0665 -0.3387  0.1417
19916TIP3    H181163   1.518   5.433   3.017  1.0142  1.8126  1.3639
19916TIP3    H281164   1.504   5.527   2.899 -0.3833 -1.0700 -0.9044
19917TIP3   OH281165   5.764   5.670  12.809 -0.6511 -0.4284 -0.1378
19917TIP3    H181166   5.697   5.727  12.772 -0.3668 -0.2200 -0.3319
19917TIP3    H281167   5.739   5.582  12.780 -2.6904 -0.8314  2.4435
19918TIP3   OH281168   0.583   3.324  13.105 -0.1576  0.1806  0.3768
19918TIP3    H181169   0.594   3.387  13.176 -1.5085  1.6277 -0.6532
19918TIP3    H281170   0.538   3.372  13.037 -0.0329 -1.5484 -0.9849
19919TIP3   OH281171   0.663   2.242  14.455 -0.0987  0.0720 -0.2472
19919TIP3    H181172   0.742   2.283  14.420  0.7305 -1.3923 -0.2112
19919TIP3    H281173   0.696   2.173  14.514 -1.4417  1.1040  1.8237
19920TIP3   OH281174   5.111   1.987   2.064  0.4524 -0.4031 -0.2458
19920TIP3    H181175   5.189   1.949   2.023  1.4570  1.6106 -0.3416
19920TIP3    H281176   5.131   1.989   2.157 -0.2477 -1.4847 -0.0548
19921TIP3   OH281177   2.343   3.618   1.558  0.3342 -0.9750 -0.1246
19921TIP3    H181178   2.347   3.570   1.475 -0.9642 -1.6729  0.1909
19921TIP3    H281179   2.296   3.559   1.618 -2.2016  1.0270  0.0296
19922TIP3   OH281180   5.513   1.605   3.015 -0.1560  0.0270  0.1794
19922TIP3    H181181   5.576   1.663   3.057 -0.8429  1.0370 -0.1722
19922TIP3    H281182   5.432   1.616   3.065 -1.2474  1.9034 -1.8464
19923TIP3   OH281183   0.422   4.348   4.724  0.4743 -0.1931 -0.2113
19923TIP3    H181184   0.462   4.396   4.797 -0.7431 -1.7446  1.5666
19923TIP3    H281185   0.405   4.415   4.658 -2.1359  2.1548  2.5375
19924TIP3   OH281186   3.091   2.845   5.313  0.1012  0.1269  0.2820
19924TIP3    H181187   3.183   2.872   5.313 -0.0691  0.8773 -1.2360
19924TIP3    H281188   3.093   2.752   5.294  0.5626  0.1252  0.3321
19925TIP3   OH281189   2.166   6.711   2.591  0.1097 -0.0038 -0.0160
19925TIP3    H181190   2.226   6.783   2.573 -2.7642  2.3343 -1.0117
19925TIP3    H281191   2.088   6.753   2.628 -1.3336 -2.7458  0.3144
19926TIP3   OH281192   6.568   1.820   2.007  0.3940  0.1060 -0.3853
19926TIP3    H181193   6.504   1.820   1.936 -0.1656  1.4689  0.0974
19926TIP3    H281194   6.644   1.866   1.972 -0.7174  2.8512  0.5573
19927TIP3   OH281195   5.407   1.948   3.914  0.3064  0.2987 -0.2282
19927TIP3    H181196   5.502   1.941   3.913  0.3040 -0.9328  1.7862
19927TIP3    H281197   5.379   1.890   3.985 -2.1312 -1.3368 -2.3150
19928TIP3   OH281198   2.275   6.322  17.221  0.3676  0.6750  0.3560
19928TIP3    H181199   2.205   6.385  17.237 -0.6128  0.6192 -2.9408
19928TIP3    H281200   2.353   6.376  17.207 -0.0625  1.0839 -0.5710
19929TIP3   OH281201   5.238   1.680   2.254  0.1039 -0.8423 -0.0270
19929TIP3    H181202   5.183   1.712   2.326  0.9900  2.2065 -0.5499
19929TIP3    H281203   5.178   1.669   2.181 -0.3376 -1.0672  0.3646
19930TIP3   OH281204   4.218   2.986   2.319  0.2996  0.1210  0.6719
19930TIP3    H181205   4.206   2.897   2.285  1.2008 -0.1373  1.0021
19930TIP3    H281206   4.213   2.976   2.414 -0.0789  0.5046  0.6946
19931TIP3   OH281207   5.560   5.996   2.908  0.6040  0.5614 -0.2495
19931TIP3    H181208   5.534   5.907   2.882 -1.0392  0.9885 -0.1887
19931TIP3    H281209   5.628   5.983   2.974 -1.7334 -0.7995  2.0977
19932TIP3   OH281210   1.016   5.791  17.233 -0.0212 -0.0793 -0.6007
19932TIP3    H181211   0.947   5.725  17.226 -0.0036 -0.1505 -0.1546
19932TIP3    H281212   1.083   5.763  17.171  0.8348 -1.5391  0.9156
19933TIP3   OH281213   2.524   2.297   0.273  0.4735  0.6205 -0.2059
19933TIP3    H181214   2.522   2.256   0.187  0.9103 -0.2399  0.1825
19933TIP3    H281215   2.508   2.390   0.255 -1.5406  0.1691 -0.9930
19934TIP3   OH281216   6.729   6.390   6.447 -0.2236 -0.1732 -0.0840
19934TIP3    H181217   6.668   6.368   6.377  1.3271  0.6001 -1.7471
19934TIP3    H281218   6.798   6.440   6.404  0.9090  0.1427  1.9742
19935TIP3   OH281219   6.565   5.373   0.780  0.3914 -0.1012 -0.1041
19935TIP3    H181220   6.513   5.414   0.711  0.4307  0.4760  0.2071
19935TIP3    H281221   6.614   5.304   0.734 -0.4654 -0.5096 -0.4380
19936TIP3   OH281222   6.550   3.801   3.403  0.2959  0.1755 -0.2765
19936TIP3    H181223   6.612   3.729   3.396  0.9970  0.8663 -1.6788
19936TIP3    H281224   6.546   3.837   3.314  0.6080  2.3704  0.5331
19937TIP3   OH281225   1.439   0.866  16.761  0.0826 -0.3746  0.3475
19937TIP3    H181226   1.446   0.797  16.827 -0.6654 -0.8300 -0.0361
19937TIP3    H281227   1.347   0.864  16.735 -0.1044  1.2169  0.7992
19938TIP3   OH281228   0.408   6.113   5.498  0.2505 -0.2892  0.6127
19938TIP3    H181229   0.347   6.067   5.440 -0.6621 -0.4925  1.7166
19938TIP3    H281230   0.475   6.048   5.518  1.6493  0.3284 -1.6958
19939TIP3   OH281231   1.891   6.675  17.039  0.4157  0.3940 -0.8403
19939TIP3    H181232   1.813   6.620  17.041 -0.3269  1.4189 -0.7713
19939TIP3    H281233   1.858   6.763  17.021  1.6646  0.6748 -1.9080
19940TIP3   OH281234   4.732   5.471  17.145 -0.1337  0.1561 -0.3651
19940TIP3    H181235   4.768   5.539  17.088  2.8002 -2.4629 -2.0166
19940TIP3    H281236   4.762   5.495  17.233 -2.0149  2.5989 -0.2878
19941TIP3   OH281237   4.793   1.585   2.875 -0.0664 -0.9258 -0.1166
19941TIP3    H181238   4.801   1.617   2.965  0.5416 -0.9991 -0.1362
19941TIP3    H281239   4.809   1.663   2.821 -0.2151 -0.9275 -0.1633
19942TIP3   OH281240   5.605   6.243   3.435 -0.3054  0.6995 -0.1932
19942TIP3    H181241   5.513   6.236   3.410  0.0320  0.0971 -1.3719
19942TIP3    H281242   5.653   6.235   3.352  0.9881 -2.9980  0.7127
19943TIP3   OH281243   3.360   1.726  17.231  0.0739 -0.3018  0.0414
19943TIP3    H181244   3.448   1.688  17.227  0.7755  1.2078  0.3617
19943TIP3    H281245   3.328   1.721  17.141  0.9060  0.0294 -0.2870
19944TIP3   OH281246   5.772   6.072   6.133 -0.0663 -0.0195  0.2012
19944TIP3    H181247   5.735   6.142   6.187 -0.1027 -0.1586  0.3569
19944TIP3    H281248   5.865   6.071   6.156 -0.3446 -1.0553  1.3512
19945TIP3   OH281249   3.332   3.394  13.131 -0.1241 -0.1127 -0.3635
19945TIP3    H181250   3.378   3.445  13.065  2.0559 -1.1455  0.2635
19945TIP3    H281251   3.346   3.442  13.212  0.0805 -0.5684 -0.1242
19946TIP3   OH281252   5.153   3.314  16.547 -0.0705 -0.6533 -0.1541
19946TIP3    H181253   5.089   3.385  16.539 -0.3814 -1.1156 -2.4976
19946TIP3    H281254   5.105   3.236  16.518  0.7726 -1.5247  0.7285
19947TIP3   OH281255   0.406   6.458   4.162 -0.4349  0.4667 -0.3293
19947TIP3    H181256   0.342   6.516   4.119 -3.7617 -2.6347 -0.0178
19947TIP3    H281257   0.416   6.494   4.250 -3.0234  0.2860  0.1159
19948TIP3   OH281258   1.180   0.776  16.689  0.0632  0.1214  0.0735
19948TIP3    H181259   1.155   0.684  16.695  1.1972 -0.1884  0.2641
19948TIP3    H281260   1.111   0.822  16.738 -0.7507 -0.5652 -0.3884
19949TIP3   OH281261   4.301   6.315   4.781 -0.3187  0.0193  0.4125
19949TIP3    H181262   4.331   6.274   4.863 -1.3609 -1.6382  0.0096
19949TIP3    H281263   4.206   6.309   4.785 -0.4299  1.0240 -0.4040
19950TIP3   OH281264   3.035   3.530   4.381 -0.3052 -0.0402  0.3090
19950TIP3    H181265   3.077   3.541   4.296 -0.8893  2.4021  0.2626
19950TIP3    H281266   3.106   3.501   4.439  0.5663  0.2591 -0.5887
19951TIP3   OH281267   4.750   5.817  15.117 -0.0559  0.3897 -0.1528
19951TIP3    H181268   4.711   5.754  15.177 -0.1325  0.1280 -0.4744
19951TIP3    H281269   4.738   5.779  15.030  0.9951  0.2581 -0.2556
19952TIP3   OH281270   0.437   2.880  16.990 -0.3416  0.6030 -0.0710
19952TIP3    H181271   0.383   2.801  16.983 -0.3260  0.5879 -0.0233
19952TIP3    H281272   0.503   2.870  16.922  0.0280  0.2843  0.3232
19953TIP3   OH281273   2.360   6.673   1.669 -0.1529 -0.0358 -0.0015
19953TIP3    H181274   2.289   6.661   1.732 -0.7472 -1.3062 -0.8705
19953TIP3    H281275   2.393   6.761   1.687 -0.8660 -0.0352  1.4969
19954TIP3   OH281276   2.121   2.142   2.548 -0.2696 -0.6384  0.2975
19954TIP3    H181277   2.098   2.138   2.455  1.2345 -0.1790 -0.1170
19954TIP3    H281278   2.215   2.129   2.550  0.2444  2.4093  1.4502
19955TIP3   OH281279   1.387   3.756  12.143  0.3659 -0.0089 -0.0220
19955TIP3    H181280   1.366   3.763  12.050 -0.4645 -1.2534  0.0379
19955TIP3    H281281   1.458   3.819  12.157  1.1594 -0.4605 -1.7007
19956TIP3   OH281282   0.735   4.103  14.122 -0.9706  0.4002  0.7405
19956TIP3    H181283   0.802   4.070  14.183  0.3009  2.3304  0.4790
19956TIP3    H281284   0.684   4.165  14.173  0.9290  3.0498 -0.3207
19957TIP3   OH281285   1.942   1.826   5.781 -0.0372  0.1551  0.6983
19957TIP3    H181286   1.914   1.734   5.782 -2.2466  0.6267 -2.5748
19957TIP3    H281287   2.037   1.822   5.773 -0.0847 -1.8511  0.6592
19958TIP3   OH281288   6.645   1.296  12.760  0.1548  0.0233 -0.3495
19958TIP3    H181289   6.693   1.376  12.736  1.4289 -0.0272  1.7670
19958TIP3    H281290   6.707   1.247  12.815 -1.5185 -1.1822  0.5458
19959TIP3   OH281291   1.907   4.464   3.915 -0.6482  0.6292 -0.4697
19959TIP3    H181292   1.961   4.389   3.894 -0.0662  1.0975 -0.6638
19959TIP3    H281293   1.966   4.539   3.910 -1.0906  1.0461  0.2369
19960TIP3   OH281294   3.434   1.075   2.211  0.4934  0.7522 -0.2196
19960TIP3    H181295   3.391   1.091   2.295  0.0863 -1.7076  0.1419
19960TIP3    H281296   3.524   1.053   2.234  0.2372 -0.4891 -0.3311
19961TIP3   OH281297   6.220   1.032   0.980 -0.1538 -0.6922 -0.2498
19961TIP3    H181298   6.262   0.995   1.057  0.0155 -0.5403 -0.2677
19961TIP3    H281299   6.281   1.015   0.909 -0.0050 -0.2549 -0.2319
19962TIP3   OH281300   5.731   6.594  12.847 -0.0799 -0.3627  0.3218
19962TIP3    H181301   5.655   6.549  12.813 -1.4993  0.5271  2.1290
19962TIP3    H281302   5.743   6.558  12.935 -0.3121  1.6236  1.2194
19963TIP3   OH281303   5.539   1.425  17.093  0.3524  0.0668 -0.2803
19963TIP3    H181304   5.482   1.489  17.136  0.3114 -0.7858  0.9576
19963TIP3    H281305   5.590   1.477  17.031 -0.0572  1.2187  0.3180
19964TIP3   OH281306   6.641   5.103  13.647  0.4200 -0.2959  0.1758
19964TIP3    H181307   6.546   5.112  13.659  0.4737 -0.2580  0.5765
19964TIP3    H281308   6.677   5.105  13.736  0.4538 -4.5365  0.4333
19965TIP3   OH281309   4.163   5.678   0.156 -0.7006  0.1435  0.7537
19965TIP3    H181310   4.257   5.697   0.157 -0.7963  0.6560  0.2481
19965TIP3    H281311   4.158   5.584   0.134 -0.3548  0.6953 -2.1616
19966LIG     O181312   2.000   2.132  16.305  0.3174  0.5901 -0.2831
19966LIG     O281313   1.849   1.975  16.385  0.1685  0.3943 -0.6474
19966LIG     O381314   1.707   2.160  16.416 -0.7945 -0.4990  0.6628
19966LIG     O481315   2.179   1.879  16.329 -0.2441 -0.1253 -0.3360
19966LIG     O581316   2.210   2.026  16.585  0.2059  0.6969  0.3747
19966LIG     O681317   1.622   1.844  16.228 -0.2611  0.5254 -0.6498
19966LIG     O781318   1.610   1.853  16.544  0.6769 -0.7951  0.3635
19966LIG     O881319   1.448   2.057  16.645  0.4318 -0.2053 -0.3541
19966LIG     O981320   1.879   1.809  16.138  0.5562 -0.3566 -0.0353
19966LIG    O1081321   1.967   2.327  16.521 -0.4413 -0.2152 -0.5382
19966LIG    O1181322   1.630   2.235  16.766 -0.3034 -0.0511  0.3552
19966LIG     C181323   1.961   1.992  16.303 -0.0508 -0.1063  0.0677
19966LIG     C281324   2.062   1.921  16.397 -0.6093  0.6655  0.1956
19966LIG     C381325   2.090   2.026  16.503 -0.8484  0.4452  0.7233
19966LIG     C481326   2.096   2.143  16.404 -0.1964 -0.6369  0.2769
19966LIG     C581327   1.731   2.043  16.336 -0.0603 -0.8281 -0.2066
19966LIG     C681328   1.601   1.957  16.318  0.3284  0.7359  0.3018
19966LIG     C781329   1.534   1.934  16.452 -0.5367  0.2436  0.0099
19966LIG     C881330   1.518   2.073  16.521  0.3536 -0.1218  0.1946
19966LIG     C981331   1.658   2.129  16.541 -0.6713 -0.2411 -0.2467
19966LIG    C1081332   1.951   1.934  16.155  0.2825  0.4691 -0.6738
19966LIG    C1181333   2.099   2.285  16.468  0.3125 -0.1217 -0.0304
19966LIG    C1281334   1.647   2.260  16.628  0.4886  0.3453 -0.1412
19966LIG     H181335   2.021   1.827  16.437  0.3312 -0.0167 -0.3845
19966LIG     H281336   2.000   2.045  16.563  0.2207  0.5618  2.3369
19966LIG     H381337   2.194   2.140  16.355 -0.6117  0.5328 -0.6768
19966LIG     H481338   1.753   2.083  16.235  0.4859  0.0738  0.2524
19966LIG     H581339   1.527   2.021  16.264 -0.5480  1.8360  2.6505
19966LIG     H681340   1.434   1.887  16.442 -1.1427  1.0359  1.8832
19966LIG     H781341   1.454   2.135  16.455 -1.3105  0.0577  1.9059
19966LIG     H881342   1.728   2.061  16.594 -0.8165  0.6912  1.2016
19966LIG     H981343   1.901   2.015  16.098 -0.9086 -0.2573 -0.6954
19966LIG    H1081344   2.055   1.928  16.115 -0.2911  0.2103 -2.2359
19966LIG    H1181345   2.176   2.293  16.548 -0.4041  0.2163  0.6497
19966LIG    H1281346   2.136   2.356  16.391 -0.2260 -1.8205 -1.9313
19966LIG    H1381347   1.744   2.314  16.623 -0.3553  2.0174  0.6246
19966LIG    H1481348   1.570   2.334  16.598  1.2967  2.2046  2.1145
19966LIG    H1581349   2.199   1.799  16.378 -0.2322 -1.7197 -2.7778
19966LIG    H1681350   2.278   2.068  16.532 -1.0098  4.5187  1.5061
19966LIG    H1781351   1.540   1.798  16.207  0.1554 -0.8910  0.6438
19966LIG    H1881352   1.557   1.850  16.623  0.6853 -0.8690  0.3661
19966LIG    H1981353   1.374   1.999  16.627 -0.3128  0.1055  1.5091
19966LIG    H2081354   1.793   1.821  16.179  0.6702  0.4521 -0.0219
19966LIG    H2181355   1.913   2.337  16.442 -0.6379 -1.1953 -0.5449
19966LIG    H2281356   1.555   2.174  16.766 -1.3645  1.2158  0.1127
   6.77668   6.77668  17.25935
